<event>
12    1  0.4672461E-008  0.1254339E+04  0.7818608E-02  0.9066580E-01
         -2   -1    0    0    0  501 -0.00000000000E+00  0.00000000000E+00  0.27006123851E+03  0.27006123851E+03  0.00000000000E+00 0.  1.
          2   -1    0    0  501    0  0.00000000000E+00 -0.00000000000E+00 -0.14564895216E+04  0.14564895216E+04  0.00000000000E+00 0. -1.
         23    2    1    2    0    0  0.25244465640E+03  0.12878907222E+03 -0.24548152966E+03  0.38561073579E+03  0.90108426285E+02 0.  0.
        254    2    1    2    0    0 -0.25244465640E+03 -0.12878907222E+03 -0.94094675348E+03  0.13409400244E+04  0.91237296453E+03 0.  0.
         23    2    4    4    0    0 -0.31257523432E+03  0.81345105359E+02 -0.10331352472E+04  0.10865807297E+04  0.94704487566E+02 0.  0.
         23    2    4    4    0    0  0.60130577916E+02 -0.21013417758E+03  0.92188493719E+02  0.25435929463E+03  0.91803449849E+02 0.  0.
         13    1    3    3    0    0  0.31469357223E+02  0.93007114957E+01  0.21246304203E+01  0.32883700107E+02  0.00000000000E+00 0. -1.
        -13    1    3    3    0    0  0.22097529918E+03  0.11948836072E+03 -0.24760616008E+03  0.35272703569E+03  0.00000000000E+00 0.  1.
          2    1    5    5  502    0 -0.43530206087E+02 -0.19354219315E+02 -0.18861440819E+03  0.19453755324E+03  0.00000000000E+00 0. -1.
          4    1    6    6  503    0 -0.24563514181E+02 -0.56625439276E+02  0.25421269586E+02  0.66753633230E+02  0.00000000000E+00 0. -1.
         -2    1    5    5    0  502 -0.26904502823E+03  0.10069932467E+03 -0.84452083901E+03  0.89204317649E+03  0.00000000000E+00 0.  1.
         -4    1    6    6    0  503  0.84694092097E+02 -0.15350873830E+03  0.66767224134E+02  0.18760566140E+03  0.00000000000E+00 0.  1.
<mgrwt>
<rscale>  0 0.12543387E+04</rscale>
<asrwt>0</asrwt>
<pdfrwt beam="1">  1        2 0.22407531E+00 0.12543387E+04</pdfrwt>
<pdfrwt beam="2">  1       -2 0.41547883E-01 0.12543387E+04</pdfrwt>
<totfact> 0.72469876E+01</totfact>
</mgrwt>
</event>
<event>
12    1  0.4672461E-008  0.1980255E+04  0.7818608E-02  0.8615908E-01
         -2   -1    0    0    0  501 -0.00000000000E+00  0.00000000000E+00  0.56317731729E+03  0.56317731729E+03  0.00000000000E+00 0.  1.
          2   -1    0    0  501    0  0.00000000000E+00 -0.00000000000E+00 -0.17407535234E+04  0.17407535234E+04  0.00000000000E+00 0. -1.
         23    2    1    2    0    0 -0.30478891991E+03  0.14876173303E+03 -0.12840339855E+04  0.13309652506E+04  0.87743281090E+02 0.  0.
        254    2    1    2    0    0  0.30478891991E+03 -0.14876173303E+03  0.10645777947E+03  0.97296559005E+03  0.90570549391E+03 0.  0.
         23    2    4    4    0    0  0.33757131097E+03  0.10037800072E+02 -0.34076942222E+03  0.48842502156E+03  0.91542641150E+02 0.  0.
         23    2    4    4    0    0 -0.32782391061E+02 -0.15879953310E+03  0.44722720169E+03  0.48454056849E+03  0.92062020987E+02 0.  0.
         11    1    3    3    0    0 -0.49601076175E+02 -0.64142921553E+01 -0.23381480865E+03  0.23910410838E+03  0.00000000000E+00 0.  1.
        -11    1    3    3    0    0 -0.25518784373E+03  0.15517602518E+03 -0.10502191769E+04  0.10918611422E+04  0.00000000000E+00 0. -1.
          2    1    6    6  502    0 -0.33768756039E+02 -0.16593531239E+03  0.36920069171E+03  0.40618223440E+03  0.00000000000E+00 0. -1.
          2    1    5    5  503    0  0.18883619786E+03  0.31214492045E+02 -0.24238094048E+03  0.30883972290E+03  0.00000000000E+00 0. -1.
         -2    1    5    5    0  503  0.14873511311E+03 -0.21176691973E+02 -0.98388481735E+02  0.17958529866E+03  0.00000000000E+00 0.  1.
         -2    1    6    6    0  502  0.98636497782E+00  0.71357792958E+01  0.78026509983E+02  0.78358334095E+02  0.00000000000E+00 0.  1.
<mgrwt>
<rscale>  0 0.19802554E+04</rscale>
<asrwt>0</asrwt>
<pdfrwt beam="1">  1        2 0.26780823E+00 0.19802554E+04</pdfrwt>
<pdfrwt beam="2">  1       -2 0.86642667E-01 0.19802554E+04</pdfrwt>
<totfact> 0.99895515E+00</totfact>
</mgrwt>
</event>
<event>
12    1  0.4672461E-008  0.1311840E+04  0.7818608E-02  0.9020228E-01
         -1   -1    0    0    0  501 -0.00000000000E+00  0.00000000000E+00  0.43643220392E+03  0.43643220392E+03  0.00000000000E+00 0.  1.
          1   -1    0    0  501    0  0.00000000000E+00 -0.00000000000E+00 -0.98579085163E+03  0.98579085163E+03  0.00000000000E+00 0. -1.
         23    2    1    2    0    0 -0.21073473877E+03 -0.26529298532E+03 -0.19185541140E+03  0.39997560733E+03  0.91555935837E+02 0.  0.
        254    2    1    2    0    0  0.21073473877E+03  0.26529298532E+03 -0.35750323631E+03  0.10222474482E+04  0.89576324062E+03 0.  0.
         23    2    4    4    0    0  0.20950653488E+02  0.20871303931E+03 -0.63170324021E+03  0.67206193111E+03  0.92834222711E+02 0.  0.
         23    2    4    4    0    0  0.18978408528E+03  0.56579946008E+02  0.27420000390E+03  0.35018551711E+03  0.90691592445E+02 0.  0.
         13    1    3    3    0    0 -0.13263327022E+03 -0.19665310552E+03 -0.87950966115E+02  0.25298102838E+03  0.00000000000E+00 0. -1.
        -13    1    3    3    0    0 -0.78101468547E+02 -0.68639879798E+02 -0.10390444529E+03  0.14699457894E+03  0.00000000000E+00 0.  1.
          2    1    5    5  502    0  0.43539954590E+02  0.13516653323E+03 -0.30524869144E+03  0.33666375359E+03  0.00000000000E+00 0. -1.
          1    1    6    6  503    0  0.41086969250E+02 -0.15678946191E+02  0.10396603833E+03  0.11288447866E+03  0.00000000000E+00 0. -1.
         -2    1    5    5    0  502 -0.22589301102E+02  0.73546506080E+02 -0.32645454876E+03  0.33539817753E+03  0.00000000000E+00 0.  1.
         -1    1    6    6    0  503  0.14869711603E+03  0.72258892199E+02  0.17023396556E+03  0.23730103845E+03  0.00000000000E+00 0.  1.
<mgrwt>
<rscale>  0 0.13118397E+04</rscale>
<asrwt>0</asrwt>
<pdfrwt beam="1">  1        1 0.15166013E+00 0.13118397E+04</pdfrwt>
<pdfrwt beam="2">  1       -1 0.67143416E-01 0.13118397E+04</pdfrwt>
<totfact> 0.34247465E+01</totfact>
</mgrwt>
</event>
<event>
12    1  0.4672461E-008  0.3174174E+04  0.7818608E-02  0.8195671E-01
         -1   -1    0    0    0  501 -0.00000000000E+00  0.00000000000E+00  0.15276907441E+04  0.15276907441E+04  0.00000000000E+00 0.  1.
          1   -1    0    0  501    0  0.00000000000E+00 -0.00000000000E+00 -0.16487922488E+04  0.16487922488E+04  0.00000000000E+00 0. -1.
         23    2    1    2    0    0  0.43569955794E+03 -0.34428206517E+03 -0.14007725026E+04  0.15096287123E+04  0.91929319617E+02 0.  0.
        254    2    1    2    0    0 -0.43569955794E+03  0.34428206517E+03  0.12796709979E+04  0.16668542805E+04  0.91240401378E+03 0.  0.
         23    2    4    4    0    0  0.19704235146E+03  0.22975184249E+03  0.79774324431E+03  0.85812539688E+03  0.91505822316E+02 0.  0.
         23    2    4    4    0    0 -0.63274190940E+03  0.11453022268E+03  0.48192775358E+03  0.80872888362E+03  0.91151257309E+02 0.  0.
         11    1    3    3    0    0  0.40168262782E+03 -0.29700940774E+03 -0.13072808217E+04  0.13994808568E+04  0.00000000000E+00 0. -1.
        -11    1    3    3    0    0  0.34016930117E+02 -0.47272657434E+02 -0.93491680924E+02  0.11014785553E+03  0.00000000000E+00 0.  1.
          4    1    5    5  502    0  0.14716565784E+03  0.10265476831E+03  0.46946515890E+03  0.50258657734E+03  0.00000000000E+00 0.  1.
          1    1    6    6  503    0 -0.26322356012E+03  0.37683096678E+02  0.25453830795E+03  0.36809836809E+03  0.00000000000E+00 0. -1.
         -4    1    5    5    0  502  0.49876693619E+02  0.12709707418E+03  0.32827808542E+03  0.35553881954E+03  0.00000000000E+00 0. -1.
         -1    1    6    6    0  503 -0.36951834928E+03  0.76847125999E+02  0.22738944563E+03  0.44063051553E+03  0.00000000000E+00 0.  1.
<mgrwt>
<rscale>  0 0.31741737E+04</rscale>
<asrwt>0</asrwt>
<pdfrwt beam="1">  1        1 0.25366035E+00 0.31741737E+04</pdfrwt>
<pdfrwt beam="2">  1       -1 0.23502935E+00 0.31741737E+04</pdfrwt>
<totfact> 0.37872765E-01</totfact>
</mgrwt>
</event>
<event>
12    1  0.4672461E-008  0.3630740E+04  0.7818608E-02  0.8083486E-01
         -1   -1    0    0    0  501 -0.00000000000E+00  0.00000000000E+00  0.10326183679E+04  0.10326183679E+04  0.00000000000E+00 0.  1.
          1   -1    0    0  501    0  0.00000000000E+00 -0.00000000000E+00 -0.31914679640E+04  0.31914679640E+04  0.00000000000E+00 0. -1.
         23    2    1    2    0    0 -0.37294917591E+03  0.49049374416E+03 -0.28651815018E+04  0.29321126498E+04  0.91347423416E+02 0.  0.
        254    2    1    2    0    0  0.37294917591E+03 -0.49049374416E+03  0.70633190576E+03  0.12919736821E+04  0.88916591997E+03 0.  0.
         23    2    4    4    0    0  0.43180226466E+03 -0.32660365594E+03  0.87474890552E+03  0.10326805609E+04  0.90112980873E+02 0.  0.
         23    2    4    4    0    0 -0.58853088750E+02 -0.16389008822E+03 -0.16841699976E+03  0.25929312118E+03  0.92439114082E+02 0.  0.
         13    1    3    3    0    0 -0.35417472902E+03  0.48236024831E+03 -0.26911310483E+04  0.27568637011E+04  0.00000000000E+00 0. -1.
        -13    1    3    3    0    0 -0.18774446891E+02  0.81334958492E+01 -0.17405045358E+03  0.17524894865E+03  0.00000000000E+00 0.  1.
          4    1    5    5  502    0  0.64076458829E+02 -0.32013314878E+02  0.17492596524E+03  0.18902311557E+03  0.00000000000E+00 0. -1.
          1    1    6    6  503    0 -0.20726742142E+01 -0.11613386928E+03 -0.68515766799E+02  0.13485466945E+03  0.00000000000E+00 0. -1.
         -4    1    5    5    0  502  0.36772580583E+03 -0.29459034106E+03  0.69982294028E+03  0.84365744533E+03  0.00000000000E+00 0.  1.
         -1    1    6    6    0  503 -0.56780414536E+02 -0.47756218937E+02 -0.99901232960E+02  0.12443845173E+03  0.00000000000E+00 0.  1.
<mgrwt>
<rscale>  0 0.36307401E+04</rscale>
<asrwt>0</asrwt>
<pdfrwt beam="1">  1        1 0.49099507E+00 0.36307401E+04</pdfrwt>
<pdfrwt beam="2">  1       -1 0.15886436E+00 0.36307401E+04</pdfrwt>
<totfact> 0.10367188E-01</totfact>
</mgrwt>
</event>
<event>
12    1  0.4672461E-008  0.1485309E+04  0.7818608E-02  0.8894281E-01
          1   -1    0    0  501    0  0.00000000000E+00  0.00000000000E+00  0.24919832254E+04  0.24919832254E+04  0.00000000000E+00 0. -1.
         -1   -1    0    0    0  501 -0.00000000000E+00 -0.00000000000E+00 -0.22132408823E+03  0.22132408823E+03  0.00000000000E+00 0.  1.
         23    2    1    2    0    0 -0.15665260366E+03 -0.44446531326E+03  0.69301850597E+03  0.84260953199E+03  0.87331099089E+02 0.  0.
        254    2    1    2    0    0  0.15665260366E+03  0.44446531326E+03  0.15776406312E+04  0.18706977816E+04  0.88795876934E+03 0.  0.
         23    2    4    4    0    0 -0.22120955347E+02 -0.23873449984E+03  0.66785944445E+03  0.71547338547E+03  0.91555609903E+02 0.  0.
         23    2    4    4    0    0  0.17877355901E+03  0.68319981309E+03  0.90978118677E+03  0.11552243962E+04  0.90108976762E+02 0.  0.
         11    1    3    3    0    0  0.43752641183E+01 -0.38753650782E+01  0.29157371953E+02  0.29737412965E+02  0.00000000000E+00 0.  1.
        -11    1    3    3    0    0 -0.16102786778E+03 -0.44058994818E+03  0.66386113402E+03  0.81287211903E+03  0.00000000000E+00 0. -1.
          1    1    5    5  502    0  0.20607020507E+02 -0.93859268596E+02  0.17086501704E+03  0.19603332789E+03  0.00000000000E+00 0. -1.
          1    1    6    6  503    0  0.36837311016E+02  0.56178875166E+02  0.63431529784E+02  0.92393790206E+02  0.00000000000E+00 0. -1.
         -1    1    5    5    0  502 -0.42727975854E+02 -0.14487523124E+03  0.49699442741E+03  0.51944005758E+03  0.00000000000E+00 0.  1.
         -1    1    6    6    0  503  0.14193624800E+03  0.62702093793E+03  0.84634965698E+03  0.10628306060E+04  0.00000000000E+00 0.  1.
<mgrwt>
<rscale>  0 0.14853093E+04</rscale>
<asrwt>0</asrwt>
<pdfrwt beam="1">  1        1 0.38338201E+00 0.14853093E+04</pdfrwt>
<pdfrwt beam="2">  1       -1 0.34049862E-01 0.14853093E+04</pdfrwt>
<totfact> 0.10863395E+01</totfact>
</mgrwt>
</event>
<event>
12    1  0.4672461E-008  0.2563710E+04  0.7818608E-02  0.8380634E-01
         -1   -1    0    0    0  501 -0.00000000000E+00  0.00000000000E+00  0.97613429415E+03  0.97613429415E+03  0.00000000000E+00 0.  1.
          1   -1    0    0  501    0  0.00000000000E+00 -0.00000000000E+00 -0.16833260005E+04  0.16833260005E+04  0.00000000000E+00 0. -1.
         23    2    1    2    0    0 -0.30526013468E+03  0.10353706585E+04 -0.99758897529E+02  0.10877987431E+04  0.90432945071E+02 0.  0.
        254    2    1    2    0    0  0.30526013468E+03 -0.10353706585E+04 -0.60743280885E+03  0.15716615516E+04  0.96745504560E+03 0.  0.
         23    2    4    4    0    0  0.58764675002E+03 -0.96260964205E+03 -0.39074095341E+03  0.11970466134E+04  0.91082797989E+02 0.  0.
         23    2    4    4    0    0 -0.28238661534E+03 -0.72761016418E+02 -0.21669185544E+03  0.37461493825E+03  0.91348922871E+02 0.  0.
         11    1    3    3    0    0 -0.10683790502E+02  0.57296455560E+02  0.14202925010E+02  0.59989584747E+02  0.00000000000E+00 0.  1.
        -11    1    3    3    0    0 -0.29457634418E+03  0.97807420291E+03 -0.11396182254E+03  0.10278091583E+04  0.00000000000E+00 0. -1.
          3    1    6    6  502    0 -0.67290707078E+02 -0.59483895611E+02 -0.56714408504E+02  0.10622098299E+03  0.00000000000E+00 0. -1.
          3    1    5    5  503    0  0.18390235139E+03 -0.32774338194E+03 -0.87519709535E+02  0.38586979515E+03  0.00000000000E+00 0. -1.
         -3    1    5    5    0  503  0.40374439863E+03 -0.63486626011E+03 -0.30322124387E+03  0.81117681820E+03  0.00000000000E+00 0.  1.
         -3    1    6    6    0  502 -0.21509590826E+03 -0.13277120807E+02 -0.15997744694E+03  0.26839395525E+03  0.00000000000E+00 0.  1.
<mgrwt>
<rscale>  0 0.25637100E+04</rscale>
<asrwt>0</asrwt>
<pdfrwt beam="1">  1        1 0.25897323E+00 0.25637100E+04</pdfrwt>
<pdfrwt beam="2">  1       -1 0.15017451E+00 0.25637100E+04</pdfrwt>
<totfact> 0.15034712E+00</totfact>
</mgrwt>
</event>
<event>
12    1  0.4672461E-008  0.2169890E+04  0.7818608E-02  0.8531066E-01
          1   -1    0    0  501    0  0.00000000000E+00  0.00000000000E+00  0.22276223446E+04  0.22276223446E+04  0.00000000000E+00 0. -1.
         -1   -1    0    0    0  501 -0.00000000000E+00 -0.00000000000E+00 -0.52841355637E+03  0.52841355637E+03  0.00000000000E+00 0.  1.
         23    2    1    2    0    0 -0.47892242910E+03  0.73562911375E+03  0.92718599274E+03  0.12801312805E+04  0.92441030712E+02 0.  0.
        254    2    1    2    0    0  0.47892242910E+03 -0.73562911375E+03  0.77202279545E+03  0.14759046204E+04  0.90097634029E+03 0.  0.
         23    2    4    4    0    0  0.40266507440E+03  0.82520108217E+02  0.17531771878E+03  0.45630867090E+03  0.92371912504E+02 0.  0.
         23    2    4    4    0    0  0.76257354701E+02 -0.81814922196E+03  0.59670507666E+03  0.10195959495E+04  0.91299606720E+02 0.  0.
         11    1    3    3    0    0 -0.87863865308E+01 -0.92614419855E+00  0.90624883123E+01  0.12656501324E+02  0.00000000000E+00 0.  1.
        -11    1    3    3    0    0 -0.47013604257E+03  0.73655525795E+03  0.91812350443E+03  0.12674747792E+04  0.00000000000E+00 0. -1.
          1    1    5    5  502    0  0.14685102316E+03 -0.13035403901E+02  0.48328151822E+02  0.15514752662E+03  0.00000000000E+00 0. -1.
          1    1    6    6  503    0 -0.28302783899E+01 -0.29290300792E+01 -0.24857041850E+01  0.47716263752E+01  0.00000000000E+00 0. -1.
         -1    1    5    5    0  502  0.25581405124E+03  0.95555512118E+02  0.12698956696E+03  0.30116114428E+03  0.00000000000E+00 0.  1.
         -1    1    6    6    0  503  0.79087633091E+02 -0.81522019189E+03  0.59919078085E+03  0.10148243231E+04  0.00000000000E+00 0.  1.
<mgrwt>
<rscale>  0 0.21698902E+04</rscale>
<asrwt>0</asrwt>
<pdfrwt beam="1">  1        1 0.34271113E+00 0.21698902E+04</pdfrwt>
<pdfrwt beam="2">  1       -1 0.81294394E-01 0.21698902E+04</pdfrwt>
<totfact> 0.28737680E+00</totfact>
</mgrwt>
</event>
<event>
12    1  0.4672461E-008  0.1761536E+04  0.7818608E-02  0.8727026E-01
          1   -1    0    0  501    0  0.00000000000E+00  0.00000000000E+00  0.17700342422E+04  0.17700342422E+04  0.00000000000E+00 0. -1.
         -1   -1    0    0    0  501 -0.00000000000E+00 -0.00000000000E+00 -0.43826945017E+03  0.43826945017E+03  0.00000000000E+00 0.  1.
         23    2    1    2    0    0  0.75070416322E+02  0.49258096276E+03  0.10052901514E+04  0.11264765586E+04  0.10034727871E+03 0.  0.
        254    2    1    2    0    0 -0.75070416322E+02 -0.49258096276E+03  0.32647464068E+03  0.10818271338E+04  0.90304633554E+03 0.  0.
         23    2    4    4    0    0  0.35165731141E+03 -0.52099314991E+02  0.27712211795E+03  0.45994673665E+03  0.91526657402E+02 0.  0.
         23    2    4    4    0    0 -0.42672772773E+03 -0.44048164777E+03  0.49352522731E+02  0.62188039714E+03  0.90437388345E+02 0.  0.
         13    1    3    3    0    0  0.22519936534E+02  0.40538979151E+03  0.82230481704E+03  0.91707864589E+03  0.00000000000E+00 0. -1.
        -13    1    3    3    0    0  0.52550479788E+02  0.87191171247E+02  0.18298533435E+03  0.20939791273E+03  0.00000000000E+00 0.  1.
          2    1    5    5  502    0  0.23445689004E+03 -0.63509917585E+01  0.22072717065E+03  0.32207274372E+03  0.00000000000E+00 0. -1.
          4    1    6    6  503    0 -0.10875986841E+03 -0.11443430255E+03  0.52724502859E+02  0.16644456067E+03  0.00000000000E+00 0.  1.
         -2    1    5    5    0  502  0.11720042137E+03 -0.45748323233E+02  0.56394947297E+02  0.13787399294E+03  0.00000000000E+00 0.  1.
         -4    1    6    6    0  503 -0.31796785932E+03 -0.32604734522E+03 -0.33719801283E+01  0.45543583647E+03  0.00000000000E+00 0. -1.
<mgrwt>
<rscale>  0 0.17615356E+04</rscale>
<asrwt>0</asrwt>
<pdfrwt beam="1">  1        1 0.27231296E+00 0.17615356E+04</pdfrwt>
<pdfrwt beam="2">  1       -1 0.67426070E-01 0.17615356E+04</pdfrwt>
<totfact> 0.90048216E+00</totfact>
</mgrwt>
</event>
<event>
12    1  0.4672461E-008  0.1813143E+04  0.7818608E-02  0.8699341E-01
          2   -1    0    0  501    0  0.00000000000E+00  0.00000000000E+00  0.10649463580E+04  0.10649463580E+04  0.00000000000E+00 0. -1.
         -2   -1    0    0    0  501 -0.00000000000E+00 -0.00000000000E+00 -0.77174979285E+03  0.77174979285E+03  0.00000000000E+00 0.  1.
         23    2    1    2    0    0  0.23387728622E+03 -0.58145873041E+03 -0.14964364303E+03  0.65550853013E+03  0.12043825386E+03 0.  0.
        254    2    1    2    0    0 -0.23387728622E+03  0.58145873041E+03  0.44284020816E+03  0.11811876207E+04  0.89794426619E+03 0.  0.
         23    2    4    4    0    0 -0.35741300036E+03 -0.10456190504E+03  0.85519199034E+02  0.39265584825E+03  0.90486667259E+02 0.  0.
         23    2    4    4    0    0  0.12353571414E+03  0.68602063544E+03  0.35732100913E+03  0.78853177246E+03  0.90656867905E+02 0.  0.
         13    1    3    3    0    0  0.35684025985E+02 -0.16336208975E+02 -0.66558497443E+01  0.39806051927E+02  0.00000000000E+00 0. -1.
        -13    1    3    3    0    0  0.19819326024E+03 -0.56512252143E+03 -0.14298779328E+03  0.61570247820E+03  0.00000000000E+00 0.  1.
          4    1    5    5  502    0 -0.31832237803E+03 -0.89203367823E+02  0.43828671145E+02  0.33347762983E+03  0.00000000000E+00 0. -1.
          3    1    6    6  503    0  0.11592642863E+03  0.67925604261E+03  0.33988799142E+03  0.76834338351E+03  0.00000000000E+00 0. -1.
         -4    1    5    5    0  502 -0.39090622332E+02 -0.15358537212E+02  0.41690527888E+02  0.59178218419E+02  0.00000000000E+00 0.  1.
         -3    1    6    6    0  503  0.76092855052E+01  0.67645928357E+01  0.17433017704E+02  0.20188388950E+02  0.00000000000E+00 0.  1.
<mgrwt>
<rscale>  0 0.18131433E+04</rscale>
<asrwt>0</asrwt>
<pdfrwt beam="1">  1        2 0.16383790E+00 0.18131433E+04</pdfrwt>
<pdfrwt beam="2">  1       -2 0.11873074E+00 0.18131433E+04</pdfrwt>
<totfact> 0.11780147E+01</totfact>
</mgrwt>
</event>
<event>
12    1  0.4672461E-008  0.2506527E+04  0.7818608E-02  0.8400664E-01
          2   -1    0    0  501    0  0.00000000000E+00  0.00000000000E+00  0.41027927338E+04  0.41027927338E+04  0.00000000000E+00 0. -1.
         -2   -1    0    0    0  501 -0.00000000000E+00 -0.00000000000E+00 -0.38282937395E+03  0.38282937395E+03  0.00000000000E+00 0.  1.
         23    2    1    2    0    0 -0.66484330783E+03  0.85294341422E+03  0.13953345451E+04  0.17694956415E+04  0.12094313021E+03 0.  0.
        254    2    1    2    0    0  0.66484330783E+03 -0.85294341422E+03  0.23246288148E+04  0.27161264662E+04  0.89661293898E+03 0.  0.
         23    2    4    4    0    0  0.51290518172E+03 -0.72039937237E+03  0.23288787223E+04  0.24927198001E+04  0.89044468698E+02 0.  0.
         23    2    4    4    0    0  0.15193812612E+03 -0.13254404185E+03 -0.42499075549E+01  0.22340666614E+03  0.96121587392E+02 0.  0.
         13    1    3    3    0    0 -0.35630999590E+02  0.40229747014E+02  0.33491247680E+02  0.63321910487E+02  0.00000000000E+00 0.  1.
        -13    1    3    3    0    0 -0.62921230824E+03  0.81271366721E+03  0.13618432974E+04  0.17061737310E+04  0.00000000000E+00 0. -1.
          4    1    5    5  502    0  0.89418998847E+01 -0.33477787840E+02  0.13068109750E+03  0.13519714899E+03  0.00000000000E+00 0. -1.
          3    1    6    6  503    0  0.69077438750E+02 -0.38242721259E+02  0.42234704244E+02  0.89543109820E+02  0.00000000000E+00 0. -1.
         -4    1    5    5    0  502  0.50396328183E+03 -0.68692158453E+03  0.21981976248E+04  0.23575226511E+04  0.00000000000E+00 0.  1.
         -3    1    6    6    0  503  0.82860687367E+02 -0.94301320594E+02 -0.46484611798E+02  0.13386355632E+03  0.00000000000E+00 0.  1.
<mgrwt>
<rscale>  0 0.25065271E+04</rscale>
<asrwt>0</asrwt>
<pdfrwt beam="1">  1        2 0.63119885E+00 0.25065271E+04</pdfrwt>
<pdfrwt beam="2">  1       -2 0.58896830E-01 0.25065271E+04</pdfrwt>
<totfact> 0.67845060E-01</totfact>
</mgrwt>
</event>
<event>
12    1  0.4672461E-008  0.1530521E+04  0.7818608E-02  0.8864407E-01
          2   -1    0    0  501    0  0.00000000000E+00  0.00000000000E+00  0.65355229280E+03  0.65355229280E+03  0.00000000000E+00 0. -1.
         -2   -1    0    0    0  501 -0.00000000000E+00 -0.00000000000E+00 -0.89606195505E+03  0.89606195505E+03  0.00000000000E+00 0.  1.
         23    2    1    2    0    0 -0.40903822896E+03  0.76665739362E+02  0.18830914522E+03  0.46580862690E+03  0.91254777269E+02 0.  0.
        254    2    1    2    0    0  0.40903822896E+03 -0.76665739362E+02 -0.43081880747E+03  0.10838056209E+04  0.90323854589E+03 0.  0.
         23    2    4    4    0    0 -0.27155199370E+03 -0.10479304541E+03 -0.16953106438E+03  0.34873204297E+03  0.90283931865E+02 0.  0.
         23    2    4    4    0    0  0.68059022267E+03  0.28127306052E+02 -0.26128774309E+03  0.73507357798E+03  0.89820286253E+02 0.  0.
         13    1    3    3    0    0 -0.18125654134E+02  0.18658670018E+02  0.30972526607E+02  0.40447283086E+02  0.00000000000E+00 0.  1.
        -13    1    3    3    0    0 -0.39091257483E+03  0.58007069344E+02  0.15733661861E+03  0.42536134381E+03  0.00000000000E+00 0. -1.
          2    1    5    5  502    0  0.52492900096E+01 -0.42057628173E+00 -0.13043964552E+02  0.14066873898E+02  0.00000000000E+00 0.  1.
          1    1    6    6  503    0  0.46514122290E+03  0.25275132277E+02 -0.13357583683E+03  0.48460055069E+03  0.00000000000E+00 0. -1.
         -2    1    5    5    0  502 -0.27680128371E+03 -0.10437246913E+03 -0.15648709983E+03  0.33466516907E+03  0.00000000000E+00 0. -1.
         -1    1    6    6    0  503  0.21544899977E+03  0.28521737745E+01 -0.12771190626E+03  0.25047302729E+03  0.00000000000E+00 0.  1.
<mgrwt>
<rscale>  0 0.15305206E+04</rscale>
<asrwt>0</asrwt>
<pdfrwt beam="1">  1        2 0.10054651E+00 0.15305206E+04</pdfrwt>
<pdfrwt beam="2">  1       -2 0.13785568E+00 0.15305206E+04</pdfrwt>
<totfact> 0.16086496E+01</totfact>
</mgrwt>
</event>
<event>
12    1  0.4672461E-008  0.1037424E+04  0.7818608E-02  0.9268425E-01
          2   -1    0    0  501    0  0.00000000000E+00  0.00000000000E+00  0.41760395967E+04  0.41760395967E+04  0.00000000000E+00 0.  1.
         -2   -1    0    0    0  501 -0.00000000000E+00 -0.00000000000E+00 -0.64430007967E+02  0.64430007967E+02  0.00000000000E+00 0. -1.
         23    2    1    2    0    0  0.19116443803E+03 -0.84773938718E+02  0.94339213956E+03  0.97067261676E+03  0.92120230560E+02 0.  0.
        254    2    1    2    0    0 -0.19116443803E+03  0.84773938718E+02  0.31682174492E+04  0.32697969879E+04  0.78117864402E+03 0.  0.
         23    2    4    4    0    0 -0.42508419876E+03  0.97600114322E+01  0.10652647099E+04  0.11506370598E+04  0.91569140256E+02 0.  0.
         23    2    4    4    0    0  0.23391976073E+03  0.75013927285E+02  0.21029527393E+04  0.21191599281E+04  0.89905691735E+02 0.  0.
         13    1    3    3    0    0  0.17544719520E+03 -0.10349017189E+03  0.85831837203E+03  0.88215778733E+03  0.00000000000E+00 0.  1.
        -13    1    3    3    0    0  0.15717242822E+02  0.18716233171E+02  0.85073767536E+02  0.88514829428E+02  0.00000000000E+00 0. -1.
          1    1    5    5  502    0 -0.38680131906E+03 -0.18643605836E+02  0.94460094476E+03  0.10208985206E+04  0.00000000000E+00 0. -1.
          3    1    6    6  503    0  0.10174643119E+03  0.63941723611E+02  0.12749871510E+04  0.12806377768E+04  0.00000000000E+00 0. -1.
         -1    1    5    5    0  502 -0.38282879697E+02  0.28403617269E+02  0.12066376509E+03  0.12973853922E+03  0.00000000000E+00 0.  1.
         -3    1    6    6    0  503  0.13217332955E+03  0.11072203674E+02  0.82796558832E+03  0.83852215128E+03  0.00000000000E+00 0.  1.
<mgrwt>
<rscale>  0 0.10374242E+04</rscale>
<asrwt>0</asrwt>
<pdfrwt beam="1">  1        2 0.64246742E+00 0.10374242E+04</pdfrwt>
<pdfrwt beam="2">  1       -2 0.99123122E-02 0.10374242E+04</pdfrwt>
<totfact> 0.18018834E+01</totfact>
</mgrwt>
</event>
<event>
12    1  0.4672461E-008  0.2144674E+04  0.7818608E-02  0.8541815E-01
          1   -1    0    0  501    0  0.00000000000E+00  0.00000000000E+00  0.74090778628E+03  0.74090778628E+03  0.00000000000E+00 0. -1.
         -1   -1    0    0    0  501 -0.00000000000E+00 -0.00000000000E+00 -0.15520239020E+04  0.15520239020E+04  0.00000000000E+00 0.  1.
         23    2    1    2    0    0 -0.38842357749E+02 -0.84261461648E+03 -0.67206781562E+02  0.85268456491E+03  0.10510040473E+03 0.  0.
        254    2    1    2    0    0  0.38842357749E+02  0.84261461648E+03 -0.74390933413E+03  0.14402471233E+04  0.89966802667E+03 0.  0.
         23    2    4    4    0    0  0.12731104954E+03  0.98854036525E+03 -0.74135169542E+03  0.12455765431E+04  0.91860934572E+02 0.  0.
         23    2    4    4    0    0 -0.88468691790E+02 -0.14592574876E+03 -0.25576387147E+01  0.19467058027E+03  0.93643257777E+02 0.  0.
         11    1    3    3    0    0 -0.31462450517E+02 -0.76796721475E+03 -0.91024889425E+02  0.77398259619E+03  0.00000000000E+00 0.  1.
        -11    1    3    3    0    0 -0.73799072315E+01 -0.74647401738E+02  0.23818107863E+02  0.78701968712E+02  0.00000000000E+00 0. -1.
          4    1    5    5  502    0  0.67406822290E+02  0.80227494014E+03 -0.58733901012E+03  0.99657206065E+03  0.00000000000E+00 0. -1.
          1    1    6    6  503    0 -0.72400816283E+02 -0.15777889262E+03  0.40327742788E+01  0.17364423522E+03  0.00000000000E+00 0. -1.
         -4    1    5    5    0  502  0.59904227249E+02  0.18626542511E+03 -0.15401268530E+03  0.24900448242E+03  0.00000000000E+00 0.  1.
         -1    1    6    6    0  503 -0.16067875506E+02  0.11853143862E+02 -0.65904129934E+01  0.21026345049E+02  0.00000000000E+00 0.  1.
<mgrwt>
<rscale>  0 0.21446740E+04</rscale>
<asrwt>0</asrwt>
<pdfrwt beam="1">  1        1 0.11398581E+00 0.21446740E+04</pdfrwt>
<pdfrwt beam="2">  1       -1 0.23877291E+00 0.21446740E+04</pdfrwt>
<totfact> 0.18887263E+00</totfact>
</mgrwt>
</event>
<event>
12    1  0.4672461E-008  0.1096392E+04  0.7818608E-02  0.9208716E-01
         -2   -1    0    0    0  501 -0.00000000000E+00  0.00000000000E+00  0.15155656936E+04  0.15155656936E+04  0.00000000000E+00 0.  1.
          2   -1    0    0  501    0  0.00000000000E+00 -0.00000000000E+00 -0.19828813228E+03  0.19828813228E+03  0.00000000000E+00 0. -1.
         23    2    1    2    0    0 -0.12811159143E+03 -0.94717124984E+02  0.24778903768E+03  0.30964729881E+03  0.95384112104E+02 0.  0.
        254    2    1    2    0    0  0.12811159143E+03  0.94717124984E+02  0.10694885236E+04  0.14042065271E+04  0.89588300288E+03 0.  0.
         23    2    4    4    0    0  0.37252154858E+03 -0.25823181285E+03  0.44982073888E+03  0.64489898832E+03  0.90000192687E+02 0.  0.
         23    2    4    4    0    0 -0.24440995715E+03  0.35294893784E+03  0.61966778474E+03  0.75930753874E+03  0.90832786280E+02 0.  0.
         11    1    3    3    0    0 -0.81068978558E+02 -0.92880118240E+02  0.11436620851E+03  0.16816219937E+03  0.00000000000E+00 0. -1.
        -11    1    3    3    0    0 -0.47042612875E+02 -0.18370067441E+01  0.13342282916E+03  0.14148509943E+03  0.00000000000E+00 0.  1.
          2    1    5    5  502    0  0.37400757956E+03 -0.24551963010E+03  0.44554555068E+03  0.63140509664E+03  0.00000000000E+00 0. -1.
          1    1    6    6  503    0 -0.20065552118E+03  0.32174302879E+03  0.57811685572E+03  0.69137566751E+03  0.00000000000E+00 0. -1.
         -2    1    5    5    0  502 -0.14860309826E+01 -0.12712182754E+02  0.42751881975E+01  0.13493891677E+02  0.00000000000E+00 0.  1.
         -1    1    6    6    0  503 -0.43754435964E+02  0.31205909052E+02  0.41550929022E+02  0.67931871230E+02  0.00000000000E+00 0.  1.
<mgrwt>
<rscale>  0 0.10963917E+04</rscale>
<asrwt>0</asrwt>
<pdfrwt beam="1">  1        2 0.30505867E-01 0.10963917E+04</pdfrwt>
<pdfrwt beam="2">  1       -2 0.23316395E+00 0.10963917E+04</pdfrwt>
<totfact> 0.14213166E+01</totfact>
</mgrwt>
</event>
<event>
12    1  0.4672461E-008  0.2781358E+04  0.7818608E-02  0.8309079E-01
          2   -1    0    0  501    0  0.00000000000E+00  0.00000000000E+00  0.18126785530E+04  0.18126785530E+04  0.00000000000E+00 0. -1.
         -2   -1    0    0    0  501 -0.00000000000E+00 -0.00000000000E+00 -0.10669226487E+04  0.10669226487E+04  0.00000000000E+00 0.  1.
         23    2    1    2    0    0 -0.11704705274E+04 -0.27681235499E+03 -0.36017967687E+00  0.12062848335E+04  0.92177189765E+02 0.  0.
        254    2    1    2    0    0  0.11704705274E+04  0.27681235499E+03  0.74611608399E+03  0.16733163683E+04  0.89256491194E+03 0.  0.
         23    2    4    4    0    0  0.65339000654E+03 -0.26448174635E+03  0.53681818904E+03  0.89066631199E+03  0.90794363373E+02 0.  0.
         23    2    4    4    0    0  0.51708052091E+03  0.54129410134E+03  0.20929789494E+03  0.78265005628E+03  0.91454538022E+02 0.  0.
         13    1    3    3    0    0 -0.79783012113E+03 -0.17659502811E+03  0.41157842532E+02  0.81817643216E+03  0.00000000000E+00 0. -1.
        -13    1    3    3    0    0 -0.37264040632E+03 -0.10021732688E+03 -0.41518022209E+02  0.38810840135E+03  0.00000000000E+00 0.  1.
          2    1    6    6  502    0  0.47830800191E+03  0.51724801120E+03  0.17596179823E+03  0.72614502974E+03  0.00000000000E+00 0.  1.
          2    1    5    5  503    0  0.12736200695E+03 -0.67609403225E+02  0.15388461409E+03  0.21088524527E+03  0.00000000000E+00 0. -1.
         -2    1    5    5    0  503  0.52602799959E+03 -0.19687234312E+03  0.38293357495E+03  0.67978106671E+03  0.00000000000E+00 0.  1.
         -2    1    6    6    0  502  0.38772518998E+02  0.24046090135E+02  0.33336096709E+02  0.56505026538E+02  0.00000000000E+00 0. -1.
<mgrwt>
<rscale>  0 0.27813578E+04</rscale>
<asrwt>0</asrwt>
<pdfrwt beam="1">  1        2 0.27887362E+00 0.27813578E+04</pdfrwt>
<pdfrwt beam="2">  1       -2 0.16414195E+00 0.27813578E+04</pdfrwt>
<totfact> 0.17380079E+00</totfact>
</mgrwt>
</event>
<event>
12    1  0.5037222E-008  0.1398144E+04  0.7818608E-02  0.8955163E-01
         -1   -1    0    0    0  501 -0.00000000000E+00  0.00000000000E+00  0.55536370466E+03  0.55536370466E+03  0.00000000000E+00 0.  1.
          1   -1    0    0  501    0  0.00000000000E+00 -0.00000000000E+00 -0.87996721201E+03  0.87996721201E+03  0.00000000000E+00 0. -1.
         23    2    1    2    0    0  0.32238883723E+03 -0.54492783711E+02 -0.33965350570E+03  0.48025251575E+03  0.91509284258E+02 0.  0.
        254    2    1    2    0    0 -0.32238883723E+03  0.54492783711E+02  0.15049998354E+02  0.95507840092E+03  0.89724256676E+03 0.  0.
         23    2    4    4    0    0 -0.17288574279E+02 -0.37387299470E+03  0.13480927330E+03  0.40785793831E+03  0.89970254555E+02 0.  0.
         23    2    4    4    0    0 -0.30510026295E+03  0.42836577841E+03 -0.11975927495E+03  0.54722046261E+03  0.92328436552E+02 0.  0.
         11    1    3    3    0    0  0.11710511468E+03 -0.33547974256E+02 -0.18861638212E+03  0.22453332507E+03  0.00000000000E+00 0. -1.
        -11    1    3    3    0    0  0.20528372254E+03 -0.20944809455E+02 -0.15103712358E+03  0.25571919068E+03  0.00000000000E+00 0.  1.
          1    1    5    5  502    0 -0.11124034297E+02 -0.17367682640E+03  0.15493173608E+02  0.17472098499E+03  0.00000000000E+00 0. -1.
          3    1    6    6  503    0 -0.80356448953E+02  0.15244804867E+03 -0.18826040900E+01  0.17234010163E+03  0.00000000000E+00 0. -1.
         -1    1    5    5    0  502 -0.61645399816E+01 -0.20019616830E+03  0.11931609970E+03  0.23313695332E+03  0.00000000000E+00 0.  1.
         -3    1    6    6    0  503 -0.22474381400E+03  0.27591772974E+03 -0.11787667086E+03  0.37488036098E+03  0.00000000000E+00 0.  1.
<mgrwt>
<rscale>  0 0.13981443E+04</rscale>
<asrwt>0</asrwt>
<pdfrwt beam="1">  1        1 0.13537957E+00 0.13981443E+04</pdfrwt>
<pdfrwt beam="2">  1       -1 0.85440570E-01 0.13981443E+04</pdfrwt>
<totfact> 0.24965016E+01</totfact>
</mgrwt>
</event>
<event>
12    1  0.4672461E-008  0.1331293E+04  0.7818608E-02  0.9005111E-01
         -2   -1    0    0    0  501 -0.00000000000E+00  0.00000000000E+00  0.35261239753E+03  0.35261239753E+03  0.00000000000E+00 0.  1.
          2   -1    0    0  501    0  0.00000000000E+00 -0.00000000000E+00 -0.12565779966E+04  0.12565779966E+04  0.00000000000E+00 0. -1.
         23    2    1    2    0    0  0.61284766179E+02  0.24037634305E+03  0.57005338737E+02  0.27044988178E+03  0.91416196869E+02 0.  0.
        254    2    1    2    0    0 -0.61284766179E+02 -0.24037634305E+03 -0.96097093780E+03  0.13387405123E+04  0.89845668076E+03 0.  0.
         23    2    4    4    0    0 -0.23717283311E+03 -0.45978954861E+01 -0.99412074367E+03  0.10254581649E+04  0.83763366001E+02 0.  0.
         23    2    4    4    0    0  0.17588806693E+03 -0.23577844756E+03  0.33149805865E+02  0.31328234747E+03  0.10256135328E+03 0.  0.
         11    1    3    3    0    0  0.14116268374E+02  0.16117224225E+02 -0.19379060358E+02  0.28889131691E+02  0.00000000000E+00 0. -1.
        -11    1    3    3    0    0  0.47168497806E+02  0.22425911882E+03  0.76384399095E+02  0.24156075009E+03  0.00000000000E+00 0.  1.
          4    1    5    5  502    0 -0.11111537479E+03  0.34380863536E+02 -0.38380481442E+03  0.40104214973E+03  0.00000000000E+00 0. -1.
          4    1    6    6  503    0 -0.87559455398E+01 -0.11590701074E+02  0.17050935171E+02  0.22399672405E+02  0.00000000000E+00 0. -1.
         -4    1    5    5    0  502 -0.12605745831E+03 -0.38978759022E+02 -0.61031592925E+03  0.62441601513E+03  0.00000000000E+00 0.  1.
         -4    1    6    6    0  503  0.18464401247E+03 -0.22418774649E+03  0.16098870694E+02  0.29088267507E+03  0.00000000000E+00 0.  1.
<mgrwt>
<rscale>  0 0.13312926E+04</rscale>
<asrwt>0</asrwt>
<pdfrwt beam="1">  1        2 0.19331970E+00 0.13312926E+04</pdfrwt>
<pdfrwt beam="2">  1       -2 0.54248060E-01 0.13312926E+04</pdfrwt>
<totfact> 0.54844545E+01</totfact>
</mgrwt>
</event>
<event>
12    1  0.4672461E-008  0.2203396E+04  0.7818608E-02  0.8517016E-01
          2   -1    0    0  501    0  0.00000000000E+00  0.00000000000E+00  0.18867137291E+04  0.18867137291E+04  0.00000000000E+00 0. -1.
         -2   -1    0    0    0  501 -0.00000000000E+00 -0.00000000000E+00 -0.64330797091E+03  0.64330797091E+03  0.00000000000E+00 0.  1.
         23    2    1    2    0    0 -0.78711626428E+02 -0.85403059795E+03  0.14941389485E+03  0.87525123620E+03  0.90423625929E+02 0.  0.
        254    2    1    2    0    0  0.78711626428E+02  0.85403059795E+03  0.10939918633E+04  0.16547704638E+04  0.89771003584E+03 0.  0.
         23    2    4    4    0    0  0.11998621208E+03 -0.15480126091E+03  0.29155358424E+03  0.36194564790E+03  0.87413031518E+02 0.  0.
         23    2    4    4    0    0 -0.41274585655E+02  0.10088318589E+04  0.80243827907E+03  0.12928248159E+04  0.89685572858E+02 0.  0.
         11    1    3    3    0    0 -0.59630613493E+02 -0.25485454608E+03  0.24377420741E+02  0.26287051635E+03  0.00000000000E+00 0. -1.
        -11    1    3    3    0    0 -0.19081012936E+02 -0.59917605187E+03  0.12503647411E+03  0.61238071985E+03  0.00000000000E+00 0.  1.
          2    1    5    5  502    0  0.52798963167E+02 -0.85001228918E+01  0.74129004508E+02  0.91406191858E+02  0.00000000000E+00 0. -1.
          1    1    6    6  503    0 -0.54507021045E+02  0.32385064551E+03  0.26998199821E+03  0.42513590215E+03  0.00000000000E+00 0. -1.
         -2    1    5    5    0  502  0.67187248916E+02 -0.14630113801E+03  0.21742457974E+03  0.27053945604E+03  0.00000000000E+00 0.  1.
         -1    1    6    6    0  503  0.13232435390E+02  0.68498121335E+03  0.53245628086E+03  0.86768891373E+03  0.00000000000E+00 0.  1.
<mgrwt>
<rscale>  0 0.22033955E+04</rscale>
<asrwt>0</asrwt>
<pdfrwt beam="1">  1        2 0.29026365E+00 0.22033955E+04</pdfrwt>
<pdfrwt beam="2">  1       -2 0.98970457E-01 0.22033955E+04</pdfrwt>
<totfact> 0.59740290E+00</totfact>
</mgrwt>
</event>
<event>
12    1  0.4672461E-008  0.1341244E+04  0.7818608E-02  0.8997483E-01
          2   -1    0    0  501    0  0.00000000000E+00  0.00000000000E+00  0.16564133189E+04  0.16564133189E+04  0.00000000000E+00 0. -1.
         -2   -1    0    0    0  501 -0.00000000000E+00 -0.00000000000E+00 -0.27151059302E+03  0.27151059302E+03  0.00000000000E+00 0.  1.
         23    2    1    2    0    0 -0.19531612245E+03 -0.31465963779E+03  0.42886445456E+03  0.57387942231E+03  0.90850402416E+02 0.  0.
        254    2    1    2    0    0  0.19531612245E+03  0.31465963779E+03  0.95603827136E+03  0.13540444897E+04  0.88445928584E+03 0.  0.
         23    2    4    4    0    0 -0.29791198555E+03  0.32538953550E+03  0.37263516854E+03  0.58465423077E+03  0.91289099979E+02 0.  0.
         23    2    4    4    0    0  0.49322810800E+03 -0.10729897710E+02  0.58340310282E+03  0.76939025889E+03  0.90626115789E+02 0.  0.
         11    1    3    3    0    0 -0.13466826867E+03 -0.18302623421E+03  0.32065966190E+03  0.39300987744E+03  0.00000000000E+00 0. -1.
        -11    1    3    3    0    0 -0.60647853784E+02 -0.13163340358E+03  0.10820479266E+03  0.18086954487E+03  0.00000000000E+00 0.  1.
          1    1    5    5  502    0 -0.68382829991E+02  0.26952414765E+02  0.50789760845E+02  0.89343404378E+02  0.00000000000E+00 0. -1.
          1    1    6    6  503    0  0.23249038005E+03  0.39642794273E+02  0.26373103106E+03  0.35380416151E+03  0.00000000000E+00 0. -1.
         -1    1    5    5    0  502 -0.22952915556E+03  0.29843712074E+03  0.32184540769E+03  0.49531082639E+03  0.00000000000E+00 0.  1.
         -1    1    6    6    0  503  0.26073772795E+03 -0.50372691982E+02  0.31967207176E+03  0.41558609738E+03  0.00000000000E+00 0.  1.
<mgrwt>
<rscale>  0 0.13412438E+04</rscale>
<asrwt>0</asrwt>
<pdfrwt beam="1">  1        2 0.25483281E+00 0.13412438E+04</pdfrwt>
<pdfrwt beam="2">  1       -2 0.41770861E-01 0.13412438E+04</pdfrwt>
<totfact> 0.55038585E+01</totfact>
</mgrwt>
</event>
<event>
12    1  0.4672461E-008  0.2516432E+04  0.7818608E-02  0.8397155E-01
         -2   -1    0    0    0  501 -0.00000000000E+00  0.00000000000E+00  0.72731308594E+03  0.72731308594E+03  0.00000000000E+00 0.  1.
          2   -1    0    0  501    0  0.00000000000E+00 -0.00000000000E+00 -0.21766522868E+04  0.21766522868E+04  0.00000000000E+00 0. -1.
         23    2    1    2    0    0  0.30165075336E+03 -0.85596776812E+03  0.67181370551E+02  0.91455457664E+03  0.90679325246E+02 0.  0.
        254    2    1    2    0    0 -0.30165075336E+03  0.85596776812E+03 -0.15165205714E+04  0.19894107960E+04  0.91337105001E+03 0.  0.
         23    2    4    4    0    0 -0.56826740823E+03  0.27108347557E+03 -0.69506988112E+03  0.94226522886E+03  0.91255267810E+02 0.  0.
         23    2    4    4    0    0  0.26661665487E+03  0.58488429256E+03 -0.82145069025E+03  0.10471455672E+04  0.92512302082E+02 0.  0.
         13    1    3    3    0    0  0.16635513073E+03 -0.48392006523E+03  0.82756139201E+02  0.51836400109E+03  0.00000000000E+00 0.  1.
        -13    1    3    3    0    0  0.13529562263E+03 -0.37204770290E+03 -0.15574768650E+02  0.39619057555E+03  0.00000000000E+00 0. -1.
          1    1    6    6  502    0  0.25396396062E+03  0.58222380405E+03 -0.81290349940E+03  0.10316464271E+04  0.00000000000E+00 0. -1.
          1    1    5    5  503    0 -0.49579331715E+03  0.23987940942E+03 -0.64776234012E+03  0.85026419051E+03  0.00000000000E+00 0. -1.
         -1    1    5    5    0  503 -0.72474091079E+02  0.31204066150E+02 -0.47307541005E+02  0.92001038353E+02  0.00000000000E+00 0.  1.
         -1    1    6    6    0  502  0.12652694246E+02  0.26604885096E+01 -0.85471908484E+01  0.15499140047E+02  0.00000000000E+00 0.  1.
<mgrwt>
<rscale>  0 0.25164322E+04</rscale>
<asrwt>0</asrwt>
<pdfrwt beam="1">  1        2 0.33486958E+00 0.25164322E+04</pdfrwt>
<pdfrwt beam="2">  1       -2 0.11189432E+00 0.25164322E+04</pdfrwt>
<totfact> 0.29878106E+00</totfact>
</mgrwt>
</event>
<event>
12    1  0.4672461E-008  0.1491437E+04  0.7818608E-02  0.8890167E-01
         -1   -1    0    0    0  501 -0.00000000000E+00  0.00000000000E+00  0.28989083464E+03  0.28989083464E+03  0.00000000000E+00 0.  1.
          1   -1    0    0  501    0  0.00000000000E+00 -0.00000000000E+00 -0.19182944265E+04  0.19182944265E+04  0.00000000000E+00 0. -1.
         23    2    1    2    0    0  0.71414713268E+01 -0.44239620776E+03 -0.52049585979E+03  0.68933005188E+03  0.92166019281E+02 0.  0.
        254    2    1    2    0    0 -0.71414713268E+01  0.44239620776E+03 -0.11079077321E+04  0.15188552093E+04  0.94005116811E+03 0.  0.
         23    2    4    4    0    0  0.12624115565E+03  0.65543430493E+03 -0.45187906321E+03  0.81059769251E+03  0.85691153949E+02 0.  0.
         23    2    4    4    0    0 -0.13338262697E+03 -0.21303809718E+03 -0.65602866887E+03  0.70825751676E+03  0.89882921888E+02 0.  0.
         13    1    3    3    0    0  0.14012587684E+02 -0.28348106633E+03 -0.39665025979E+03  0.48773896315E+03  0.00000000000E+00 0. -1.
        -13    1    3    3    0    0 -0.68711163569E+01 -0.15891514143E+03 -0.12384560000E+03  0.20159108873E+03  0.00000000000E+00 0.  1.
          4    1    5    5  502    0  0.97518240339E+02  0.56255998593E+03 -0.34955627112E+03  0.66945734117E+03  0.00000000000E+00 0. -1.
          3    1    6    6  503    0 -0.12510852984E+03 -0.21519377532E+03 -0.65356042371E+03  0.69935808611E+03  0.00000000000E+00 0. -1.
         -4    1    5    5    0  502  0.28722915308E+02  0.92874319009E+02 -0.10232279209E+03  0.14114035134E+03  0.00000000000E+00 0.  1.
         -3    1    6    6    0  503 -0.82740971378E+01  0.21556781425E+01 -0.24682451578E+01  0.88994306480E+01  0.00000000000E+00 0.  1.
<mgrwt>
<rscale>  0 0.14914369E+04</rscale>
<asrwt>0</asrwt>
<pdfrwt beam="1">  1        1 0.29512222E+00 0.14914369E+04</pdfrwt>
<pdfrwt beam="2">  1       -1 0.44598591E-01 0.14914369E+04</pdfrwt>
<totfact> 0.16330215E+01</totfact>
</mgrwt>
</event>
<event>
12    1  0.4672461E-008  0.2376024E+04  0.7818608E-02  0.8448535E-01
         -1   -1    0    0    0  501 -0.00000000000E+00  0.00000000000E+00  0.54873428630E+03  0.54873428630E+03  0.00000000000E+00 0.  1.
          1   -1    0    0  501    0  0.00000000000E+00 -0.00000000000E+00 -0.25720510266E+04  0.25720510266E+04  0.00000000000E+00 0. -1.
         23    2    1    2    0    0  0.32333855514E+03 -0.69227384301E+03  0.54730646028E+01  0.77231161944E+03  0.11244726826E+03 0.  0.
        254    2    1    2    0    0 -0.32333855514E+03  0.69227384301E+03 -0.20287898049E+04  0.23484736934E+04  0.90307791548E+03 0.  0.
         23    2    4    4    0    0  0.30106906911E+02 -0.11655507707E+03 -0.19037312547E+02  0.15152416360E+03  0.90031333720E+02 0.  0.
         23    2    4    4    0    0 -0.35344546205E+03  0.80882892008E+03 -0.20097524923E+04  0.21969495298E+04  0.91401529518E+02 0.  0.
         13    1    3    3    0    0  0.31870454585E+03 -0.61983100594E+03  0.24048271537E+02  0.69738180564E+03  0.00000000000E+00 0.  1.
        -13    1    3    3    0    0  0.46340092935E+01 -0.72442837067E+02 -0.18575206935E+02  0.74929813807E+02  0.00000000000E+00 0. -1.
          2    1    5    5  502    0  0.12203139931E+02  0.12532065142E+02 -0.11601044218E+02  0.20989366542E+02  0.00000000000E+00 0. -1.
          3    1    6    6  503    0 -0.37776991391E+02  0.44400799776E+02 -0.98986602260E+02  0.11487767201E+03  0.00000000000E+00 0. -1.
         -2    1    5    5    0  502  0.17903766980E+02 -0.12908714221E+03 -0.74362683290E+01  0.13053479706E+03  0.00000000000E+00 0.  1.
         -3    1    6    6    0  503 -0.31566847066E+03  0.76442812030E+03 -0.19107658901E+04  0.20820718578E+04  0.00000000000E+00 0.  1.
<mgrwt>
<rscale>  0 0.23760241E+04</rscale>
<asrwt>0</asrwt>
<pdfrwt beam="1">  1        1 0.39570016E+00 0.23760241E+04</pdfrwt>
<pdfrwt beam="2">  1       -1 0.84420659E-01 0.23760241E+04</pdfrwt>
<totfact> 0.15057723E+00</totfact>
</mgrwt>
</event>
<event>
12    1  0.4672461E-008  0.2869043E+04  0.7818608E-02  0.8282148E-01
          2   -1    0    0  501    0  0.00000000000E+00  0.00000000000E+00  0.32028519215E+04  0.32028519215E+04  0.00000000000E+00 0. -1.
         -2   -1    0    0    0  501 -0.00000000000E+00 -0.00000000000E+00 -0.64250615512E+03  0.64250615512E+03  0.00000000000E+00 0.  1.
         23    2    1    2    0    0  0.38611465506E+03 -0.53907920712E+03 -0.32911606143E+03  0.74572903059E+03  0.90019368840E+02 0.  0.
        254    2    1    2    0    0 -0.38611465506E+03  0.53907920712E+03  0.28894618278E+04  0.30996290460E+04  0.90499704430E+03 0.  0.
         23    2    4    4    0    0  0.39214378939E+02  0.29660297430E+03  0.21559519361E+03  0.37976571309E+03  0.90717238997E+02 0.  0.
         23    2    4    4    0    0 -0.42532903400E+03  0.24247623282E+03  0.26738666342E+04  0.27198633329E+04  0.91620203788E+02 0.  0.
         13    1    3    3    0    0  0.32672622850E+03 -0.40322172065E+03 -0.27899152622E+03  0.58921477926E+03  0.00000000000E+00 0.  1.
        -13    1    3    3    0    0  0.59388426561E+02 -0.13585748646E+03 -0.50124535215E+02  0.15651425133E+03  0.00000000000E+00 0. -1.
          2    1    6    6  502    0 -0.39255408789E+03  0.21604454362E+03  0.25491502510E+04  0.25882312414E+04  0.00000000000E+00 0. -1.
          2    1    5    5  503    0 -0.28015389983E+02  0.84984119337E+02  0.76738084181E+02  0.11788085586E+03  0.00000000000E+00 0. -1.
         -2    1    5    5    0  503  0.67229768922E+02  0.21161885496E+03  0.13885710943E+03  0.26188485723E+03  0.00000000000E+00 0.  1.
         -2    1    6    6    0  502 -0.32774946109E+02  0.26431689201E+02  0.12471638316E+03  0.13163209151E+03  0.00000000000E+00 0.  1.
<mgrwt>
<rscale>  0 0.28690431E+04</rscale>
<asrwt>0</asrwt>
<pdfrwt beam="1">  1        2 0.49274644E+00 0.28690431E+04</pdfrwt>
<pdfrwt beam="2">  1       -2 0.98847103E-01 0.28690431E+04</pdfrwt>
<totfact> 0.94802905E-01</totfact>
</mgrwt>
</event>
<event>
12    1  0.4672461E-008  0.1279404E+04  0.7818608E-02  0.9046060E-01
         -2   -1    0    0    0  501 -0.00000000000E+00  0.00000000000E+00  0.11194207789E+03  0.11194207789E+03  0.00000000000E+00 0.  1.
          2   -1    0    0  501    0  0.00000000000E+00 -0.00000000000E+00 -0.36556265076E+04  0.36556265076E+04  0.00000000000E+00 0. -1.
         23    2    1    2    0    0 -0.11767868259E+03  0.10502344835E+02 -0.51284189420E+02  0.15881438303E+03  0.92915922165E+02 0.  0.
        254    2    1    2    0    0  0.11767868259E+03 -0.10502344835E+02 -0.34924002403E+04  0.36087542025E+04  0.90127070506E+03 0.  0.
         23    2    4    4    0    0 -0.33601332080E+03  0.39739925893E+02 -0.75740394118E+03  0.83472080921E+03  0.92811021632E+02 0.  0.
         23    2    4    4    0    0  0.45369200339E+03 -0.50242270728E+02 -0.27349962992E+04  0.27740333933E+04  0.81827813320E+02 0.  0.
         13    1    3    3    0    0 -0.13281798883E+02  0.20795648836E+02  0.20184902582E+02  0.31879389649E+02  0.00000000000E+00 0.  1.
        -13    1    3    3    0    0 -0.10439688370E+03 -0.10293304001E+02 -0.71469092002E+02  0.12693499339E+03  0.00000000000E+00 0. -1.
          4    1    5    5  502    0 -0.85552504464E+02  0.20217360763E+01 -0.29889400118E+03  0.31090342935E+03  0.00000000000E+00 0.  1.
          4    1    6    6  503    0  0.41016971160E+03 -0.20868298495E+02 -0.23802569579E+04  0.24154291263E+04  0.00000000000E+00 0. -1.
         -4    1    5    5    0  502 -0.25046081634E+03  0.37718189817E+02 -0.45850994000E+03  0.52381737986E+03  0.00000000000E+00 0. -1.
         -4    1    6    6    0  503  0.43522291792E+02 -0.29373972233E+02 -0.35473934121E+03  0.35860426703E+03  0.00000000000E+00 0.  1.
<mgrwt>
<rscale>  0 0.12794037E+04</rscale>
<asrwt>0</asrwt>
<pdfrwt beam="1">  1        2 0.56240413E+00 0.12794037E+04</pdfrwt>
<pdfrwt beam="2">  1       -2 0.17221857E-01 0.12794037E+04</pdfrwt>
<totfact> 0.17568918E+01</totfact>
</mgrwt>
</event>
<event>
12    1  0.4672461E-008  0.1198919E+04  0.7818608E-02  0.9113803E-01
          1   -1    0    0  501    0  0.00000000000E+00  0.00000000000E+00  0.16630679606E+04  0.16630679606E+04  0.00000000000E+00 0. -1.
         -1   -1    0    0    0  501 -0.00000000000E+00 -0.00000000000E+00 -0.21607765161E+03  0.21607765161E+03  0.00000000000E+00 0.  1.
         23    2    1    2    0    0 -0.18972157827E+03  0.59094614913E+02  0.86266022524E+02  0.23318064799E+03  0.86284049409E+02 0.  0.
        254    2    1    2    0    0  0.18972157827E+03 -0.59094614913E+02  0.13607242865E+04  0.16459649643E+04  0.90451292357E+03 0.  0.
         23    2    4    4    0    0 -0.66112680127E+02 -0.21582276689E+03  0.13037871155E+04  0.13265182231E+04  0.94018086108E+02 0.  0.
         23    2    4    4    0    0  0.25583425839E+03  0.15672815197E+03  0.56937171036E+02  0.31944674118E+03  0.93752320599E+02 0.  0.
         11    1    3    3    0    0 -0.13574086330E+03  0.81346145735E+02  0.62822072555E+02  0.17026270935E+03  0.00000000000E+00 0.  1.
        -11    1    3    3    0    0 -0.53980714961E+02 -0.22251530822E+02  0.23443949969E+02  0.62917938632E+02  0.00000000000E+00 0. -1.
          1    1    5    5  502    0 -0.20368923097E+02 -0.46317570506E+01  0.24598763618E+03  0.24687297007E+03  0.00000000000E+00 0. -1.
          3    1    6    6  503    0  0.10384389581E+03  0.29942778065E+02 -0.14454030184E+02  0.10903689121E+03  0.00000000000E+00 0. -1.
         -1    1    5    5    0  502 -0.45743757030E+02 -0.21119100984E+03  0.10577994793E+04  0.10796452530E+04  0.00000000000E+00 0.  1.
         -3    1    6    6    0  503  0.15199036258E+03  0.12678537391E+03  0.71391201220E+02  0.21040984997E+03  0.00000000000E+00 0.  1.
<mgrwt>
<rscale>  0 0.11989192E+04</rscale>
<asrwt>0</asrwt>
<pdfrwt beam="1">  1        1 0.25585660E+00 0.11989192E+04</pdfrwt>
<pdfrwt beam="2">  1       -1 0.33242717E-01 0.11989192E+04</pdfrwt>
<totfact> 0.42550210E+01</totfact>
</mgrwt>
</event>
<event>
12    1  0.4672461E-008  0.1295122E+04  0.7818608E-02  0.9033442E-01
         -2   -1    0    0    0  501 -0.00000000000E+00  0.00000000000E+00  0.18041876823E+03  0.18041876823E+03  0.00000000000E+00 0.  1.
          2   -1    0    0  501    0  0.00000000000E+00 -0.00000000000E+00 -0.23242338437E+04  0.23242338437E+04  0.00000000000E+00 0. -1.
         23    2    1    2    0    0  0.15582603844E+03 -0.26675284314E+03 -0.78382433772E+03  0.84725951207E+03  0.89606109263E+02 0.  0.
        254    2    1    2    0    0 -0.15582603844E+03  0.26675284314E+03 -0.13599907377E+04  0.16573930998E+04  0.89551004859E+03 0.  0.
         23    2    4    4    0    0 -0.17039890014E+03 -0.29601554722E+03 -0.35016025341E+03  0.49771902951E+03  0.91929537698E+02 0.  0.
         23    2    4    4    0    0  0.14572861702E+02  0.56276839035E+03 -0.10098304843E+04  0.11596740703E+04  0.90364334079E+02 0.  0.
         11    1    3    3    0    0  0.15870609267E+03 -0.26946300953E+03 -0.78310672033E+03  0.84324022246E+03  0.00000000000E+00 0. -1.
        -11    1    3    3    0    0 -0.28800542312E+01  0.27101663926E+01 -0.71761739271E+00  0.40192896105E+01  0.00000000000E+00 0.  1.
          2    1    5    5  502    0 -0.33405334250E+02 -0.12213006301E+03 -0.17191614133E+03  0.21351072174E+03  0.00000000000E+00 0. -1.
          4    1    6    6  503    0  0.38318376775E+00  0.55275731766E+03 -0.97663513627E+03  0.11222107594E+04  0.00000000000E+00 0. -1.
         -2    1    5    5    0  502 -0.13699356589E+03 -0.17388548421E+03 -0.17824411208E+03  0.28420830777E+03  0.00000000000E+00 0.  1.
         -4    1    6    6    0  503  0.14189677934E+02  0.10011072695E+02 -0.33195348016E+02  0.37463310936E+02  0.00000000000E+00 0.  1.
<mgrwt>
<rscale>  0 0.12951222E+04</rscale>
<asrwt>0</asrwt>
<pdfrwt beam="1">  1        2 0.35757442E+00 0.12951222E+04</pdfrwt>
<pdfrwt beam="2">  1       -2 0.27756735E-01 0.12951222E+04</pdfrwt>
<totfact> 0.51176366E+01</totfact>
</mgrwt>
</event>
<event>
12    1  0.4672461E-008  0.1844324E+04  0.7818608E-02  0.8683077E-01
         -1   -1    0    0    0  501 -0.00000000000E+00  0.00000000000E+00  0.48517112400E+03  0.48517112400E+03  0.00000000000E+00 0.  1.
          1   -1    0    0  501    0  0.00000000000E+00 -0.00000000000E+00 -0.17527488928E+04  0.17527488928E+04  0.00000000000E+00 0. -1.
         23    2    1    2    0    0 -0.22058045934E+03 -0.37033388020E+03 -0.11233223626E+04  0.12067325844E+04  0.92452572422E+02 0.  0.
        254    2    1    2    0    0  0.22058045934E+03  0.37033388020E+03 -0.14425540624E+03  0.10311874324E+04  0.92559979293E+03 0.  0.
         23    2    4    4    0    0 -0.23570495569E+02 -0.31035601022E+02  0.33810696763E+03  0.35127123565E+03  0.86927456195E+02 0.  0.
         23    2    4    4    0    0  0.24415095490E+03  0.40136948122E+03 -0.48236237387E+03  0.67991619676E+03  0.94368562837E+02 0.  0.
         11    1    3    3    0    0 -0.10696762433E+02 -0.55744260786E+02 -0.90245702758E+02  0.10661205468E+03  0.00000000000E+00 0. -1.
        -11    1    3    3    0    0 -0.20988369690E+03 -0.31458961941E+03 -0.10330766598E+04  0.11001205297E+04  0.00000000000E+00 0.  1.
          2    1    5    5  502    0  0.18734265331E+02  0.20636333424E+02  0.82319071343E+02  0.86909495807E+02  0.00000000000E+00 0. -1.
          3    1    6    6  503    0  0.10752167617E+03  0.25971121817E+03 -0.30792437413E+03  0.41692714936E+03  0.00000000000E+00 0. -1.
         -2    1    5    5    0  502 -0.42304760900E+02 -0.51671934446E+02  0.25578789629E+03  0.26436173984E+03  0.00000000000E+00 0.  1.
         -3    1    6    6    0  503  0.13662927873E+03  0.14165826305E+03 -0.17443799974E+03  0.26298904740E+03  0.00000000000E+00 0.  1.
<mgrwt>
<rscale>  0 0.18443244E+04</rscale>
<asrwt>0</asrwt>
<pdfrwt beam="1">  1        1 0.26965368E+00 0.18443244E+04</pdfrwt>
<pdfrwt beam="2">  1       -1 0.74641711E-01 0.18443244E+04</pdfrwt>
<totfact> 0.74472250E+00</totfact>
</mgrwt>
</event>
<event>
12    1  0.4672461E-008  0.1888091E+04  0.7818608E-02  0.8660807E-01
          2   -1    0    0  501    0  0.00000000000E+00  0.00000000000E+00  0.31976477225E+04  0.31976477225E+04  0.00000000000E+00 0. -1.
         -2   -1    0    0    0  501 -0.00000000000E+00 -0.00000000000E+00 -0.27871157959E+03  0.27871157959E+03  0.00000000000E+00 0.  1.
         23    2    1    2    0    0 -0.59707481779E+03  0.19240105172E+03  0.17981556201E+04  0.19066326762E+04  0.91476909662E+02 0.  0.
        254    2    1    2    0    0  0.59707481779E+03 -0.19240105172E+03  0.11207805228E+04  0.15697266259E+04  0.90242794562E+03 0.  0.
         23    2    4    4    0    0  0.96034922867E+02 -0.33061677401E+03  0.95111512567E+03  0.10155377441E+04  0.90370181529E+02 0.  0.
         23    2    4    4    0    0  0.50103989493E+03  0.13821572229E+03  0.16966539709E+03  0.55418888179E+03  0.90522966901E+02 0.  0.
         13    1    3    3    0    0 -0.33415495194E+03  0.76199735204E+02  0.10802507425E+04  0.11333170775E+04  0.00000000000E+00 0.  1.
        -13    1    3    3    0    0 -0.26291986585E+03  0.11620131652E+03  0.71790487765E+03  0.77331559869E+03  0.00000000000E+00 0. -1.
          1    1    6    6  502    0  0.19692060098E+03  0.36740696615E+02  0.23009865808E+02  0.20163594869E+03  0.00000000000E+00 0. -1.
          1    1    5    5  503    0  0.48758989868E+02 -0.49687176884E+02  0.22559516806E+03  0.23609200429E+03  0.00000000000E+00 0. -1.
         -1    1    5    5    0  503  0.47275932999E+02 -0.28092959713E+03  0.72551995761E+03  0.77944573979E+03  0.00000000000E+00 0.  1.
         -1    1    6    6    0  502  0.30411929395E+03  0.10147502567E+03  0.14665553128E+03  0.35255293311E+03  0.00000000000E+00 0.  1.
<mgrwt>
<rscale>  0 0.18880905E+04</rscale>
<asrwt>0</asrwt>
<pdfrwt beam="1">  1        2 0.49194578E+00 0.18880905E+04</pdfrwt>
<pdfrwt beam="2">  1       -2 0.42878707E-01 0.18880905E+04</pdfrwt>
<totfact> 0.63189629E+00</totfact>
</mgrwt>
</event>
<event>
12    1  0.4672461E-008  0.2228729E+04  0.7818608E-02  0.8506565E-01
          2   -1    0    0  501    0  0.00000000000E+00  0.00000000000E+00  0.14563943948E+04  0.14563943948E+04  0.00000000000E+00 0. -1.
         -2   -1    0    0    0  501 -0.00000000000E+00 -0.00000000000E+00 -0.85265953378E+03  0.85265953378E+03  0.00000000000E+00 0.  1.
         23    2    1    2    0    0 -0.16955749922E+03 -0.90095811097E+03  0.40296177094E+03  0.10060372210E+04  0.96215580649E+02 0.  0.
        254    2    1    2    0    0  0.16955749922E+03  0.90095811097E+03  0.20077309004E+03  0.13030167075E+04  0.90391782986E+03 0.  0.
         23    2    4    4    0    0 -0.33098980879E+03  0.54364583468E+03  0.22374654306E+03  0.68094990152E+03  0.92332040815E+02 0.  0.
         23    2    4    4    0    0  0.50054730801E+03  0.35731227629E+03 -0.22973453024E+02  0.62206680600E+03  0.90662347481E+02 0.  0.
         11    1    3    3    0    0 -0.32890340501E+02 -0.49695163697E+02  0.23440764442E+02  0.64037904641E+02  0.00000000000E+00 0. -1.
        -11    1    3    3    0    0 -0.13666715872E+03 -0.85126294727E+03  0.37952100650E+03  0.94199931637E+03  0.00000000000E+00 0.  1.
          4    1    5    5  502    0 -0.11255813972E+03  0.16090711650E+03  0.26537617555E+02  0.19815317334E+03  0.00000000000E+00 0. -1.
          1    1    6    6  503    0  0.26877735088E+03  0.24532365226E+03 -0.34357973616E+01  0.36391862196E+03  0.00000000000E+00 0. -1.
         -4    1    5    5    0  502 -0.21843166907E+03  0.38273871818E+03  0.19720892550E+03  0.48279672818E+03  0.00000000000E+00 0.  1.
         -1    1    6    6    0  503  0.23176995713E+03  0.11198862403E+03 -0.19537655662E+02  0.25814818405E+03  0.00000000000E+00 0.  1.
<mgrwt>
<rscale>  0 0.22287293E+04</rscale>
<asrwt>0</asrwt>
<pdfrwt beam="1">  1        2 0.22406068E+00 0.22287293E+04</pdfrwt>
<pdfrwt beam="2">  1       -2 0.13117839E+00 0.22287293E+04</pdfrwt>
<totfact> 0.52020750E+00</totfact>
</mgrwt>
</event>
<event>
12    1  0.4672461E-008  0.1347242E+04  0.7818608E-02  0.8992919E-01
          1   -1    0    0  501    0  0.00000000000E+00  0.00000000000E+00  0.33113101578E+04  0.33113101578E+04  0.00000000000E+00 0. -1.
         -1   -1    0    0    0  501 -0.00000000000E+00 -0.00000000000E+00 -0.13703492321E+03  0.13703492321E+03  0.00000000000E+00 0.  1.
         23    2    1    2    0    0  0.91827085904E+02  0.26652278212E+03  0.14852033665E+04  0.15144708453E+04  0.91248529781E+02 0.  0.
        254    2    1    2    0    0 -0.91827085904E+02 -0.26652278212E+03  0.16890718681E+04  0.19338742358E+04  0.89857619436E+03 0.  0.
         23    2    4    4    0    0 -0.38391896228E+03  0.50306115294E+00  0.13440453415E+04  0.14005803215E+04  0.88166513878E+02 0.  0.
         23    2    4    4    0    0  0.29209187638E+03 -0.26702584328E+03  0.34502652661E+03  0.53329391432E+03  0.93480638445E+02 0.  0.
         11    1    3    3    0    0 -0.95016374682E+01  0.22075128288E+02  0.25498047599E+03  0.25611059240E+03  0.00000000000E+00 0.  1.
        -11    1    3    3    0    0  0.10132872337E+03  0.24444765383E+03  0.12302228905E+04  0.12583602529E+04  0.00000000000E+00 0. -1.
          3    1    6    6  502    0  0.25768764361E+03 -0.26215874908E+03  0.33443763988E+03  0.49696948232E+03  0.00000000000E+00 0. -1.
          3    1    5    5  503    0 -0.20271917812E+03  0.92648100052E+01  0.55464273482E+03  0.59060093563E+03  0.00000000000E+00 0. -1.
         -3    1    5    5    0  503 -0.18119978416E+03 -0.87617488522E+01  0.78940260670E+03  0.80997938584E+03  0.00000000000E+00 0.  1.
         -3    1    6    6    0  502  0.34404232764E+02 -0.48670941998E+01  0.10588886729E+02  0.36324432001E+02  0.00000000000E+00 0.  1.
<mgrwt>
<rscale>  0 0.13472418E+04</rscale>
<asrwt>0</asrwt>
<pdfrwt beam="1">  1        1 0.50943227E+00 0.13472418E+04</pdfrwt>
<pdfrwt beam="2">  1       -1 0.21082298E-01 0.13472418E+04</pdfrwt>
<totfact> 0.65017622E+00</totfact>
</mgrwt>
</event>
<event>
12    1  0.4672461E-008  0.1633911E+04  0.7818608E-02  0.8799982E-01
          1   -1    0    0  501    0  0.00000000000E+00  0.00000000000E+00  0.18741579324E+04  0.18741579324E+04  0.00000000000E+00 0. -1.
         -1   -1    0    0    0  501 -0.00000000000E+00 -0.00000000000E+00 -0.35611520241E+03  0.35611520241E+03  0.00000000000E+00 0.  1.
         23    2    1    2    0    0  0.38257961568E+03  0.26789904645E+03  0.10640200601E+03  0.48773848290E+03  0.91817097528E+02 0.  0.
        254    2    1    2    0    0 -0.38257961568E+03 -0.26789904645E+03  0.14116407240E+04  0.17425346519E+04  0.90860355387E+03 0.  0.
         23    2    4    4    0    0 -0.20622538919E+03 -0.50233365384E+03  0.13060647694E+04  0.14173679354E+04  0.90877233283E+02 0.  0.
         23    2    4    4    0    0 -0.17635422648E+03  0.23443460739E+03  0.10557595459E+03  0.32516671651E+03  0.92340202492E+02 0.  0.
         13    1    3    3    0    0  0.19598202509E+03  0.14018925159E+03  0.10178235321E+03  0.26157528141E+03  0.00000000000E+00 0. -1.
        -13    1    3    3    0    0  0.18659759058E+03  0.12770979486E+03  0.46196528003E+01  0.22616320149E+03  0.00000000000E+00 0.  1.
          2    1    5    5  502    0 -0.53951037048E+02 -0.21454887386E+03  0.61120445163E+03  0.65000985790E+03  0.00000000000E+00 0. -1.
          4    1    6    6  503    0 -0.38373555511E+02  0.57059565801E+02  0.69133395306E+02  0.97507692817E+02  0.00000000000E+00 0.  1.
         -2    1    5    5    0  502 -0.15227435215E+03 -0.28778477998E+03  0.69486031780E+03  0.76735807754E+03  0.00000000000E+00 0.  1.
         -4    1    6    6    0  503 -0.13798067097E+03  0.17737504159E+03  0.36442559282E+02  0.22765902369E+03  0.00000000000E+00 0. -1.
<mgrwt>
<rscale>  0 0.16339108E+04</rscale>
<asrwt>0</asrwt>
<pdfrwt beam="1">  1        1 0.28833198E+00 0.16339108E+04</pdfrwt>
<pdfrwt beam="2">  1       -1 0.54786955E-01 0.16339108E+04</pdfrwt>
<totfact> 0.11687456E+01</totfact>
</mgrwt>
</event>
<event>
12    1  0.4672461E-008  0.1712792E+04  0.7818608E-02  0.8754102E-01
          2   -1    0    0  501    0  0.00000000000E+00  0.00000000000E+00  0.34209570455E+04  0.34209570455E+04  0.00000000000E+00 0.  1.
         -2   -1    0    0    0  501 -0.00000000000E+00 -0.00000000000E+00 -0.21438853157E+03  0.21438853157E+03  0.00000000000E+00 0. -1.
         23    2    1    2    0    0  0.32224135703E+03 -0.28503498919E+03  0.23077192872E+03  0.49653508470E+03  0.90592328676E+02 0.  0.
        254    2    1    2    0    0 -0.32224135703E+03  0.28503498919E+03  0.29757965852E+04  0.31388104923E+04  0.90093371186E+03 0.  0.
         23    2    4    4    0    0  0.31403592032E+02  0.50612418146E+03  0.21164893423E+04  0.21782911975E+04  0.90980943707E+02 0.  0.
         23    2    4    4    0    0 -0.35364494906E+03 -0.22108919227E+03  0.85930724286E+03  0.96051929488E+03  0.10120868172E+03 0.  0.
         11    1    3    3    0    0  0.23213341324E+03 -0.23023245074E+03  0.21131646472E+03  0.38929108798E+03  0.00000000000E+00 0.  1.
        -11    1    3    3    0    0  0.90107943789E+02 -0.54802538446E+02  0.19455463998E+02  0.10724399672E+03  0.00000000000E+00 0. -1.
          2    1    5    5  502    0  0.13807511847E+02  0.15711686974E+03  0.49285844206E+03  0.51748024315E+03  0.00000000000E+00 0. -1.
          3    1    6    6  503    0 -0.63243116814E+02  0.44042669556E+00  0.14692349656E+03  0.15995749323E+03  0.00000000000E+00 0. -1.
         -2    1    5    5    0  502  0.17596080185E+02  0.34900731172E+03  0.16236309003E+04  0.16608109543E+04  0.00000000000E+00 0.  1.
         -3    1    6    6    0  503 -0.29040183225E+03 -0.22152961897E+03  0.71238374631E+03  0.80056180165E+03  0.00000000000E+00 0.  1.
<mgrwt>
<rscale>  0 0.17127918E+04</rscale>
<asrwt>0</asrwt>
<pdfrwt beam="1">  1        2 0.52630104E+00 0.17127918E+04</pdfrwt>
<pdfrwt beam="2">  1       -2 0.32982854E-01 0.17127918E+04</pdfrwt>
<totfact> 0.75884076E+00</totfact>
</mgrwt>
</event>
<event>
12    1  0.4672461E-008  0.1137860E+04  0.7818608E-02  0.9169057E-01
          1   -1    0    0  501    0  0.00000000000E+00  0.00000000000E+00  0.15972598884E+04  0.15972598884E+04  0.00000000000E+00 0. -1.
         -1   -1    0    0    0  501 -0.00000000000E+00 -0.00000000000E+00 -0.20264790255E+03  0.20264790255E+03  0.00000000000E+00 0.  1.
         23    2    1    2    0    0 -0.15879627499E+03 -0.18275024687E+02  0.44776509516E+03  0.48410313501E+03  0.91170342803E+02 0.  0.
        254    2    1    2    0    0  0.15879627499E+03  0.18275024687E+02  0.94684689066E+03  0.13158046559E+04  0.89959581184E+03 0.  0.
         23    2    4    4    0    0 -0.20520188927E+03  0.32868731126E+03  0.26823214678E+03  0.48047187503E+03  0.93603280833E+02 0.  0.
         23    2    4    4    0    0  0.36399816427E+03 -0.31041228657E+03  0.67861474388E+03  0.83533278088E+03  0.91719316164E+02 0.  0.
         13    1    3    3    0    0 -0.10457913118E+03  0.98446911224E+01  0.37328854009E+03  0.38778608380E+03  0.00000000000E+00 0. -1.
        -13    1    3    3    0    0 -0.54217143810E+02 -0.28119715810E+02  0.74476555065E+02  0.96317051213E+02  0.00000000000E+00 0.  1.
          4    1    5    5  502    0 -0.14723885354E+03  0.29895439286E+03  0.21811755578E+03  0.39828165554E+03  0.00000000000E+00 0. -1.
          3    1    6    6  503    0  0.33543714286E+03 -0.26214242575E+03  0.55401122364E+03  0.69868817373E+03  0.00000000000E+00 0. -1.
         -4    1    5    5    0  502 -0.57963035739E+02  0.29732918403E+02  0.50114591000E+02  0.82190219491E+02  0.00000000000E+00 0.  1.
         -3    1    6    6    0  503  0.28561021405E+02 -0.48269860819E+02  0.12460352024E+03  0.13664460715E+03  0.00000000000E+00 0.  1.
<mgrwt>
<rscale>  0 0.11378600E+04</rscale>
<asrwt>0</asrwt>
<pdfrwt beam="1">  1        1 0.24573228E+00 0.11378600E+04</pdfrwt>
<pdfrwt beam="2">  1       -1 0.31176601E-01 0.11378600E+04</pdfrwt>
<totfact> 0.53119681E+01</totfact>
</mgrwt>
</event>
<event>
12    1  0.4672461E-008  0.1975908E+04  0.7818608E-02  0.8617968E-01
         -2   -1    0    0    0  501 -0.00000000000E+00  0.00000000000E+00  0.30671190404E+03  0.30671190404E+03  0.00000000000E+00 0.  1.
          2   -1    0    0  501    0  0.00000000000E+00 -0.00000000000E+00 -0.31823122732E+04  0.31823122732E+04  0.00000000000E+00 0. -1.
         23    2    1    2    0    0 -0.65115197932E+03 -0.10757822561E+01 -0.37742153528E+03  0.75804590933E+03  0.90479433489E+02 0.  0.
        254    2    1    2    0    0  0.65115197932E+03  0.10757822561E+01 -0.24981788339E+04  0.27309782679E+04  0.89069902674E+03 0.  0.
         23    2    4    4    0    0  0.77509918118E+03  0.12998152509E+03 -0.23613593444E+04  0.24904036777E+04  0.91752857909E+02 0.  0.
         23    2    4    4    0    0 -0.12394720186E+03 -0.12890574283E+03 -0.13681948952E+03  0.24057459025E+03  0.84716948587E+02 0.  0.
         13    1    3    3    0    0 -0.64610366694E+03  0.68776233987E+01 -0.36389943957E+03  0.74156594599E+03  0.00000000000E+00 0.  1.
        -13    1    3    3    0    0 -0.50483123823E+01 -0.79534056548E+01 -0.13522095707E+02  0.16479963341E+02  0.00000000000E+00 0. -1.
          2    1    5    5  502    0  0.30033071636E+03  0.23053821093E+02 -0.79329530491E+03  0.84855610224E+03  0.00000000000E+00 0. -1.
          3    1    6    6  503    0 -0.27113616143E+02 -0.36729879655E+02 -0.86348499139E+02  0.97674436489E+02  0.00000000000E+00 0. -1.
         -2    1    5    5    0  502  0.47476846482E+03  0.10692770399E+03 -0.15680640395E+04  0.16418475754E+04  0.00000000000E+00 0.  1.
         -3    1    6    6    0  503 -0.96833585719E+02 -0.92175863175E+02 -0.50470990382E+02  0.14290015376E+03  0.00000000000E+00 0.  1.
<mgrwt>
<rscale>  0 0.19759079E+04</rscale>
<asrwt>0</asrwt>
<pdfrwt beam="1">  1        2 0.48958649E+00 0.19759079E+04</pdfrwt>
<pdfrwt beam="2">  1       -2 0.47186448E-01 0.19759079E+04</pdfrwt>
<totfact> 0.52958244E+00</totfact>
</mgrwt>
</event>
<event>
12    1  0.4672461E-008  0.1885559E+04  0.7818608E-02  0.8662078E-01
          1   -1    0    0  501    0  0.00000000000E+00  0.00000000000E+00  0.19089981912E+04  0.19089981912E+04  0.00000000000E+00 0. -1.
         -1   -1    0    0    0  501 -0.00000000000E+00 -0.00000000000E+00 -0.46560181169E+03  0.46560181169E+03  0.00000000000E+00 0.  1.
         23    2    1    2    0    0  0.18323953371E+03  0.63360717219E+03  0.90593669624E+03  0.11248896438E+04  0.98084850080E+02 0.  0.
        254    2    1    2    0    0 -0.18323953371E+03 -0.63360717219E+03  0.53745968332E+03  0.12497103591E+04  0.91535692226E+03 0.  0.
         23    2    4    4    0    0 -0.44620599703E+03 -0.12898522306E+03  0.17852971928E+02  0.47355452374E+03  0.90543794884E+02 0.  0.
         23    2    4    4    0    0  0.26296646332E+03 -0.50462194913E+03  0.51960671139E+03  0.77615583539E+03  0.92908954967E+02 0.  0.
         13    1    3    3    0    0  0.18932417245E+03  0.54367528659E+03  0.80332222174E+03  0.98830817636E+03  0.00000000000E+00 0. -1.
        -13    1    3    3    0    0 -0.60846387409E+01  0.89931885600E+02  0.10261447450E+03  0.13658146746E+03  0.00000000000E+00 0.  1.
          2    1    5    5  502    0 -0.40572423750E+03 -0.88978979858E+02  0.59534554434E+01  0.41540926733E+03  0.00000000000E+00 0. -1.
          4    1    6    6  503    0  0.26669430882E+03 -0.46194225437E+03  0.47391960432E+03  0.71352385530E+03  0.00000000000E+00 0. -1.
         -2    1    5    5    0  502 -0.40481759526E+02 -0.40006243207E+02  0.11899516485E+02  0.58145256405E+02  0.00000000000E+00 0.  1.
         -4    1    6    6    0  503 -0.37278455021E+01 -0.42679694760E+02  0.45687107071E+02  0.62631980085E+02  0.00000000000E+00 0.  1.
<mgrwt>
<rscale>  0 0.18855588E+04</rscale>
<asrwt>0</asrwt>
<pdfrwt beam="1">  1        1 0.29369202E+00 0.18855588E+04</pdfrwt>
<pdfrwt beam="2">  1       -1 0.71631049E-01 0.18855588E+04</pdfrwt>
<totfact> 0.63314397E+00</totfact>
</mgrwt>
</event>
<event>
12    1  0.4672461E-008  0.1693617E+04  0.7818608E-02  0.8765013E-01
         -2   -1    0    0    0  501 -0.00000000000E+00  0.00000000000E+00  0.37011036608E+03  0.37011036608E+03  0.00000000000E+00 0.  1.
          2   -1    0    0  501    0  0.00000000000E+00 -0.00000000000E+00 -0.19374879044E+04  0.19374879044E+04  0.00000000000E+00 0. -1.
         23    2    1    2    0    0  0.53269962592E+03  0.17922642370E+03 -0.86125913519E+03  0.10324002217E+04  0.90509212326E+02 0.  0.
        254    2    1    2    0    0 -0.53269962592E+03 -0.17922642370E+03 -0.70611840314E+03  0.12751980487E+04  0.90090835374E+03 0.  0.
         23    2    4    4    0    0 -0.20101904586E+03  0.24909388098E+02 -0.82788208594E+03  0.85689755485E+03  0.88631466561E+02 0.  0.
         23    2    4    4    0    0 -0.33168058006E+03 -0.20413581180E+03  0.12176368281E+03  0.41830049388E+03  0.92007999025E+02 0.  0.
         13    1    3    3    0    0  0.35392708924E+03  0.10572830866E+03 -0.63687062138E+03  0.73623844516E+03  0.00000000000E+00 0. -1.
        -13    1    3    3    0    0  0.17877253668E+03  0.73498115039E+02 -0.22438851381E+03  0.29616177659E+03  0.00000000000E+00 0.  1.
          4    1    5    5  502    0 -0.36261641279E+02  0.19988965698E+02 -0.70269208137E+02  0.81561185561E+02  0.00000000000E+00 0. -1.
          1    1    6    6  503    0 -0.19577923034E+02  0.31744846215E+01 -0.85596734487E+01  0.21601861783E+02  0.00000000000E+00 0. -1.
         -4    1    5    5    0  502 -0.16475740458E+03  0.49204223995E+01 -0.75761287781E+03  0.77533636929E+03  0.00000000000E+00 0.  1.
         -1    1    6    6    0  503 -0.31210265703E+03 -0.20731029642E+03  0.13032335626E+03  0.39669863210E+03  0.00000000000E+00 0.  1.
<mgrwt>
<rscale>  0 0.16936167E+04</rscale>
<asrwt>0</asrwt>
<pdfrwt beam="1">  1        2 0.29807505E+00 0.16936167E+04</pdfrwt>
<pdfrwt beam="2">  1       -2 0.56940058E-01 0.16936167E+04</pdfrwt>
<totfact> 0.19927224E+01</totfact>
</mgrwt>
</event>
<event>
12    1  0.4672461E-008  0.2158585E+04  0.7818608E-02  0.8535866E-01
         -1   -1    0    0    0  501 -0.00000000000E+00  0.00000000000E+00  0.18654616455E+04  0.18654616455E+04  0.00000000000E+00 0.  1.
          1   -1    0    0  501    0  0.00000000000E+00 -0.00000000000E+00 -0.62444205092E+03  0.62444205092E+03  0.00000000000E+00 0. -1.
         23    2    1    2    0    0  0.40417412109E+03  0.17417136681E+03  0.14016829724E+04  0.14718829853E+04  0.89621326061E+02 0.  0.
        254    2    1    2    0    0 -0.40417412109E+03 -0.17417136681E+03 -0.16066337783E+03  0.10180207111E+04  0.90380366348E+03 0.  0.
         23    2    4    4    0    0 -0.64804140562E+03  0.59988897208E+01 -0.23044712884E+03  0.69375817222E+03  0.90558667425E+02 0.  0.
         23    2    4    4    0    0  0.24386728453E+03 -0.18017025653E+03  0.69783751017E+02  0.32426253890E+03  0.91344668314E+02 0.  0.
         13    1    3    3    0    0  0.27260124103E+03  0.10362828437E+03  0.10517663561E+04  0.10914498274E+04  0.00000000000E+00 0.  1.
        -13    1    3    3    0    0  0.13157288007E+03  0.70543082438E+02  0.34991661629E+03  0.38043315787E+03  0.00000000000E+00 0. -1.
          4    1    5    5  502    0 -0.51722201010E+03 -0.25403722320E+02 -0.20439285982E+03  0.55672290952E+03  0.00000000000E+00 0. -1.
          1    1    6    6  503    0  0.92509540299E+02 -0.83171462452E+02  0.73426017324E+02  0.14445375465E+03  0.00000000000E+00 0. -1.
         -4    1    5    5    0  502 -0.13081939552E+03  0.31402612041E+02 -0.26054269025E+02  0.13703526269E+03  0.00000000000E+00 0.  1.
         -1    1    6    6    0  503  0.15135774423E+03 -0.96998794077E+02 -0.36422663070E+01  0.17980878425E+03  0.00000000000E+00 0.  1.
<mgrwt>
<rscale>  0 0.21585854E+04</rscale>
<asrwt>0</asrwt>
<pdfrwt beam="1">  1        1 0.96068009E-01 0.21585854E+04</pdfrwt>
<pdfrwt beam="2">  1       -1 0.28699410E+00 0.21585854E+04</pdfrwt>
<totfact> 0.11859158E+00</totfact>
</mgrwt>
</event>
<event>
12    1  0.4672461E-008  0.1360477E+04  0.7818608E-02  0.8982935E-01
          2   -1    0    0  501    0  0.00000000000E+00  0.00000000000E+00  0.18391453087E+04  0.18391453087E+04  0.00000000000E+00 0.  1.
         -2   -1    0    0    0  501 -0.00000000000E+00 -0.00000000000E+00 -0.25159766727E+03  0.25159766727E+03  0.00000000000E+00 0. -1.
         23    2    1    2    0    0 -0.22301222172E+03 -0.18413835517E+03  0.92200315525E+02  0.31861210057E+03  0.96805927336E+02 0.  0.
        254    2    1    2    0    0  0.22301222172E+03  0.18413835517E+03  0.14953473259E+04  0.17721308754E+04  0.90594857999E+03 0.  0.
         23    2    4    4    0    0 -0.33632556145E+03  0.96057192062E+02  0.73828926148E+03  0.82193633086E+03  0.90368307183E+02 0.  0.
         23    2    4    4    0    0  0.55933778317E+03  0.88081163108E+02  0.75705806446E+03  0.95019454457E+03  0.95476240974E+02 0.  0.
         11    1    3    3    0    0 -0.19166630788E+03 -0.13170299135E+03  0.10663861911E+03  0.25583871207E+03  0.00000000000E+00 0. -1.
        -11    1    3    3    0    0 -0.31345913831E+02 -0.52435363822E+02 -0.14438303588E+02  0.62773388498E+02  0.00000000000E+00 0.  1.
          3    1    5    5  502    0 -0.21712138189E+03  0.61148490177E+02  0.56807835242E+03  0.61122323812E+03  0.00000000000E+00 0. -1.
          3    1    6    6  503    0  0.50646612020E+03  0.52163827744E+02  0.65236422155E+03  0.82753131264E+03  0.00000000000E+00 0. -1.
         -3    1    5    5    0  502 -0.11920417956E+03  0.34908701885E+02  0.17021090906E+03  0.21071309275E+03  0.00000000000E+00 0.  1.
         -3    1    6    6    0  503  0.52871662963E+02  0.35917335364E+02  0.10469384290E+03  0.12266323193E+03  0.00000000000E+00 0.  1.
<mgrwt>
<rscale>  0 0.13604774E+04</rscale>
<asrwt>0</asrwt>
<pdfrwt beam="1">  1        2 0.28294542E+00 0.13604774E+04</pdfrwt>
<pdfrwt beam="2">  1       -2 0.38707335E-01 0.13604774E+04</pdfrwt>
<totfact> 0.50530121E+01</totfact>
</mgrwt>
</event>
<event>
12    1  0.4672461E-008  0.1347593E+04  0.7818608E-02  0.8992652E-01
          1   -1    0    0  501    0  0.00000000000E+00  0.00000000000E+00  0.83954518228E+03  0.83954518228E+03  0.00000000000E+00 0. -1.
         -1   -1    0    0    0  501 -0.00000000000E+00 -0.00000000000E+00 -0.54077119429E+03  0.54077119429E+03  0.00000000000E+00 0.  1.
         23    2    1    2    0    0  0.13439454515E+03 -0.32704085851E+03  0.20939670966E+02  0.36562677252E+03  0.90701984918E+02 0.  0.
        254    2    1    2    0    0 -0.13439454515E+03  0.32704085851E+03  0.27783431703E+03  0.10146896040E+04  0.90960731523E+03 0.  0.
         23    2    4    4    0    0 -0.15664509582E+03  0.15616713009E+03  0.59547695994E+03  0.64198344771E+03  0.92865918113E+02 0.  0.
         23    2    4    4    0    0  0.22250550675E+02  0.17087372842E+03 -0.31764264292E+03  0.37270615633E+03  0.91214649567E+02 0.  0.
         11    1    3    3    0    0  0.10360210636E+03 -0.25207250686E+03  0.54463347635E+02  0.27792121436E+03  0.00000000000E+00 0. -1.
        -11    1    3    3    0    0  0.30792438792E+02 -0.74968351645E+02 -0.33523676669E+02  0.87705558163E+02  0.00000000000E+00 0.  1.
          2    1    5    5  502    0 -0.47040527247E+02  0.23809055791E+02  0.25732015576E+03  0.26266584266E+03  0.00000000000E+00 0. -1.
          2    1    6    6  503    0 -0.76344116148E+01  0.12403205101E+03 -0.14306091272E+03  0.18949580118E+03  0.00000000000E+00 0. -1.
         -2    1    5    5    0  502 -0.10960456858E+03  0.13235807430E+03  0.33815680418E+03  0.37931760505E+03  0.00000000000E+00 0.  1.
         -2    1    6    6    0  503  0.29884962290E+02  0.46841677413E+02 -0.17458173019E+03  0.18321035514E+03  0.00000000000E+00 0.  1.
<mgrwt>
<rscale>  0 0.13475932E+04</rscale>
<asrwt>0</asrwt>
<pdfrwt beam="1">  1        1 0.12916080E+00 0.13475932E+04</pdfrwt>
<pdfrwt beam="2">  1       -1 0.83195568E-01 0.13475932E+04</pdfrwt>
<totfact> 0.28711497E+01</totfact>
</mgrwt>
</event>
<event>
12    1  0.4672461E-008  0.2001032E+04  0.7818608E-02  0.8606138E-01
          1   -1    0    0  501    0  0.00000000000E+00  0.00000000000E+00  0.27145601453E+04  0.27145601453E+04  0.00000000000E+00 0. -1.
         -1   -1    0    0    0  501 -0.00000000000E+00 -0.00000000000E+00 -0.36876406028E+03  0.36876406028E+03  0.00000000000E+00 0.  1.
         23    2    1    2    0    0  0.15809361947E+03 -0.29920030731E+03  0.20341529996E+04  0.20641628770E+04  0.92062699059E+02 0.  0.
        254    2    1    2    0    0 -0.15809361947E+03  0.29920030731E+03  0.31164308543E+03  0.10191613286E+04  0.90942508466E+03 0.  0.
         23    2    4    4    0    0  0.24858817538E+03  0.29920853305E+02 -0.17767419023E+03  0.32142411550E+03  0.95152539367E+02 0.  0.
         23    2    4    4    0    0 -0.40668179486E+03  0.26927945400E+03  0.48931727566E+03  0.69773721310E+03  0.97490079866E+02 0.  0.
         13    1    3    3    0    0  0.12027821109E+03 -0.22833452928E+03  0.17480506938E+04  0.17669987927E+04  0.00000000000E+00 0. -1.
        -13    1    3    3    0    0  0.37815408382E+02 -0.70865778026E+02  0.28610230582E+03  0.29716408431E+03  0.00000000000E+00 0.  1.
          1    1    5    5  502    0  0.24316828210E+03  0.28746551888E+02 -0.13741490892E+03  0.28078467704E+03  0.00000000000E+00 0. -1.
          3    1    6    6  503    0 -0.36243444206E+03  0.24550584025E+03  0.47401090994E+03  0.64522723527E+03  0.00000000000E+00 0. -1.
         -1    1    5    5    0  502  0.54198932799E+01  0.11743014168E+01 -0.40259281304E+02  0.40639438457E+02  0.00000000000E+00 0.  1.
         -3    1    6    6    0  503 -0.44247352797E+02  0.23773613754E+02  0.15306365713E+02  0.52509977831E+02  0.00000000000E+00 0.  1.
<mgrwt>
<rscale>  0 0.20010320E+04</rscale>
<asrwt>0</asrwt>
<pdfrwt beam="1">  1        1 0.41762462E+00 0.20010320E+04</pdfrwt>
<pdfrwt beam="2">  1       -1 0.56732934E-01 0.20010320E+04</pdfrwt>
<totfact> 0.27985215E+00</totfact>
</mgrwt>
</event>
<event>
12    1  0.4672461E-008  0.1514585E+04  0.7818608E-02  0.8874812E-01
         -2   -1    0    0    0  501 -0.00000000000E+00  0.00000000000E+00  0.36339800036E+03  0.36339800036E+03  0.00000000000E+00 0.  1.
          2   -1    0    0  501    0  0.00000000000E+00 -0.00000000000E+00 -0.15781372985E+04  0.15781372985E+04  0.00000000000E+00 0. -1.
         23    2    1    2    0    0 -0.27206166411E+03 -0.37530003190E+03 -0.26134533122E+03  0.53961586538E+03  0.89533440667E+02 0.  0.
        254    2    1    2    0    0  0.27206166411E+03  0.37530003190E+03 -0.95339396691E+03  0.14019194335E+04  0.91736055005E+03 0.  0.
         23    2    4    4    0    0  0.49580041585E+03 -0.39866494619E+02 -0.28949486815E+03  0.58253069927E+03  0.90151800596E+02 0.  0.
         23    2    4    4    0    0 -0.22373875174E+03  0.41516652652E+03 -0.66389909876E+03  0.81938873421E+03  0.90628972431E+02 0.  0.
         11    1    3    3    0    0 -0.12058097045E+03 -0.15716763162E+03 -0.62062227293E+02  0.20758890847E+03  0.00000000000E+00 0. -1.
        -11    1    3    3    0    0 -0.15148069366E+03 -0.21813240028E+03 -0.19928310393E+03  0.33202695691E+03  0.00000000000E+00 0.  1.
          4    1    5    5  502    0  0.14592117142E+03 -0.53104535514E+02 -0.94063576363E+02  0.18155174568E+03  0.00000000000E+00 0. -1.
          3    1    6    6  503    0 -0.88396524182E+02  0.23745952862E+03 -0.30333414130E+03  0.39523736475E+03  0.00000000000E+00 0. -1.
         -4    1    5    5    0  502  0.34987924443E+03  0.13238040895E+02 -0.19543129179E+03  0.40097895359E+03  0.00000000000E+00 0.  1.
         -3    1    6    6    0  503 -0.13534222756E+03  0.17770699790E+03 -0.36056495746E+03  0.42415136945E+03  0.00000000000E+00 0.  1.
<mgrwt>
<rscale>  0 0.15145850E+04</rscale>
<asrwt>0</asrwt>
<pdfrwt beam="1">  1        2 0.24279035E+00 0.15145850E+04</pdfrwt>
<pdfrwt beam="2">  1       -2 0.55907385E-01 0.15145850E+04</pdfrwt>
<totfact> 0.33259995E+01</totfact>
</mgrwt>
</event>
<event>
12    1  0.4672461E-008  0.1516313E+04  0.7818608E-02  0.8873677E-01
          2   -1    0    0  501    0  0.00000000000E+00  0.00000000000E+00  0.74372223808E+03  0.74372223808E+03  0.00000000000E+00 0. -1.
         -2   -1    0    0    0  501 -0.00000000000E+00 -0.00000000000E+00 -0.77287085055E+03  0.77287085055E+03  0.00000000000E+00 0.  1.
         23    2    1    2    0    0  0.25005921501E+03 -0.43041233644E+03  0.83803310718E+02  0.51308430834E+03  0.91913667154E+02 0.  0.
        254    2    1    2    0    0 -0.25005921501E+03  0.43041233644E+03 -0.11295192319E+03  0.10035087803E+04  0.86399499119E+03 0.  0.
         23    2    4    4    0    0 -0.53349579404E+03  0.23263358959E+03 -0.22073173378E+03  0.62937479667E+03  0.93026808578E+02 0.  0.
         23    2    4    4    0    0  0.28343657903E+03  0.19777874684E+03  0.10777981058E+03  0.37413398362E+03  0.94377026332E+02 0.  0.
         11    1    3    3    0    0  0.22709670201E+03 -0.38663587959E+03  0.45798289393E+02  0.45073018399E+03  0.00000000000E+00 0.  1.
        -11    1    3    3    0    0  0.22962513002E+02 -0.43776456845E+02  0.38005021325E+02  0.62354124348E+02  0.00000000000E+00 0. -1.
          2    1    5    5  502    0 -0.12136121538E+03  0.63884682331E+02 -0.94272389886E+02  0.16642439944E+03  0.00000000000E+00 0. -1.
          4    1    6    6  503    0  0.52943964466E+02  0.51430969772E+02  0.63845494066E+02  0.97593315025E+02  0.00000000000E+00 0. -1.
         -2    1    5    5    0  502 -0.41213457866E+03  0.16874890726E+03 -0.12645934389E+03  0.46295039722E+03  0.00000000000E+00 0.  1.
         -4    1    6    6    0  503  0.23049261456E+03  0.14634777707E+03  0.43934316516E+02  0.27654066860E+03  0.00000000000E+00 0.  1.
<mgrwt>
<rscale>  0 0.15163129E+04</rscale>
<asrwt>0</asrwt>
<pdfrwt beam="1">  1        2 0.11441881E+00 0.15163129E+04</pdfrwt>
<pdfrwt beam="2">  1       -2 0.11890321E+00 0.15163129E+04</pdfrwt>
<totfact> 0.19873408E+01</totfact>
</mgrwt>
</event>
<event>
12    1  0.4672461E-008  0.2019863E+04  0.7818608E-02  0.8597390E-01
          1   -1    0    0  501    0  0.00000000000E+00  0.00000000000E+00  0.21110305583E+04  0.21110305583E+04  0.00000000000E+00 0. -1.
         -1   -1    0    0    0  501 -0.00000000000E+00 -0.00000000000E+00 -0.48315829547E+03  0.48315829547E+03  0.00000000000E+00 0.  1.
         23    2    1    2    0    0 -0.41948542816E+03 -0.55030866853E+03  0.11768210765E+03  0.70768327069E+03  0.90326508033E+02 0.  0.
        254    2    1    2    0    0  0.41948542816E+03  0.55030866853E+03  0.15101901551E+04  0.18865055830E+04  0.89410366012E+03 0.  0.
         23    2    4    4    0    0 -0.14116493397E+03  0.25875353299E+03  0.77632118979E+02  0.31811106269E+03  0.91032812162E+02 0.  0.
         23    2    4    4    0    0  0.56065036213E+03  0.29155513555E+03  0.14325580362E+04  0.15683945203E+04  0.91135168134E+02 0.  0.
         13    1    3    3    0    0 -0.10142845501E+03 -0.97868899083E+02 -0.56120746451E+01  0.14105866962E+03  0.00000000000E+00 0. -1.
        -13    1    3    3    0    0 -0.31805697315E+03 -0.45243976945E+03  0.12329418229E+03  0.56662460107E+03  0.00000000000E+00 0.  1.
          2    1    5    5  502    0 -0.39139780837E+02  0.78040718890E+02 -0.18751402858E+02  0.89296648078E+02  0.00000000000E+00 0. -1.
          3    1    6    6  503    0  0.97689582839E+02  0.74993014911E+02  0.35525011495E+03  0.37599182312E+03  0.00000000000E+00 0. -1.
         -2    1    5    5    0  502 -0.10202515313E+03  0.18071281410E+03  0.96383521837E+02  0.22881441461E+03  0.00000000000E+00 0.  1.
         -3    1    6    6    0  503  0.46296077929E+03  0.21656212063E+03  0.10773079212E+04  0.11924026972E+04  0.00000000000E+00 0.  1.
<mgrwt>
<rscale>  0 0.20198633E+04</rscale>
<asrwt>0</asrwt>
<pdfrwt beam="1">  1        1 0.32477393E+00 0.20198633E+04</pdfrwt>
<pdfrwt beam="2">  1       -1 0.74332046E-01 0.20198633E+04</pdfrwt>
<totfact> 0.42254996E+00</totfact>
</mgrwt>
</event>
<event>
12    1  0.4672461E-008  0.1586660E+04  0.7818608E-02  0.8828786E-01
         -2   -1    0    0    0  501 -0.00000000000E+00  0.00000000000E+00  0.22249783306E+03  0.22249783306E+03  0.00000000000E+00 0.  1.
          2   -1    0    0  501    0  0.00000000000E+00 -0.00000000000E+00 -0.28286673653E+04  0.28286673653E+04  0.00000000000E+00 0. -1.
         23    2    1    2    0    0  0.30352260788E+03  0.32032707789E+03 -0.14520045595E+04  0.15200780420E+04  0.87089624497E+02 0.  0.
        254    2    1    2    0    0 -0.30352260788E+03 -0.32032707789E+03 -0.11541649728E+04  0.15310871564E+04  0.90409937823E+03 0.  0.
         23    2    4    4    0    0 -0.56619038793E+03 -0.24274230932E+03 -0.44429378788E+03  0.76474836796E+03  0.89149942407E+02 0.  0.
         23    2    4    4    0    0  0.26266778006E+03 -0.77584768576E+02 -0.70987118494E+03  0.76633878845E+03  0.91347033222E+02 0.  0.
         11    1    3    3    0    0  0.26996893170E+03  0.23738946497E+03 -0.11980882223E+04  0.12508606520E+04  0.00000000000E+00 0. -1.
        -11    1    3    3    0    0  0.33553676177E+02  0.82937612925E+02 -0.25391633715E+03  0.26921739003E+03  0.00000000000E+00 0.  1.
          4    1    5    5  502    0 -0.50766456973E+03 -0.22890900400E+03 -0.36753478465E+03  0.66723643890E+03  0.00000000000E+00 0. -1.
          3    1    6    6  503    0  0.26883432413E+03 -0.82071385141E+02 -0.69207012543E+03  0.74697300125E+03  0.00000000000E+00 0. -1.
         -4    1    5    5    0  502 -0.58525818208E+02 -0.13833305318E+02 -0.76759003227E+02  0.97511929061E+02  0.00000000000E+00 0.  1.
         -3    1    6    6    0  503 -0.61665440734E+01  0.44866165650E+01 -0.17801059507E+02  0.19365787192E+02  0.00000000000E+00 0.  1.
<mgrwt>
<rscale>  0 0.15866598E+04</rscale>
<asrwt>0</asrwt>
<pdfrwt beam="1">  1        2 0.43517957E+00 0.15866598E+04</pdfrwt>
<pdfrwt beam="2">  1       -2 0.34230438E-01 0.15866598E+04</pdfrwt>
<totfact> 0.17124437E+01</totfact>
</mgrwt>
</event>
<event>
12    1  0.4672461E-008  0.1541112E+04  0.7818608E-02  0.8857565E-01
          1   -1    0    0  501    0  0.00000000000E+00  0.00000000000E+00  0.40024736778E+03  0.40024736778E+03  0.00000000000E+00 0. -1.
         -1   -1    0    0    0  501 -0.00000000000E+00 -0.00000000000E+00 -0.14834738028E+04  0.14834738028E+04  0.00000000000E+00 0.  1.
         23    2    1    2    0    0 -0.25969041646E+03 -0.38332178414E+03 -0.12235097960E+03  0.48765065909E+03  0.91971193913E+02 0.  0.
        254    2    1    2    0    0  0.25969041646E+03  0.38332178414E+03 -0.96087545541E+03  0.13960705115E+04  0.90075331230E+03 0.  0.
         23    2    4    4    0    0 -0.29383962713E+03  0.57536235899E+02 -0.12212308828E+03  0.33572409598E+03  0.90246745203E+02 0.  0.
         23    2    4    4    0    0  0.55353004359E+03  0.32578554824E+03 -0.83875236714E+03  0.10603464155E+04  0.91089268755E+02 0.  0.
         11    1    3    3    0    0 -0.24418417942E+03 -0.34655660882E+03 -0.83754878181E+02  0.43213687209E+03  0.00000000000E+00 0. -1.
        -11    1    3    3    0    0 -0.15506237037E+02 -0.36765175318E+02 -0.38596101419E+02  0.55513787008E+02  0.00000000000E+00 0.  1.
          4    1    5    5  502    0 -0.11048050877E+02 -0.98876986689E+01  0.84100062023E+01  0.17045650984E+02  0.00000000000E+00 0. -1.
          1    1    6    6  503    0  0.18248184132E+02  0.29142559512E+01 -0.53835329742E+02  0.56918642291E+02  0.00000000000E+00 0. -1.
         -4    1    5    5    0  502 -0.28279157625E+03  0.67423934568E+02 -0.13053309448E+03  0.31867844500E+03  0.00000000000E+00 0.  1.
         -1    1    6    6    0  503  0.53528185946E+03  0.32287129229E+03 -0.78491703739E+03  0.10034277732E+04  0.00000000000E+00 0.  1.
<mgrwt>
<rscale>  0 0.15411119E+04</rscale>
<asrwt>0</asrwt>
<pdfrwt beam="1">  1        1 0.61576519E-01 0.15411119E+04</pdfrwt>
<pdfrwt beam="2">  1       -1 0.22822674E+00 0.15411119E+04</pdfrwt>
<totfact> 0.56060005E+00</totfact>
</mgrwt>
</event>
<event>
12    1  0.4672461E-008  0.1114863E+04  0.7818608E-02  0.9190825E-01
         -2   -1    0    0    0  501 -0.00000000000E+00  0.00000000000E+00  0.13961790594E+03  0.13961790594E+03  0.00000000000E+00 0. -1.
          2   -1    0    0  501    0  0.00000000000E+00 -0.00000000000E+00 -0.22255728122E+04  0.22255728122E+04  0.00000000000E+00 0.  1.
         23    2    1    2    0    0 -0.10539351302E+03 -0.92108234616E+02 -0.61485649153E+03  0.63476441512E+03  0.72702393698E+02 0.  0.
        254    2    1    2    0    0  0.10539351302E+03  0.92108234616E+02 -0.14710984147E+04  0.17304263030E+04  0.90036266297E+03 0.  0.
         23    2    4    4    0    0  0.47491493653E+03 -0.19735067716E+02 -0.58647832661E+03  0.76073194123E+03  0.93928637799E+02 0.  0.
         23    2    4    4    0    0 -0.36952142350E+03  0.11184330233E+03 -0.88462008808E+03  0.96969436175E+03  0.93270832821E+02 0.  0.
         13    1    3    3    0    0 -0.30692761172E+02  0.29513803409E+00 -0.22841144930E+03  0.23046458051E+03  0.00000000000E+00 0. -1.
        -13    1    3    3    0    0 -0.74700751851E+02 -0.92403372650E+02 -0.38644504223E+03  0.40429983461E+03  0.00000000000E+00 0.  1.
          2    1    5    5  502    0  0.97826582877E+02 -0.16788395100E+02 -0.18486356956E+03  0.20982475993E+03  0.00000000000E+00 0.  1.
          1    1    6    6  503    0 -0.28362401723E+03  0.44597244504E+02 -0.60955346062E+03  0.67378551389E+03  0.00000000000E+00 0. -1.
         -2    1    5    5    0  502  0.37708835365E+03 -0.29466726164E+01 -0.40161475704E+03  0.55090718130E+03  0.00000000000E+00 0. -1.
         -1    1    6    6    0  503 -0.85897406272E+02  0.67246057829E+02 -0.27506662746E+03  0.29590884786E+03  0.00000000000E+00 0.  1.
<mgrwt>
<rscale>  0 0.11148629E+04</rscale>
<asrwt>0</asrwt>
<pdfrwt beam="1">  1        2 0.34239582E+00 0.11148629E+04</pdfrwt>
<pdfrwt beam="2">  1       -2 0.21479678E-01 0.11148629E+04</pdfrwt>
<totfact> 0.93779964E+01</totfact>
</mgrwt>
</event>
<event>
12    1  0.4672461E-008  0.2166140E+04  0.7818608E-02  0.8532655E-01
          2   -1    0    0  501    0  0.00000000000E+00  0.00000000000E+00  0.10199649213E+04  0.10199649213E+04  0.00000000000E+00 0. -1.
         -2   -1    0    0    0  501 -0.00000000000E+00 -0.00000000000E+00 -0.11500789444E+04  0.11500789444E+04  0.00000000000E+00 0.  1.
         23    2    1    2    0    0 -0.27488699402E+02 -0.37333313231E+03 -0.86445235304E+03  0.94632519347E+03  0.90112401268E+02 0.  0.
        254    2    1    2    0    0  0.27488699402E+02  0.37333313231E+03  0.73433832999E+03  0.12237186723E+04  0.90448955199E+03 0.  0.
         23    2    4    4    0    0 -0.27832968531E+03 -0.55073635712E+02  0.60446574953E+03  0.67425130912E+03  0.93463717077E+02 0.  0.
         23    2    4    4    0    0  0.30581838471E+03  0.42840676802E+03  0.12987258046E+03  0.54946736314E+03  0.89388213386E+02 0.  0.
         11    1    3    3    0    0  0.31954604151E+02 -0.12889719815E+03 -0.32584314247E+03  0.35186551112E+03  0.00000000000E+00 0. -1.
        -11    1    3    3    0    0 -0.59443303553E+02 -0.24443593416E+03 -0.53860921056E+03  0.59445968236E+03  0.00000000000E+00 0.  1.
          4    1    5    5  502    0 -0.19173503821E+03 -0.78126203416E+02  0.38376970860E+03  0.43605643875E+03  0.00000000000E+00 0. -1.
          4    1    6    6  503    0  0.29453516790E+03  0.40470201758E+03  0.14237451195E+03  0.52038945975E+03  0.00000000000E+00 0. -1.
         -4    1    5    5    0  502 -0.86594647097E+02  0.23052567704E+02  0.22069604093E+03  0.23819487036E+03  0.00000000000E+00 0.  1.
         -4    1    6    6    0  503  0.11283216810E+02  0.23704750441E+02 -0.12501931488E+02  0.29077903397E+02  0.00000000000E+00 0.  1.
<mgrwt>
<rscale>  0 0.21661396E+04</rscale>
<asrwt>0</asrwt>
<pdfrwt beam="1">  1        2 0.15691768E+00 0.21661396E+04</pdfrwt>
<pdfrwt beam="2">  1       -2 0.17693522E+00 0.21661396E+04</pdfrwt>
<totfact> 0.42683987E+00</totfact>
</mgrwt>
</event>
<event>
12    1  0.4672461E-008  0.1950179E+04  0.7818608E-02  0.8630275E-01
          1   -1    0    0  501    0  0.00000000000E+00  0.00000000000E+00  0.10892668693E+04  0.10892668693E+04  0.00000000000E+00 0. -1.
         -1   -1    0    0    0  501 -0.00000000000E+00 -0.00000000000E+00 -0.87287983188E+03  0.87287983188E+03  0.00000000000E+00 0.  1.
         23    2    1    2    0    0  0.27482970720E+02 -0.31283669100E+03 -0.61891081503E+03  0.70000849882E+03  0.91319179521E+02 0.  0.
        254    2    1    2    0    0 -0.27482970720E+02  0.31283669100E+03  0.83529785245E+03  0.12621382024E+04  0.89255152827E+03 0.  0.
         23    2    4    4    0    0 -0.28470527140E+03 -0.19980842409E+03  0.24927164583E+03  0.43719305328E+03  0.89559558505E+02 0.  0.
         23    2    4    4    0    0  0.25722230068E+03  0.51264511509E+03  0.58602620662E+03  0.82494514908E+03  0.90218945598E+02 0.  0.
         11    1    3    3    0    0  0.17537572133E+02 -0.85483504833E+01 -0.18834864718E+02  0.27118127908E+02  0.00000000000E+00 0. -1.
        -11    1    3    3    0    0  0.99453985867E+01 -0.30428834052E+03 -0.60007595031E+03  0.67289037091E+03  0.00000000000E+00 0.  1.
          1    1    5    5  502    0 -0.16558858948E+03 -0.79748715718E+02  0.17020961562E+03  0.25050100174E+03  0.00000000000E+00 0. -1.
          1    1    6    6  503    0  0.21753830057E+03  0.43120924109E+03  0.44141579528E+03  0.65430285506E+03  0.00000000000E+00 0. -1.
         -1    1    5    5    0  502 -0.11911668192E+03 -0.12005970837E+03  0.79062030213E+02  0.18669205154E+03  0.00000000000E+00 0.  1.
         -1    1    6    6    0  503  0.39684000111E+02  0.81435874002E+02  0.14461041135E+03  0.17064229402E+03  0.00000000000E+00 0.  1.
<mgrwt>
<rscale>  0 0.19501785E+04</rscale>
<asrwt>0</asrwt>
<pdfrwt beam="1">  1        1 0.16757952E+00 0.19501785E+04</pdfrwt>
<pdfrwt beam="2">  1       -1 0.13428921E+00 0.19501785E+04</pdfrwt>
<totfact> 0.56197299E+00</totfact>
</mgrwt>
</event>
<event>
12    1  0.4672461E-008  0.1724068E+04  0.7818608E-02  0.8747756E-01
          2   -1    0    0  501    0  0.00000000000E+00  0.00000000000E+00  0.24142803021E+04  0.24142803021E+04  0.00000000000E+00 0. -1.
         -2   -1    0    0    0  501 -0.00000000000E+00 -0.00000000000E+00 -0.30779454671E+03  0.30779454671E+03  0.00000000000E+00 0.  1.
         23    2    1    2    0    0  0.23325091894E+03  0.76205239517E+02 -0.13691527241E+03  0.29419517164E+03  0.87130806752E+02 0.  0.
        254    2    1    2    0    0 -0.23325091894E+03 -0.76205239517E+02  0.22434010278E+04  0.24278796772E+04  0.89528672813E+03 0.  0.
         23    2    4    4    0    0 -0.82443130609E+02  0.29410200343E+03  0.28210635748E+03  0.42388418074E+03  0.82467833393E+02 0.  0.
         23    2    4    4    0    0 -0.15080778833E+03 -0.37030724295E+03  0.19612946703E+04  0.20039954964E+04  0.97214827442E+02 0.  0.
         13    1    3    3    0    0  0.22587046767E+02 -0.18218943288E+02 -0.96439447609E+01  0.30579572377E+02  0.00000000000E+00 0. -1.
        -13    1    3    3    0    0  0.21066387217E+03  0.94424182805E+02 -0.12727132764E+03  0.26361559927E+03  0.00000000000E+00 0.  1.
          4    1    5    5  502    0  0.82053538694E+01  0.23708680600E+02  0.50917941628E+02  0.56763246450E+02  0.00000000000E+00 0. -1.
          3    1    6    6  503    0 -0.83586314515E+02 -0.99458505138E+02  0.73020317019E+03  0.74167063848E+03  0.00000000000E+00 0. -1.
         -4    1    5    5    0  502 -0.90648484478E+02  0.27039332283E+03  0.23118841585E+03  0.36712093429E+03  0.00000000000E+00 0.  1.
         -3    1    6    6    0  503 -0.67221473816E+02 -0.27084873781E+03  0.12310915001E+04  0.12623248580E+04  0.00000000000E+00 0.  1.
<mgrwt>
<rscale>  0 0.17240676E+04</rscale>
<asrwt>0</asrwt>
<pdfrwt beam="1">  1        2 0.37142773E+00 0.17240676E+04</pdfrwt>
<pdfrwt beam="2">  1       -2 0.47353009E-01 0.17240676E+04</pdfrwt>
<totfact> 0.15678536E+01</totfact>
</mgrwt>
</event>
<event>
12    1  0.4672461E-008  0.1394920E+04  0.7818608E-02  0.8957504E-01
          1   -1    0    0  501    0  0.00000000000E+00  0.00000000000E+00  0.14976054816E+04  0.14976054816E+04  0.00000000000E+00 0. -1.
         -1   -1    0    0    0  501 -0.00000000000E+00 -0.00000000000E+00 -0.32481862953E+03  0.32481862953E+03  0.00000000000E+00 0.  1.
         23    2    1    2    0    0  0.10717831795E+03 -0.31595053390E+03  0.54714440577E+03  0.64741795155E+03  0.92038424184E+02 0.  0.
        254    2    1    2    0    0 -0.10717831795E+03  0.31595053390E+03  0.62564244630E+03  0.11750061596E+04  0.93696268480E+03 0.  0.
         23    2    4    4    0    0  0.12208654065E+03  0.54896021548E+03  0.14737228861E+03  0.58821819349E+03  0.89552275828E+02 0.  0.
         23    2    4    4    0    0 -0.22926485860E+03 -0.23300968159E+03  0.47827015769E+03  0.58678796609E+03  0.93391039723E+02 0.  0.
         13    1    3    3    0    0  0.62573448234E+02 -0.13408426764E+03  0.16350517751E+03  0.22051750571E+03  0.00000000000E+00 0.  1.
        -13    1    3    3    0    0  0.44604869712E+02 -0.18186626626E+03  0.38363922826E+03  0.42690044584E+03  0.00000000000E+00 0. -1.
          4    1    6    6  502    0 -0.10568020366E+03 -0.16249481011E+03  0.23150292273E+03  0.30193786114E+03  0.00000000000E+00 0.  1.
          4    1    5    5  503    0  0.74164730538E+02  0.32935517704E+03  0.13342921201E+03  0.36301321535E+03  0.00000000000E+00 0. -1.
         -4    1    5    5    0  503  0.47921810117E+02  0.21960503844E+03  0.13943076604E+02  0.22520497814E+03  0.00000000000E+00 0.  1.
         -4    1    6    6    0  502 -0.12358465494E+03 -0.70514871480E+02  0.24676723496E+03  0.28485010494E+03  0.00000000000E+00 0. -1.
<mgrwt>
<rscale>  0 0.13949196E+04</rscale>
<asrwt>0</asrwt>
<pdfrwt beam="1">  1        1 0.23040084E+00 0.13949196E+04</pdfrwt>
<pdfrwt beam="2">  1       -1 0.49972098E-01 0.13949196E+04</pdfrwt>
<totfact> 0.25736176E+01</totfact>
</mgrwt>
</event>
<event>
12    1  0.4672461E-008  0.1276884E+04  0.7818608E-02  0.9048100E-01
         -2   -1    0    0    0  501 -0.00000000000E+00  0.00000000000E+00  0.64609009704E+03  0.64609009704E+03  0.00000000000E+00 0. -1.
          2   -1    0    0  501    0  0.00000000000E+00 -0.00000000000E+00 -0.63088480249E+03  0.63088480249E+03  0.00000000000E+00 0.  1.
         23    2    1    2    0    0 -0.81622055952E+02 -0.28536335646E+03  0.96488974166E+02  0.32505543903E+03  0.90865345864E+02 0.  0.
        254    2    1    2    0    0  0.81622055952E+02  0.28536335646E+03 -0.81283679614E+02  0.95191946050E+03  0.90080476102E+03 0.  0.
         23    2    4    4    0    0  0.39670662579E+03  0.11530747413E+02  0.18545399608E+03  0.44771219323E+03  0.92433317703E+02 0.  0.
         23    2    4    4    0    0 -0.31508456984E+03  0.27383260904E+03 -0.26673767570E+03  0.50420726727E+03  0.93879693234E+02 0.  0.
         11    1    3    3    0    0 -0.53282256180E+02 -0.25232470989E+03  0.52515657836E+02  0.26318178577E+03  0.00000000000E+00 0.  1.
        -11    1    3    3    0    0 -0.28339799772E+02 -0.33038646570E+02  0.43973316330E+02  0.61873653257E+02  0.00000000000E+00 0. -1.
          2    1    5    5  502    0  0.31227560121E+01 -0.39437293318E+01 -0.75559742560E+01  0.90772987783E+01  0.00000000000E+00 0. -1.
          4    1    6    6  503    0  0.51969222806E+00  0.27488877516E+02 -0.16077679346E+02  0.31849650552E+02  0.00000000000E+00 0. -1.
         -2    1    5    5    0  502  0.39358386978E+03  0.15474476744E+02  0.19300997034E+03  0.43863489445E+03  0.00000000000E+00 0.  1.
         -4    1    6    6    0  503 -0.31560426207E+03  0.24634373153E+03 -0.25065999635E+03  0.47235761672E+03  0.00000000000E+00 0.  1.
<mgrwt>
<rscale>  0 0.12768844E+04</rscale>
<asrwt>0</asrwt>
<pdfrwt beam="1">  1        2 0.97059201E-01 0.12768844E+04</pdfrwt>
<pdfrwt beam="2">  1       -2 0.99398476E-01 0.12768844E+04</pdfrwt>
<totfact> 0.38382790E+01</totfact>
</mgrwt>
</event>
<event>
12    1  0.4672461E-008  0.1819324E+04  0.7818608E-02  0.8696090E-01
         -1   -1    0    0    0  501 -0.00000000000E+00  0.00000000000E+00  0.15467254359E+04  0.15467254359E+04  0.00000000000E+00 0.  1.
          1   -1    0    0  501    0  0.00000000000E+00 -0.00000000000E+00 -0.53499121937E+03  0.53499121937E+03  0.00000000000E+00 0. -1.
         23    2    1    2    0    0 -0.66605799232E+03 -0.11599358018E+03  0.27509830527E+03  0.73584023151E+03  0.93241669757E+02 0.  0.
        254    2    1    2    0    0  0.66605799232E+03  0.11599358018E+03  0.73663591126E+03  0.13458764238E+04  0.90092348314E+03 0.  0.
         23    2    4    4    0    0  0.53416552559E+03  0.44312274610E+03  0.68238994020E+03  0.97802089875E+03  0.95803293617E+02 0.  0.
         23    2    4    4    0    0  0.13189246673E+03 -0.32712916592E+03  0.54245971063E+02  0.36785552500E+03  0.89252159218E+02 0.  0.
         13    1    3    3    0    0 -0.44727816205E+03 -0.86137393918E+02  0.13804211376E+03  0.47595486135E+03  0.00000000000E+00 0.  1.
        -13    1    3    3    0    0 -0.21877983027E+03 -0.29856186264E+02  0.13705619152E+03  0.25988537016E+03  0.00000000000E+00 0. -1.
          2    1    5    5  502    0  0.14417031101E+03  0.67645216803E+02  0.15572594909E+03  0.22273644775E+03  0.00000000000E+00 0. -1.
          3    1    6    6  503    0  0.29531929365E+02 -0.14621836525E+03 -0.12104479831E+02  0.14966116270E+03  0.00000000000E+00 0. -1.
         -2    1    5    5    0  502  0.38999521458E+03  0.37547752930E+03  0.52666399111E+03  0.75528445100E+03  0.00000000000E+00 0.  1.
         -3    1    6    6    0  503  0.10236053736E+03 -0.18091080067E+03  0.66350450893E+02  0.21819436230E+03  0.00000000000E+00 0.  1.
<mgrwt>
<rscale>  0 0.18193235E+04</rscale>
<asrwt>0</asrwt>
<pdfrwt beam="1">  1        1 0.82306342E-01 0.18193235E+04</pdfrwt>
<pdfrwt beam="2">  1       -1 0.23795776E+00 0.18193235E+04</pdfrwt>
<totfact> 0.31772833E+00</totfact>
</mgrwt>
</event>
<event>
12    1  0.4672461E-008  0.1842424E+04  0.7818608E-02  0.8684058E-01
         -1   -1    0    0    0  501 -0.00000000000E+00  0.00000000000E+00  0.74427017652E+03  0.74427017652E+03  0.00000000000E+00 0.  1.
          1   -1    0    0  501    0  0.00000000000E+00 -0.00000000000E+00 -0.11402201742E+04  0.11402201742E+04  0.00000000000E+00 0. -1.
         23    2    1    2    0    0 -0.49348397527E+03 -0.64511023417E+02  0.34314871340E+03  0.61177268512E+03  0.93950373913E+02 0.  0.
        254    2    1    2    0    0  0.49348397527E+03  0.64511023417E+02 -0.73909871111E+03  0.12727176656E+04  0.90876578152E+03 0.  0.
         23    2    4    4    0    0 -0.21105233441E+03 -0.93505106107E+02 -0.19994713149E+02  0.24977475842E+03  0.93281019841E+02 0.  0.
         23    2    4    4    0    0  0.70453630968E+03  0.15801612952E+03 -0.71910399796E+03  0.10229429072E+04  0.89225123664E+02 0.  0.
         11    1    3    3    0    0 -0.82758324840E+02  0.12135596245E+02  0.91750779438E+02  0.12415481688E+03  0.00000000000E+00 0. -1.
        -11    1    3    3    0    0 -0.41072565043E+03 -0.76646619663E+02  0.25139793396E+03  0.48761786824E+03  0.00000000000E+00 0.  1.
          2    1    5    5  502    0 -0.81021622810E+02  0.11327942304E+02 -0.26897468355E+01  0.81853896533E+02  0.00000000000E+00 0. -1.
          4    1    6    6  503    0  0.21164099451E+03  0.13160166100E+02 -0.17862989754E+03  0.27726114193E+03  0.00000000000E+00 0. -1.
         -2    1    5    5    0  502 -0.13003071160E+03 -0.10483304841E+03 -0.17304966314E+02  0.16792086189E+03  0.00000000000E+00 0.  1.
         -4    1    6    6    0  503  0.49289531518E+03  0.14485596342E+03 -0.54047410042E+03  0.74568176529E+03  0.00000000000E+00 0.  1.
<mgrwt>
<rscale>  0 0.18424243E+04</rscale>
<asrwt>0</asrwt>
<pdfrwt beam="1">  1        1 0.17541849E+00 0.18424243E+04</pdfrwt>
<pdfrwt beam="2">  1       -1 0.11450310E+00 0.18424243E+04</pdfrwt>
<totfact> 0.77145076E+00</totfact>
</mgrwt>
</event>
<event>
12    1  0.4672461E-008  0.1244569E+04  0.7818608E-02  0.9074716E-01
         -2   -1    0    0    0  501 -0.00000000000E+00  0.00000000000E+00  0.57676250386E+03  0.57676250386E+03  0.00000000000E+00 0. -1.
          2   -1    0    0  501    0  0.00000000000E+00 -0.00000000000E+00 -0.67139926828E+03  0.67139926828E+03  0.00000000000E+00 0.  1.
         23    2    1    2    0    0 -0.21523089395E+03 -0.16090687247E+03  0.30796676396E+02  0.28522880011E+03  0.90507866048E+02 0.  0.
        254    2    1    2    0    0  0.21523089395E+03  0.16090687247E+03 -0.12543344081E+03  0.96293297203E+03  0.91612826680E+03 0.  0.
         23    2    4    4    0    0  0.88297217279E+01 -0.36786808041E+03 -0.63869888287E+02  0.38478972040E+03  0.92622231254E+02 0.  0.
         23    2    4    4    0    0  0.20640117222E+03  0.52877495288E+03 -0.61563552520E+02  0.57814325163E+03  0.90857876476E+02 0.  0.
         11    1    3    3    0    0 -0.36615975514E+02 -0.55021399384E+02 -0.24274383356E+02  0.70408307325E+02  0.00000000000E+00 0.  1.
        -11    1    3    3    0    0 -0.17861491844E+03 -0.10588547309E+03  0.55071059752E+02  0.21482049279E+03  0.00000000000E+00 0. -1.
          2    1    5    5  502    0  0.34850422638E+02 -0.54163980235E+02 -0.16262604618E+02  0.66428615987E+02  0.00000000000E+00 0. -1.
          1    1    6    6  503    0  0.11639530220E+03  0.35673599038E+03 -0.78077691690E+02  0.38328130551E+03  0.00000000000E+00 0. -1.
         -2    1    5    5    0  502 -0.26020700910E+02 -0.31370410017E+03 -0.47607283669E+02  0.31836110441E+03  0.00000000000E+00 0.  1.
         -1    1    6    6    0  503  0.90005870023E+02  0.17203896250E+03  0.16514139169E+02  0.19486194613E+03  0.00000000000E+00 0.  1.
<mgrwt>
<rscale>  0 0.12445689E+04</rscale>
<asrwt>0</asrwt>
<pdfrwt beam="1">  1        2 0.10329219E+00 0.12445689E+04</pdfrwt>
<pdfrwt beam="2">  1       -2 0.88732694E-01 0.12445689E+04</pdfrwt>
<totfact> 0.46413448E+01</totfact>
</mgrwt>
</event>
<event>
12    1  0.4806309E-008  0.2500131E+04  0.7818608E-02  0.8402939E-01
          2   -1    0    0  501    0  0.00000000000E+00  0.00000000000E+00  0.22324507063E+04  0.22324507063E+04  0.00000000000E+00 0. -1.
         -2   -1    0    0    0  501 -0.00000000000E+00 -0.00000000000E+00 -0.69997679255E+03  0.69997679255E+03  0.00000000000E+00 0.  1.
         23    2    1    2    0    0  0.69192493816E+03  0.20424620545E+03 -0.28117918782E+03  0.78199024720E+03  0.10940922518E+03 0.  0.
        254    2    1    2    0    0 -0.69192493816E+03 -0.20424620545E+03  0.18136531015E+04  0.21504372516E+04  0.90253319494E+03 0.  0.
         23    2    4    4    0    0 -0.80947386213E+03  0.96174290757E+02  0.12705580819E+04  0.15122401991E+04  0.89750501891E+02 0.  0.
         23    2    4    4    0    0  0.11754892397E+03 -0.30042049620E+03  0.54309501967E+03  0.63819705256E+03  0.90956327109E+02 0.  0.
         11    1    3    3    0    0  0.48543941799E+03  0.11395827609E+03 -0.14763900939E+03  0.52003383959E+03  0.00000000000E+00 0. -1.
        -11    1    3    3    0    0  0.20648552017E+03  0.90287929358E+02 -0.13354017843E+03  0.26195640760E+03  0.00000000000E+00 0.  1.
          3    1    6    6  502    0  0.99481750348E+02 -0.30055763172E+03  0.52107170362E+03  0.60971077483E+03  0.00000000000E+00 0. -1.
          3    1    5    5  503    0 -0.78142162894E+03  0.93840414644E+02  0.11883166948E+04  0.14253148258E+04  0.00000000000E+00 0. -1.
         -3    1    5    5    0  503 -0.28052233190E+02  0.23338761129E+01  0.82241387066E+02  0.86925373230E+02  0.00000000000E+00 0.  1.
         -3    1    6    6    0  502  0.18067173622E+02  0.13713551526E+00  0.22023316055E+02  0.28486277730E+02  0.00000000000E+00 0.  1.
<mgrwt>
<rscale>  0 0.25001309E+04</rscale>
<asrwt>0</asrwt>
<pdfrwt beam="1">  1        2 0.34345395E+00 0.25001309E+04</pdfrwt>
<pdfrwt beam="2">  1       -2 0.10768874E+00 0.25001309E+04</pdfrwt>
<totfact> 0.30535867E+00</totfact>
</mgrwt>
</event>
<event>
12    1  0.4672461E-008  0.1179517E+04  0.7818608E-02  0.9130977E-01
         -2   -1    0    0    0  501 -0.00000000000E+00  0.00000000000E+00  0.13197546145E+04  0.13197546145E+04  0.00000000000E+00 0.  1.
          2   -1    0    0  501    0  0.00000000000E+00 -0.00000000000E+00 -0.26354516602E+03  0.26354516602E+03  0.00000000000E+00 0. -1.
         23    2    1    2    0    0 -0.14668941739E+03 -0.58769526293E+02  0.61297688702E+03  0.64543569268E+03  0.12599574183E+03 0.  0.
        254    2    1    2    0    0  0.14668941739E+03  0.58769526293E+02  0.44323256147E+03  0.93786408786E+03  0.81127202673E+03 0.  0.
         23    2    4    4    0    0  0.22637929946E+03 -0.22036869386E+03  0.52751579799E+03  0.62162070356E+03  0.91265730203E+02 0.  0.
         23    2    4    4    0    0 -0.79689882068E+02  0.27913822016E+03 -0.84283236515E+02  0.31624338430E+03  0.92938640508E+02 0.  0.
         13    1    3    3    0    0 -0.91605025934E+01 -0.56289454204E+02  0.10891205408E+03  0.12294003818E+03  0.00000000000E+00 0. -1.
        -13    1    3    3    0    0 -0.13752891480E+03 -0.24800720888E+01  0.50406483294E+03  0.52249565450E+03  0.00000000000E+00 0.  1.
          2    1    5    5  502    0  0.27070490129E+02 -0.41488102815E+02  0.33876610026E+02  0.60014155146E+02  0.00000000000E+00 0. -1.
          3    1    6    6  503    0  0.11412528369E+02  0.10926959906E+03 -0.48949777472E+02  0.12027539980E+03  0.00000000000E+00 0. -1.
         -2    1    5    5    0  502  0.19930880933E+03 -0.17888059105E+03  0.49363918796E+03  0.56160654842E+03  0.00000000000E+00 0.  1.
         -3    1    6    6    0  503 -0.91102410438E+02  0.16986862109E+03 -0.35333459043E+02  0.19596798450E+03  0.00000000000E+00 0.  1.
<mgrwt>
<rscale>  0 0.11795168E+04</rscale>
<asrwt>0</asrwt>
<pdfrwt beam="1">  1        2 0.40545411E-01 0.11795168E+04</pdfrwt>
<pdfrwt beam="2">  1       -2 0.20303917E+00 0.11795168E+04</pdfrwt>
<totfact> 0.15920324E+01</totfact>
</mgrwt>
</event>
<event>
12    1  0.4672461E-008  0.1455776E+04  0.7818608E-02  0.8914406E-01
          1   -1    0    0  501    0  0.00000000000E+00  0.00000000000E+00  0.13873601991E+04  0.13873601991E+04  0.00000000000E+00 0. -1.
         -1   -1    0    0    0  501 -0.00000000000E+00 -0.00000000000E+00 -0.38189159831E+03  0.38189159831E+03  0.00000000000E+00 0.  1.
         23    2    1    2    0    0 -0.12211117054E+03  0.24355037685E+03 -0.97081239343E+02  0.31636444511E+03  0.12819427079E+03 0.  0.
        254    2    1    2    0    0  0.12211117054E+03 -0.24355037685E+03  0.11025498401E+04  0.14528873523E+04  0.90611124286E+03 0.  0.
         23    2    4    4    0    0 -0.27843553274E+03 -0.27675717335E+03  0.91528876304E+03  0.10001215460E+04  0.91480643613E+02 0.  0.
         23    2    4    4    0    0  0.40054670328E+03  0.33206796506E+02  0.18726107707E+03  0.45276580626E+03  0.91595914165E+02 0.  0.
         11    1    3    3    0    0 -0.10592041349E+03  0.17655777489E+03 -0.11130462089E+02  0.20619328082E+03  0.00000000000E+00 0. -1.
        -11    1    3    3    0    0 -0.16190757056E+02  0.66992601951E+02 -0.85950777254E+02  0.11017116429E+03  0.00000000000E+00 0.  1.
          3    1    5    5  502    0 -0.99851135569E+02 -0.51256757822E+02  0.31679701864E+03  0.33609203429E+03  0.00000000000E+00 0. -1.
          3    1    6    6  503    0  0.17223308278E+03 -0.28663764780E+02  0.95754963441E+02  0.19913527874E+03  0.00000000000E+00 0. -1.
         -3    1    5    5    0  502 -0.17858439717E+03 -0.22550041553E+03  0.59849174440E+03  0.66402951172E+03  0.00000000000E+00 0.  1.
         -3    1    6    6    0  503  0.22831362050E+03  0.61870561286E+02  0.91506113633E+02  0.25363052752E+03  0.00000000000E+00 0.  1.
<mgrwt>
<rscale>  0 0.14557764E+04</rscale>
<asrwt>0</asrwt>
<pdfrwt beam="1">  1        1 0.21344003E+00 0.14557764E+04</pdfrwt>
<pdfrwt beam="2">  1       -1 0.58752554E-01 0.14557764E+04</pdfrwt>
<totfact> 0.22349895E+01</totfact>
</mgrwt>
</event>
<event>
12    1  0.4672461E-008  0.1771101E+04  0.7818608E-02  0.8721820E-01
          1   -1    0    0  501    0  0.00000000000E+00  0.00000000000E+00  0.13610925868E+04  0.13610925868E+04  0.00000000000E+00 0. -1.
         -1   -1    0    0    0  501 -0.00000000000E+00 -0.00000000000E+00 -0.57615467839E+03  0.57615467839E+03  0.00000000000E+00 0.  1.
         23    2    1    2    0    0  0.53173330329E+03  0.28786074154E+02  0.67325410956E+03  0.86315740413E+03  0.90557519697E+02 0.  0.
        254    2    1    2    0    0 -0.53173330329E+03 -0.28786074154E+02  0.11168379886E+03  0.10740898611E+04  0.92608142991E+03 0.  0.
         23    2    4    4    0    0  0.24416816207E+03  0.58090944889E+02  0.10271412015E+03  0.28774366177E+03  0.96195504897E+02 0.  0.
         23    2    4    4    0    0 -0.77590146536E+03 -0.86877019043E+02  0.89696787082E+01  0.78634619930E+03  0.93215822895E+02 0.  0.
         11    1    3    3    0    0  0.36590850677E+03  0.45066169956E+02  0.40783304356E+03  0.54977066712E+03  0.00000000000E+00 0.  1.
        -11    1    3    3    0    0  0.16582479652E+03 -0.16280095802E+02  0.26542106600E+03  0.31338673702E+03  0.00000000000E+00 0. -1.
          2    1    6    6  502    0 -0.41815389421E+03 -0.59382498666E+02 -0.39904386491E+02  0.42423026819E+03  0.00000000000E+00 0. -1.
          2    1    5    5  503    0  0.19013826168E+03  0.84997989806E+02  0.75516610918E+02  0.22154000846E+03  0.00000000000E+00 0.  1.
         -2    1    5    5    0  503  0.54029900389E+02 -0.26907044917E+02  0.27197509233E+02  0.66203653303E+02  0.00000000000E+00 0. -1.
         -2    1    6    6    0  502 -0.35774757115E+03 -0.27494520378E+02  0.48874065199E+02  0.36211593111E+03  0.00000000000E+00 0.  1.
<mgrwt>
<rscale>  0 0.17711012E+04</rscale>
<asrwt>0</asrwt>
<pdfrwt beam="1">  1        1 0.20939886E+00 0.17711012E+04</pdfrwt>
<pdfrwt beam="2">  1       -1 0.88639182E-01 0.17711012E+04</pdfrwt>
<totfact> 0.96709759E+00</totfact>
</mgrwt>
</event>
<event>
12    1  0.4672461E-008  0.1404564E+04  0.7818608E-02  0.8950521E-01
          2   -1    0    0  501    0  0.00000000000E+00  0.00000000000E+00  0.25180379935E+04  0.25180379935E+04  0.00000000000E+00 0. -1.
         -2   -1    0    0    0  501 -0.00000000000E+00 -0.00000000000E+00 -0.19586685297E+03  0.19586685297E+03  0.00000000000E+00 0.  1.
         23    2    1    2    0    0  0.13960156398E+03  0.72976054557E+02  0.14659265892E+04  0.14771268585E+04  0.90271201104E+02 0.  0.
        254    2    1    2    0    0 -0.13960156398E+03 -0.72976054557E+02  0.85624455128E+03  0.12367779880E+04  0.87843665611E+03 0.  0.
         23    2    4    4    0    0  0.26108579297E+03  0.21628187796E+03  0.18283444512E+03  0.39640716060E+03  0.93629913096E+02 0.  0.
         23    2    4    4    0    0 -0.40068735695E+03 -0.28925793252E+03  0.67341010616E+03  0.84037082740E+03  0.92311683562E+02 0.  0.
         11    1    3    3    0    0  0.17700165244E+02  0.15209985206E+01  0.35096141871E+02  0.39336350369E+02  0.00000000000E+00 0.  1.
        -11    1    3    3    0    0  0.12190139873E+03  0.71455056037E+02  0.14308304474E+04  0.14377905081E+04  0.00000000000E+00 0. -1.
          4    1    5    5  502    0  0.15942930044E+03  0.13368427230E+03  0.59267759799E+02  0.21633736120E+03  0.00000000000E+00 0. -1.
          1    1    6    6  503    0 -0.35889424935E+03 -0.23312071609E+03  0.61479320870E+03  0.74908012919E+03  0.00000000000E+00 0. -1.
         -4    1    5    5    0  502  0.10165649253E+03  0.82597605659E+02  0.12356668532E+03  0.18006979940E+03  0.00000000000E+00 0.  1.
         -1    1    6    6    0  503 -0.41793107596E+02 -0.56137216435E+02  0.58616897464E+02  0.91290698211E+02  0.00000000000E+00 0.  1.
<mgrwt>
<rscale>  0 0.14045642E+04</rscale>
<asrwt>0</asrwt>
<pdfrwt beam="1">  1        2 0.38739044E+00 0.14045642E+04</pdfrwt>
<pdfrwt beam="2">  1       -2 0.30133364E-01 0.14045642E+04</pdfrwt>
<totfact> 0.33752627E+01</totfact>
</mgrwt>
</event>
<event>
12    1  0.4672461E-008  0.2832404E+04  0.7818608E-02  0.8293278E-01
         -2   -1    0    0    0  501 -0.00000000000E+00  0.00000000000E+00  0.21599425950E+04  0.21599425950E+04  0.00000000000E+00 0.  1.
          2   -1    0    0  501    0  0.00000000000E+00 -0.00000000000E+00 -0.92855638762E+03  0.92855638762E+03  0.00000000000E+00 0. -1.
         23    2    1    2    0    0  0.10310035237E+03  0.44484083381E+03 -0.74024236305E+03  0.87443442983E+03  0.90353560773E+02 0.  0.
        254    2    1    2    0    0 -0.10310035237E+03 -0.44484083381E+03  0.19716285704E+04  0.22140645528E+04  0.89791401261E+03 0.  0.
         23    2    4    4    0    0 -0.29949642592E+03 -0.41801052825E+02  0.15796040960E+04  0.16110630358E+04  0.94496392253E+02 0.  0.
         23    2    4    4    0    0  0.19639607355E+03 -0.40303978098E+03  0.39202447445E+03  0.60300151697E+03  0.94420115129E+02 0.  0.
         11    1    3    3    0    0  0.73907624430E+02  0.41911263650E+03 -0.66101433519E+03  0.78616645206E+03  0.00000000000E+00 0. -1.
        -11    1    3    3    0    0  0.29192727942E+02  0.25728197310E+02 -0.79228027861E+02  0.88267977773E+02  0.00000000000E+00 0.  1.
          3    1    6    6  502    0  0.19982781619E+03 -0.35433161570E+03  0.36814481190E+03  0.54864619978E+03  0.00000000000E+00 0. -1.
          3    1    5    5  503    0 -0.20219565488E+03 -0.56199435917E+02  0.88573862533E+03  0.91026060655E+03  0.00000000000E+00 0. -1.
         -3    1    5    5    0  503 -0.97300771044E+02  0.14398383092E+02  0.69386547064E+03  0.70080242924E+03  0.00000000000E+00 0.  1.
         -3    1    6    6    0  502 -0.34317426436E+01 -0.48708165284E+02  0.23879662546E+02  0.54355317185E+02  0.00000000000E+00 0.  1.
<mgrwt>
<rscale>  0 0.28324043E+04</rscale>
<asrwt>0</asrwt>
<pdfrwt beam="1">  1        2 0.14285483E+00 0.28324043E+04</pdfrwt>
<pdfrwt beam="2">  1       -2 0.33229886E+00 0.28324043E+04</pdfrwt>
<totfact> 0.48900182E-01</totfact>
</mgrwt>
</event>
<event>
12    1  0.4672461E-008  0.1259115E+04  0.7818608E-02  0.9062630E-01
          1   -1    0    0  501    0  0.00000000000E+00  0.00000000000E+00  0.20518116478E+04  0.20518116478E+04  0.00000000000E+00 0. -1.
         -1   -1    0    0    0  501 -0.00000000000E+00 -0.00000000000E+00 -0.19316728846E+03  0.19316728846E+03  0.00000000000E+00 0.  1.
         23    2    1    2    0    0  0.56369229351E+02 -0.26288888431E+03  0.25784413310E+03  0.38417726968E+03  0.93917634418E+02 0.  0.
        254    2    1    2    0    0 -0.56369229351E+02  0.26288888431E+03  0.16008002263E+04  0.18608016666E+04  0.90979856151E+03 0.  0.
         23    2    4    4    0    0 -0.21162863608E+03 -0.22678781546E+03  0.24053955818E+03  0.40383871658E+03  0.94905411369E+02 0.  0.
         23    2    4    4    0    0  0.15525940673E+03  0.48967669977E+03  0.13602606681E+04  0.14569629500E+04  0.92429426898E+02 0.  0.
         11    1    3    3    0    0  0.45061483366E+01 -0.21017960164E+03  0.20161693099E+03  0.29128192045E+03  0.00000000000E+00 0.  1.
        -11    1    3    3    0    0  0.51863081015E+02 -0.52709282666E+02  0.56227202109E+02  0.92895349229E+02  0.00000000000E+00 0. -1.
          2    1    5    5  502    0 -0.19301528427E+03 -0.23214960785E+03  0.21032010981E+03  0.36794413839E+03  0.00000000000E+00 0. -1.
          3    1    6    6  503    0  0.44490089128E+02  0.58286009709E+02  0.25516135293E+03  0.26548812212E+03  0.00000000000E+00 0.  1.
         -2    1    5    5    0  502 -0.18613351816E+02  0.53617923903E+01  0.30219448373E+02  0.35894578190E+02  0.00000000000E+00 0.  1.
         -3    1    6    6    0  503  0.11076931760E+03  0.43139069006E+03  0.11050993151E+04  0.11914748279E+04  0.00000000000E+00 0. -1.
<mgrwt>
<rscale>  0 0.12591154E+04</rscale>
<asrwt>0</asrwt>
<pdfrwt beam="1">  1        1 0.31566332E+00 0.12591154E+04</pdfrwt>
<pdfrwt beam="2">  1       -1 0.29718046E-01 0.12591154E+04</pdfrwt>
<totfact> 0.28146718E+01</totfact>
</mgrwt>
</event>
<event>
12    1  0.4672461E-008  0.1717426E+04  0.7818608E-02  0.8751487E-01
         -1   -1    0    0    0  501 -0.00000000000E+00  0.00000000000E+00  0.43256889847E+03  0.43256889847E+03  0.00000000000E+00 0. -1.
          1   -1    0    0  501    0  0.00000000000E+00 -0.00000000000E+00 -0.17046726315E+04  0.17046726315E+04  0.00000000000E+00 0.  1.
         23    2    1    2    0    0 -0.28859120332E+03 -0.38238187785E+03 -0.95628178667E+03  0.10730365236E+04  0.86207553764E+02 0.  0.
        254    2    1    2    0    0  0.28859120332E+03  0.38238187785E+03 -0.31582194636E+03  0.10642050064E+04  0.89626336009E+03 0.  0.
         23    2    4    4    0    0  0.41522238233E+03  0.18639437147E+03 -0.55044451787E+03  0.72138007600E+03  0.10123022415E+03 0.  0.
         23    2    4    4    0    0 -0.12663117902E+03  0.19598750638E+03  0.23462257152E+03  0.34282493037E+03  0.89636062282E+02 0.  0.
         13    1    3    3    0    0 -0.14107338081E+03 -0.11991370508E+03 -0.34024046367E+03  0.38735586810E+03  0.00000000000E+00 0. -1.
        -13    1    3    3    0    0 -0.14751782251E+03 -0.26246817278E+03 -0.61604132300E+03  0.68568065550E+03  0.00000000000E+00 0.  1.
          1    1    5    5  502    0  0.20677544228E+03  0.48678766465E+02 -0.30033951587E+03  0.36787162248E+03  0.00000000000E+00 0. -1.
          3    1    6    6  503    0 -0.24307499104E+02  0.65143195955E+02  0.21826576885E+02  0.72875852999E+02  0.00000000000E+00 0. -1.
         -1    1    5    5    0  502  0.20844694005E+03  0.13771560501E+03 -0.25010500201E+03  0.35350845352E+03  0.00000000000E+00 0.  1.
         -3    1    6    6    0  503 -0.10232367991E+03  0.13084431043E+03  0.21279599463E+03  0.26994907737E+03  0.00000000000E+00 0.  1.
<mgrwt>
<rscale>  0 0.17174264E+04</rscale>
<asrwt>0</asrwt>
<pdfrwt beam="1">  1        1 0.26225733E+00 0.17174264E+04</pdfrwt>
<pdfrwt beam="2">  1       -1 0.66549062E-01 0.17174264E+04</pdfrwt>
<totfact> 0.10285136E+01</totfact>
</mgrwt>
</event>
<event>
12    1  0.4672461E-008  0.1388102E+04  0.7818608E-02  0.8962476E-01
          2   -1    0    0  501    0  0.00000000000E+00  0.00000000000E+00  0.15119295983E+04  0.15119295983E+04  0.00000000000E+00 0. -1.
         -2   -1    0    0    0  501 -0.00000000000E+00 -0.00000000000E+00 -0.31860384396E+03  0.31860384396E+03  0.00000000000E+00 0.  1.
         23    2    1    2    0    0  0.12300391028E+03 -0.39936218701E+02  0.84263807827E+03  0.85766067196E+03  0.93904386298E+02 0.  0.
        254    2    1    2    0    0 -0.12300391028E+03  0.39936218701E+02  0.35068767610E+03  0.97287277032E+03  0.89820638918E+03 0.  0.
         23    2    4    4    0    0  0.57346261113E+02 -0.18186447409E+03  0.56589902982E+03  0.60359679620E+03  0.87886858100E+02 0.  0.
         23    2    4    4    0    0 -0.18035017139E+03  0.22180069279E+03 -0.21521135373E+03  0.36927597413E+03  0.91252872020E+02 0.  0.
         13    1    3    3    0    0  0.19403553240E+02 -0.11738997865E+02  0.28255975789E+02  0.36231231238E+02  0.00000000000E+00 0.  1.
        -13    1    3    3    0    0  0.10360035704E+03 -0.28197220836E+02  0.81438210248E+03  0.82142944072E+03  0.00000000000E+00 0. -1.
          2    1    6    6  502    0 -0.43719582855E+02  0.75140252309E+01 -0.46315372704E+02  0.64132489808E+02  0.00000000000E+00 0. -1.
          2    1    5    5  503    0 -0.44730338215E+01  0.66968355778E+01  0.53725279091E+02  0.54325511978E+02  0.00000000000E+00 0. -1.
         -2    1    5    5    0  503  0.61819294934E+02 -0.18856130966E+03  0.51217375073E+03  0.54927128422E+03  0.00000000000E+00 0.  1.
         -2    1    6    6    0  502 -0.13663058853E+03  0.21428666756E+03 -0.16889598102E+03  0.30514348432E+03  0.00000000000E+00 0.  1.
<mgrwt>
<rscale>  0 0.13881017E+04</rscale>
<asrwt>0</asrwt>
<pdfrwt beam="1">  1        2 0.23260455E+00 0.13881017E+04</pdfrwt>
<pdfrwt beam="2">  1       -2 0.49015977E-01 0.13881017E+04</pdfrwt>
<totfact> 0.47968189E+01</totfact>
</mgrwt>
</event>
<event>
12    1  0.4672461E-008  0.1467561E+04  0.7818608E-02  0.8906316E-01
          2   -1    0    0  501    0  0.00000000000E+00  0.00000000000E+00  0.17919355944E+04  0.17919355944E+04  0.00000000000E+00 0. -1.
         -2   -1    0    0    0  501 -0.00000000000E+00 -0.00000000000E+00 -0.30047621473E+03  0.30047621473E+03  0.00000000000E+00 0.  1.
         23    2    1    2    0    0 -0.13542988469E+03  0.14286426771E+01  0.10609969566E+04  0.10732817150E+04  0.88745722510E+02 0.  0.
        254    2    1    2    0    0  0.13542988469E+03 -0.14286426771E+01  0.43046242314E+03  0.10191300942E+04  0.91377511259E+03 0.  0.
         23    2    4    4    0    0 -0.25226471679E+02 -0.43818842370E+03  0.18141502183E+03  0.48347125683E+03  0.90485228104E+02 0.  0.
         23    2    4    4    0    0  0.16065635637E+03  0.43675978102E+03  0.24904740131E+03  0.53565883732E+03  0.91302851764E+02 0.  0.
         13    1    3    3    0    0 -0.14789989670E+03 -0.14610074131E+01  0.93364188564E+03  0.94528497534E+03  0.00000000000E+00 0. -1.
        -13    1    3    3    0    0  0.12470012011E+02  0.28896500902E+01  0.12735507092E+03  0.12799673967E+03  0.00000000000E+00 0.  1.
          4    1    5    5  502    0 -0.45213110106E+02 -0.39632028346E+03  0.17843461588E+03  0.43698158377E+03  0.00000000000E+00 0. -1.
          1    1    6    6  503    0  0.15604368557E+03  0.44109116879E+03  0.24495331190E+03  0.52812231160E+03  0.00000000000E+00 0. -1.
         -4    1    5    5    0  502  0.19986638427E+02 -0.41868140232E+02  0.29804059542E+01  0.46489673065E+02  0.00000000000E+00 0.  1.
         -1    1    6    6    0  503  0.46126707907E+01 -0.43313877730E+01  0.40940894058E+01  0.75365257199E+01  0.00000000000E+00 0.  1.
<mgrwt>
<rscale>  0 0.14675613E+04</rscale>
<asrwt>0</asrwt>
<pdfrwt beam="1">  1        2 0.27568239E+00 0.14675613E+04</pdfrwt>
<pdfrwt beam="2">  1       -2 0.46227111E-01 0.14675613E+04</pdfrwt>
<totfact> 0.37463716E+01</totfact>
</mgrwt>
</event>
<event>
12    1  0.4672461E-008  0.1761627E+04  0.7818608E-02  0.8726976E-01
          1   -1    0    0  501    0  0.00000000000E+00  0.00000000000E+00  0.42233000310E+03  0.42233000310E+03  0.00000000000E+00 0. -1.
         -1   -1    0    0    0  501 -0.00000000000E+00 -0.00000000000E+00 -0.18370289296E+04  0.18370289296E+04  0.00000000000E+00 0.  1.
         23    2    1    2    0    0  0.32387097906E+03  0.59067726101E+03 -0.59085212902E+03  0.90070465684E+03  0.91490998103E+02 0.  0.
        254    2    1    2    0    0 -0.32387097906E+03 -0.59067726101E+03 -0.82384679749E+03  0.13586542759E+04  0.84464540362E+03 0.  0.
         23    2    4    4    0    0  0.19295668053E+03 -0.29918375836E+03 -0.37722662416E+02  0.36951979472E+03  0.91535116764E+02 0.  0.
         23    2    4    4    0    0 -0.51682765958E+03 -0.29149350265E+03 -0.78612413507E+03  0.98913448115E+03  0.91195253510E+02 0.  0.
         13    1    3    3    0    0  0.30099768359E+02  0.29081627143E+02 -0.15250798777E+02  0.44545751266E+02  0.00000000000E+00 0.  1.
        -13    1    3    3    0    0  0.29377121070E+03  0.56159563387E+03 -0.57560133024E+03  0.85615890557E+03  0.00000000000E+00 0. -1.
          4    1    5    5  502    0  0.22186209442E+02 -0.64909258059E+02 -0.40379904545E+02  0.79598846488E+02  0.00000000000E+00 0. -1.
          3    1    6    6  503    0 -0.17714111893E+02  0.60731373548E+01 -0.17988619233E+02  0.25966578122E+02  0.00000000000E+00 0. -1.
         -4    1    5    5    0  502  0.17077047108E+03 -0.23427450030E+03  0.26572421289E+01  0.28992094823E+03  0.00000000000E+00 0.  1.
         -3    1    6    6    0  503 -0.49911354769E+03 -0.29756664001E+03 -0.76813551584E+03  0.96316790303E+03  0.00000000000E+00 0.  1.
<mgrwt>
<rscale>  0 0.17616270E+04</rscale>
<asrwt>0</asrwt>
<pdfrwt beam="1">  1        1 0.64973846E-01 0.17616270E+04</pdfrwt>
<pdfrwt beam="2">  1       -1 0.28261984E+00 0.17616270E+04</pdfrwt>
<totfact> 0.22623331E+00</totfact>
</mgrwt>
</event>
<event>
12    1  0.4672461E-008  0.1498708E+04  0.7818608E-02  0.8885313E-01
          2   -1    0    0  501    0  0.00000000000E+00  0.00000000000E+00  0.29147996661E+04  0.29147996661E+04  0.00000000000E+00 0.  1.
         -2   -1    0    0    0  501 -0.00000000000E+00 -0.00000000000E+00 -0.19264837963E+03  0.19264837963E+03  0.00000000000E+00 0. -1.
         23    2    1    2    0    0 -0.44147463268E+02  0.12346110206E+03  0.18259737515E+04  0.18329445530E+04  0.91180871204E+02 0.  0.
        254    2    1    2    0    0  0.44147463268E+02 -0.12346110206E+03  0.89617753504E+03  0.12745034927E+04  0.89667905988E+03 0.  0.
         23    2    4    4    0    0  0.84718331190E+02  0.36242930739E+03  0.55008978377E+03  0.66954573975E+03  0.84619908489E+02 0.  0.
         23    2    4    4    0    0 -0.40570867922E+02 -0.48589040945E+03  0.34608775127E+03  0.60495775297E+03  0.91987314268E+02 0.  0.
         13    1    3    3    0    0 -0.58918743607E+02  0.10108128807E+03  0.17061549129E+04  0.17101618145E+04  0.00000000000E+00 0.  1.
        -13    1    3    3    0    0  0.14771280338E+02  0.22379813990E+02  0.11981883858E+03  0.12278273851E+03  0.00000000000E+00 0. -1.
          1    1    5    5  502    0  0.10216955075E+03  0.31524029707E+03  0.47703365300E+03  0.58084091462E+03  0.00000000000E+00 0.  1.
          3    1    6    6  503    0 -0.27555927580E+02 -0.15566431488E+03  0.64339726366E+02  0.17067603365E+03  0.00000000000E+00 0. -1.
         -1    1    5    5    0  502 -0.17451219555E+02  0.47189010325E+02  0.73056130769E+02  0.88704825135E+02  0.00000000000E+00 0. -1.
         -3    1    6    6    0  503 -0.13014940342E+02 -0.33022609457E+03  0.28174802490E+03  0.43428171933E+03  0.00000000000E+00 0.  1.
<mgrwt>
<rscale>  0 0.14987080E+04</rscale>
<asrwt>0</asrwt>
<pdfrwt beam="1">  1        2 0.44843069E+00 0.14987080E+04</pdfrwt>
<pdfrwt beam="2">  1       -2 0.29638214E-01 0.14987080E+04</pdfrwt>
<totfact> 0.20068396E+01</totfact>
</mgrwt>
</event>
<event>
12    1  0.4672461E-008  0.1806926E+04  0.7818608E-02  0.8702625E-01
          1   -1    0    0  501    0  0.00000000000E+00  0.00000000000E+00  0.25713132659E+04  0.25713132659E+04  0.00000000000E+00 0.  1.
         -1   -1    0    0    0  501 -0.00000000000E+00 -0.00000000000E+00 -0.31744302859E+03  0.31744302859E+03  0.00000000000E+00 0. -1.
         23    2    1    2    0    0  0.65085520688E+02  0.12586979756E+03  0.19009464373E+04  0.19083602001E+04  0.90343593191E+02 0.  0.
        254    2    1    2    0    0 -0.65085520688E+02 -0.12586979756E+03  0.35292380007E+03  0.98039609447E+03  0.90362711472E+03 0.  0.
         23    2    4    4    0    0 -0.23422513682E+03  0.31148478191E+03  0.28820072793E+02  0.40326017768E+03  0.99518793324E+02 0.  0.
         23    2    4    4    0    0  0.16913961613E+03 -0.43735457947E+03  0.32410372727E+03  0.57713591679E+03  0.90307267116E+02 0.  0.
         11    1    3    3    0    0 -0.41436702625E+01  0.57843476733E+02  0.11045414818E+04  0.11060628024E+04  0.00000000000E+00 0. -1.
        -11    1    3    3    0    0  0.69229190951E+02  0.68026320824E+02  0.79640495548E+03  0.80229739768E+03  0.00000000000E+00 0.  1.
          1    1    5    5  502    0 -0.77062368134E+02  0.77301163967E+02  0.50757695549E+02  0.12037616953E+03  0.00000000000E+00 0. -1.
          3    1    6    6  503    0  0.10193987637E+03 -0.26940369847E+03  0.14463912512E+03  0.32232059764E+03  0.00000000000E+00 0. -1.
         -1    1    5    5    0  502 -0.15716276869E+03  0.23418361794E+03 -0.21937622756E+02  0.28288400815E+03  0.00000000000E+00 0.  1.
         -3    1    6    6    0  503  0.67199739767E+02 -0.16795088099E+03  0.17946460215E+03  0.25481531915E+03  0.00000000000E+00 0.  1.
<mgrwt>
<rscale>  0 0.18069261E+04</rscale>
<asrwt>0</asrwt>
<pdfrwt beam="1">  1        1 0.39558664E+00 0.18069261E+04</pdfrwt>
<pdfrwt beam="2">  1       -1 0.48837391E-01 0.18069261E+04</pdfrwt>
<totfact> 0.47896346E+00</totfact>
</mgrwt>
</event>
<event>
12    1  0.4672461E-008  0.2417545E+04  0.7818608E-02  0.8432964E-01
          2   -1    0    0  501    0  0.00000000000E+00  0.00000000000E+00  0.24250540468E+04  0.24250540468E+04  0.00000000000E+00 0. -1.
         -2   -1    0    0    0  501 -0.00000000000E+00 -0.00000000000E+00 -0.60251458448E+03  0.60251458448E+03  0.00000000000E+00 0.  1.
         23    2    1    2    0    0 -0.84979325208E+02 -0.10248021389E+04  0.94244038295E+03  0.13979007460E+04  0.92150478025E+02 0.  0.
        254    2    1    2    0    0  0.84979325208E+02  0.10248021389E+04  0.88009907934E+03  0.16296678852E+04  0.90763545380E+03 0.  0.
         23    2    4    4    0    0 -0.39145163951E+03  0.59850291592E+03  0.40095787146E+03  0.82538303189E+03  0.95130479905E+02 0.  0.
         23    2    4    4    0    0  0.47643096472E+03  0.42629922302E+03  0.47914120787E+03  0.80428485333E+03  0.92630105951E+02 0.  0.
         13    1    3    3    0    0 -0.32524889799E+02 -0.44924406104E+03  0.35166897166E+03  0.57144480089E+03  0.00000000000E+00 0.  1.
        -13    1    3    3    0    0 -0.52454435408E+02 -0.57555807790E+03  0.59077141130E+03  0.82645594513E+03  0.00000000000E+00 0. -1.
          4    1    6    6  502    0  0.80703708765E+02  0.43216158258E+02  0.40142737786E+02  0.99960814022E+02  0.00000000000E+00 0. -1.
          4    1    5    5  503    0 -0.21931994430E+03  0.41790506324E+03  0.26294633292E+03  0.54026535503E+03  0.00000000000E+00 0. -1.
         -4    1    5    5    0  503 -0.17213169521E+03  0.18059785268E+03  0.13801153854E+03  0.28511767686E+03  0.00000000000E+00 0.  1.
         -4    1    6    6    0  502  0.39572725595E+03  0.38308306476E+03  0.43899847009E+03  0.70432403931E+03  0.00000000000E+00 0.  1.
<mgrwt>
<rscale>  0 0.24175446E+04</rscale>
<asrwt>0</asrwt>
<pdfrwt beam="1">  1        2 0.37308523E+00 0.24175446E+04</pdfrwt>
<pdfrwt beam="2">  1       -2 0.92694552E-01 0.24175446E+04</pdfrwt>
<totfact> 0.34079424E+00</totfact>
</mgrwt>
</event>
<event>
12    1  0.4672461E-008  0.2388415E+04  0.7818608E-02  0.8443854E-01
          2   -1    0    0  501    0  0.00000000000E+00  0.00000000000E+00  0.28875698511E+04  0.28875698511E+04  0.00000000000E+00 0. -1.
         -2   -1    0    0    0  501 -0.00000000000E+00 -0.00000000000E+00 -0.49388624089E+03  0.49388624089E+03  0.00000000000E+00 0.  1.
         23    2    1    2    0    0  0.27465083037E+02 -0.45403863733E+03  0.23358292189E+04  0.23815125107E+04  0.92726931490E+02 0.  0.
        254    2    1    2    0    0 -0.27465083037E+02  0.45403863733E+03  0.57854391295E+02  0.99994358126E+03  0.88861387573E+03 0.  0.
         23    2    4    4    0    0  0.13069047893E+02 -0.26104564560E+03 -0.48792105076E+00  0.27564870014E+03  0.87557630836E+02 0.  0.
         23    2    4    4    0    0 -0.40534130929E+02  0.71508428294E+03  0.58342312346E+02  0.72429488113E+03  0.90612923715E+02 0.  0.
         11    1    3    3    0    0 -0.19954509029E+02 -0.14229010122E+03  0.90614997168E+03  0.91747066793E+03  0.00000000000E+00 0.  1.
        -11    1    3    3    0    0  0.47419592066E+02 -0.31174853611E+03  0.14296792472E+04  0.14640418428E+04  0.00000000000E+00 0. -1.
          3    1    5    5  502    0  0.33616795387E+02 -0.53036743028E+02 -0.19534065481E+02  0.65761423018E+02  0.00000000000E+00 0. -1.
          3    1    6    6  503    0 -0.22034041934E+02  0.16027675598E+03  0.49213894362E+02  0.16910394705E+03  0.00000000000E+00 0. -1.
         -3    1    5    5    0  502 -0.20547747495E+02 -0.20800890258E+03  0.19046144431E+02  0.20988727712E+03  0.00000000000E+00 0.  1.
         -3    1    6    6    0  503 -0.18500088995E+02  0.55480752696E+03  0.91284179836E+01  0.55519093407E+03  0.00000000000E+00 0.  1.
<mgrwt>
<rscale>  0 0.23884146E+04</rscale>
<asrwt>0</asrwt>
<pdfrwt beam="1">  1        2 0.44424151E+00 0.23884146E+04</pdfrwt>
<pdfrwt beam="2">  1       -2 0.75982500E-01 0.23884146E+04</pdfrwt>
<totfact> 0.28558985E+00</totfact>
</mgrwt>
</event>
<event>
12    1  0.4672461E-008  0.1227488E+04  0.7818608E-02  0.9089131E-01
          2   -1    0    0  501    0  0.00000000000E+00  0.00000000000E+00  0.24132329866E+03  0.24132329866E+03  0.00000000000E+00 0. -1.
         -2   -1    0    0    0  501 -0.00000000000E+00 -0.00000000000E+00 -0.15608995901E+04  0.15608995901E+04  0.00000000000E+00 0.  1.
         23    2    1    2    0    0 -0.15334073528E+03 -0.19010355346E+02 -0.65759847265E+03  0.68151584406E+03  0.90295735056E+02 0.  0.
        254    2    1    2    0    0  0.15334073528E+03  0.19010355346E+02 -0.66197781880E+03  0.11207070447E+04  0.89100778492E+03 0.  0.
         23    2    4    4    0    0  0.27488370763E+03  0.24302197052E+03 -0.74706809276E+03  0.83695547128E+03  0.88107858921E+02 0.  0.
         23    2    4    4    0    0 -0.12154297235E+03 -0.22401161517E+03  0.85090273960E+02  0.28375157344E+03  0.91217886659E+02 0.  0.
         11    1    3    3    0    0  0.47132971392E+01  0.64925860556E+01 -0.47505221640E+01  0.93239639876E+01  0.00000000000E+00 0. -1.
        -11    1    3    3    0    0 -0.15805403242E+03 -0.25502941401E+02 -0.65284795048E+03  0.67219188007E+03  0.00000000000E+00 0.  1.
          4    1    5    5  502    0  0.22467106190E+03  0.14738116728E+03 -0.55401928745E+03  0.61573993324E+03  0.00000000000E+00 0. -1.
          1    1    6    6  503    0 -0.12889040986E+03 -0.20845043888E+03  0.96182165877E+02  0.26327805122E+03  0.00000000000E+00 0. -1.
         -4    1    5    5    0  502  0.50212645734E+02  0.95640803242E+02 -0.19304880531E+03  0.22121553804E+03  0.00000000000E+00 0.  1.
         -1    1    6    6    0  503  0.73474375122E+01 -0.15561176297E+02 -0.11091891916E+02  0.20473522219E+02  0.00000000000E+00 0.  1.
<mgrwt>
<rscale>  0 0.12274876E+04</rscale>
<asrwt>0</asrwt>
<pdfrwt beam="1">  1        2 0.37126661E-01 0.12274876E+04</pdfrwt>
<pdfrwt beam="2">  1       -2 0.24013840E+00 0.12274876E+04</pdfrwt>
<totfact> 0.10213882E+01</totfact>
</mgrwt>
</event>
<event>
12    1  0.4672461E-008  0.3492932E+04  0.7818608E-02  0.8115467E-01
          1   -1    0    0  501    0  0.00000000000E+00  0.00000000000E+00  0.29122386205E+04  0.29122386205E+04  0.00000000000E+00 0. -1.
         -1   -1    0    0    0  501 -0.00000000000E+00 -0.00000000000E+00 -0.10473537478E+04  0.10473537478E+04  0.00000000000E+00 0.  1.
         23    2    1    2    0    0 -0.79485831640E+03  0.23651854415E+03 -0.71760545631E+03  0.11003112321E+04  0.89366949515E+02 0.  0.
        254    2    1    2    0    0  0.79485831640E+03 -0.23651854415E+03  0.25824903290E+04  0.28592811362E+04  0.90470522917E+03 0.  0.
         23    2    4    4    0    0  0.24072840745E+03  0.27471594087E+03  0.14295719993E+04  0.14783810284E+04  0.92278652742E+02 0.  0.
         23    2    4    4    0    0  0.55412990895E+03 -0.51123448502E+03  0.11529183297E+04  0.13809001078E+04  0.96144568490E+02 0.  0.
         11    1    3    3    0    0 -0.37135375774E+02  0.32373579448E+02 -0.46392907383E+02  0.67671165466E+02  0.00000000000E+00 0. -1.
        -11    1    3    3    0    0 -0.75772294063E+03  0.20414496470E+03 -0.67121254893E+03  0.10326400666E+04  0.00000000000E+00 0.  1.
          4    1    5    5  502    0  0.20558700898E+03  0.17599711743E+03  0.97273785438E+03  0.10096830874E+04  0.00000000000E+00 0. -1.
          1    1    6    6  503    0  0.25749661755E+02 -0.29032373130E+02  0.28191797713E+02  0.47965625487E+02  0.00000000000E+00 0. -1.
         -4    1    5    5    0  502  0.35141398477E+02  0.98718823446E+02  0.45683414489E+03  0.46869794103E+03  0.00000000000E+00 0.  1.
         -1    1    6    6    0  503  0.52838024719E+03 -0.48220211189E+03  0.11247265320E+04  0.13329344823E+04  0.00000000000E+00 0.  1.
<mgrwt>
<rscale>  0 0.34929323E+04</rscale>
<asrwt>0</asrwt>
<pdfrwt beam="1">  1        1 0.44803671E+00 0.34929323E+04</pdfrwt>
<pdfrwt beam="2">  1       -1 0.16113135E+00 0.34929323E+04</pdfrwt>
<totfact> 0.16181693E-01</totfact>
</mgrwt>
</event>
<event>
12    1  0.4672461E-008  0.1490656E+04  0.7818608E-02  0.8890691E-01
          1   -1    0    0  501    0  0.00000000000E+00  0.00000000000E+00  0.30049086840E+04  0.30049086840E+04  0.00000000000E+00 0. -1.
         -1   -1    0    0    0  501 -0.00000000000E+00 -0.00000000000E+00 -0.18486874536E+03  0.18486874536E+03  0.00000000000E+00 0.  1.
         23    2    1    2    0    0  0.31353130211E+03  0.36460691558E+02  0.16395426764E+04  0.16721189351E+04  0.90831084091E+02 0.  0.
        254    2    1    2    0    0 -0.31353130211E+03 -0.36460691558E+02  0.11804972623E+04  0.15176584943E+04  0.90004569869E+03 0.  0.
         23    2    4    4    0    0 -0.56335562331E+03 -0.21454086437E+03  0.92650102957E+03  0.11090631414E+04  0.90661750166E+02 0.  0.
         23    2    4    4    0    0  0.24982432120E+03  0.17808017281E+03  0.25399623270E+03  0.40859535295E+03  0.91166533434E+02 0.  0.
         11    1    3    3    0    0  0.17929163074E+03 -0.19951767651E+02  0.80472739758E+03  0.82469979162E+03  0.00000000000E+00 0. -1.
        -11    1    3    3    0    0  0.13423967137E+03  0.56412459209E+02  0.83481527882E+03  0.84741914344E+03  0.00000000000E+00 0.  1.
          2    1    5    5  502    0 -0.51582533819E+03 -0.16941280399E+03  0.84633921801E+03  0.10055180504E+04  0.00000000000E+00 0. -1.
          1    1    6    6  503    0  0.20995349871E+03  0.16168070916E+03  0.25161281178E+03  0.36541774777E+03  0.00000000000E+00 0. -1.
         -2    1    5    5    0  502 -0.47530285123E+02 -0.45128060380E+02  0.80161811562E+02  0.10354509100E+03  0.00000000000E+00 0.  1.
         -1    1    6    6    0  503  0.39870822487E+02  0.16399463652E+02  0.23834209198E+01  0.43177605180E+02  0.00000000000E+00 0.  1.
<mgrwt>
<rscale>  0 0.14906558E+04</rscale>
<asrwt>0</asrwt>
<pdfrwt beam="1">  1        1 0.46229361E+00 0.14906558E+04</pdfrwt>
<pdfrwt beam="2">  1       -1 0.28441347E-01 0.14906558E+04</pdfrwt>
<totfact> 0.64712577E+00</totfact>
</mgrwt>
</event>
<event>
12    1  0.4672461E-008  0.2516437E+04  0.7818608E-02  0.8397153E-01
         -2   -1    0    0    0  501 -0.00000000000E+00  0.00000000000E+00  0.20018352894E+04  0.20018352894E+04  0.00000000000E+00 0.  1.
          2   -1    0    0  501    0  0.00000000000E+00 -0.00000000000E+00 -0.79083106454E+03  0.79083106454E+03  0.00000000000E+00 0. -1.
         23    2    1    2    0    0  0.61828363220E+01  0.87905599496E+03 -0.18305009488E+03  0.90279111706E+03  0.93524296646E+02 0.  0.
        254    2    1    2    0    0 -0.61828363220E+01 -0.87905599496E+03  0.13940543198E+04  0.18898752369E+04  0.92491258769E+03 0.  0.
         23    2    4    4    0    0  0.18836419827E+03  0.12450188262E+03  0.20129820907E+03  0.31629078966E+03  0.92396453839E+02 0.  0.
         23    2    4    4    0    0 -0.19454703459E+03 -0.10035578776E+04  0.11927561107E+04  0.15735844473E+04  0.92325027402E+02 0.  0.
         11    1    3    3    0    0 -0.19073451537E+02  0.81296115067E+03 -0.17202701876E+03  0.83118164335E+03  0.00000000000E+00 0. -1.
        -11    1    3    3    0    0  0.25256287859E+02  0.66094844293E+02 -0.11023076116E+02  0.71609473714E+02  0.00000000000E+00 0.  1.
          1    1    5    5  502    0  0.71304294408E+02 -0.20877891618E+01  0.64983321245E+02  0.96496079219E+02  0.00000000000E+00 0. -1.
          3    1    6    6  503    0 -0.15219793655E+02 -0.60512341348E+02  0.11084881020E+03  0.12720394764E+03  0.00000000000E+00 0. -1.
         -1    1    5    5    0  502  0.11705990386E+03  0.12658967178E+03  0.13631488782E+03  0.21979471044E+03  0.00000000000E+00 0.  1.
         -3    1    6    6    0  503 -0.17932724093E+03 -0.94304553624E+03  0.10819073005E+04  0.14463804996E+04  0.00000000000E+00 0.  1.
<mgrwt>
<rscale>  0 0.25164368E+04</rscale>
<asrwt>0</asrwt>
<pdfrwt beam="1">  1        2 0.12166632E+00 0.25164368E+04</pdfrwt>
<pdfrwt beam="2">  1       -2 0.30797466E+00 0.25164368E+04</pdfrwt>
<totfact> 0.88490822E-01</totfact>
</mgrwt>
</event>
<event>
12    1  0.4672461E-008  0.1143907E+04  0.7818608E-02  0.9163423E-01
          2   -1    0    0  501    0  0.00000000000E+00  0.00000000000E+00  0.15884262247E+04  0.15884262247E+04  0.00000000000E+00 0. -1.
         -2   -1    0    0    0  501 -0.00000000000E+00 -0.00000000000E+00 -0.20594656158E+03  0.20594656158E+03  0.00000000000E+00 0.  1.
         23    2    1    2    0    0 -0.21732581666E+03 -0.32110032618E+02  0.28967785890E+03  0.37470209943E+03  0.90701910687E+02 0.  0.
        254    2    1    2    0    0  0.21732581666E+03  0.32110032618E+02  0.10928018042E+04  0.14196706868E+04  0.87919708313E+03 0.  0.
         23    2    4    4    0    0  0.26227620714E+03  0.34794735464E+03  0.24012766018E+03  0.50528047544E+03  0.88266048087E+02 0.  0.
         23    2    4    4    0    0 -0.44950390487E+02 -0.31583732202E+03  0.85267414402E+03  0.91439021138E+03  0.85337630615E+02 0.  0.
         13    1    3    3    0    0 -0.56556495209E+02  0.22497430414E+02  0.40259809411E+02  0.72976871537E+02  0.00000000000E+00 0.  1.
        -13    1    3    3    0    0 -0.16076932145E+03 -0.54607463032E+02  0.24941804949E+03  0.30172522790E+03  0.00000000000E+00 0. -1.
          4    1    5    5  502    0  0.14289600218E+03  0.15160508670E+03  0.15719574777E+03  0.26098634613E+03  0.00000000000E+00 0. -1.
          1    1    6    6  503    0 -0.55047370534E+02 -0.17061372991E+03  0.38731109379E+03  0.42678934055E+03  0.00000000000E+00 0. -1.
         -4    1    5    5    0  502  0.11938020496E+03  0.19634226794E+03  0.82931912408E+02  0.24429412931E+03  0.00000000000E+00 0.  1.
         -1    1    6    6    0  503  0.10096980047E+02 -0.14522359212E+03  0.46536305023E+03  0.48760087082E+03  0.00000000000E+00 0.  1.
<mgrwt>
<rscale>  0 0.11439072E+04</rscale>
<asrwt>0</asrwt>
<pdfrwt beam="1">  1        2 0.24437326E+00 0.11439072E+04</pdfrwt>
<pdfrwt beam="2">  1       -2 0.31684087E-01 0.11439072E+04</pdfrwt>
<totfact> 0.10369739E+02</totfact>
</mgrwt>
</event>
<event>
12    1  0.4672461E-008  0.1892882E+04  0.7818608E-02  0.8658408E-01
         -2   -1    0    0    0  501 -0.00000000000E+00  0.00000000000E+00  0.75647929450E+03  0.75647929450E+03  0.00000000000E+00 0. -1.
          2   -1    0    0  501    0  0.00000000000E+00 -0.00000000000E+00 -0.11841042404E+04  0.11841042404E+04  0.00000000000E+00 0.  1.
         23    2    1    2    0    0  0.50229901108E+03 -0.47458810392E+03  0.62612913739E+02  0.69974034567E+03  0.90432347489E+02 0.  0.
        254    2    1    2    0    0 -0.50229901108E+03  0.47458810392E+03 -0.49023785966E+03  0.12408431892E+04  0.90654315746E+03 0.  0.
         23    2    4    4    0    0 -0.33943090255E+03 -0.21784367243E+03 -0.10510460493E+03  0.42642211008E+03  0.90109016030E+02 0.  0.
         23    2    4    4    0    0 -0.16286810853E+03  0.69243177635E+03 -0.38513325473E+03  0.81442107916E+03  0.94690467306E+02 0.  0.
         13    1    3    3    0    0  0.43817312978E+03 -0.39278425438E+03  0.24271042572E+02  0.58895181947E+03  0.00000000000E+00 0. -1.
        -13    1    3    3    0    0  0.64125881298E+02 -0.81803849541E+02  0.38341871167E+02  0.11078852620E+03  0.00000000000E+00 0.  1.
          2    1    5    5  502    0 -0.19209052138E+03 -0.14288538498E+03 -0.10422311350E+03  0.26110813667E+03  0.00000000000E+00 0. -1.
          4    1    6    6  503    0 -0.14944408160E+03  0.68002275132E+03 -0.36138353484E+03  0.78445046695E+03  0.00000000000E+00 0. -1.
         -2    1    5    5    0  502 -0.14734038117E+03 -0.74958287447E+02 -0.88149142289E+00  0.16531397342E+03  0.00000000000E+00 0.  1.
         -4    1    6    6    0  503 -0.13424026936E+02  0.12409025027E+02 -0.23749719890E+02  0.29970612208E+02  0.00000000000E+00 0.  1.
<mgrwt>
<rscale>  0 0.18928818E+04</rscale>
<asrwt>0</asrwt>
<pdfrwt beam="1">  1        2 0.18216988E+00 0.18928818E+04</pdfrwt>
<pdfrwt beam="2">  1       -2 0.11638143E+00 0.18928818E+04</pdfrwt>
<totfact> 0.10391918E+01</totfact>
</mgrwt>
</event>
<event>
12    1  0.4672461E-008  0.1314253E+04  0.7818608E-02  0.9018338E-01
         -2   -1    0    0    0  501 -0.00000000000E+00  0.00000000000E+00  0.18996328345E+03  0.18996328345E+03  0.00000000000E+00 0.  1.
          2   -1    0    0  501    0  0.00000000000E+00 -0.00000000000E+00 -0.22731498157E+04  0.22731498157E+04  0.00000000000E+00 0. -1.
         23    2    1    2    0    0  0.33996894014E+02  0.60969751107E+02 -0.11934564566E+04  0.11989689711E+04  0.91187611369E+02 0.  0.
        254    2    1    2    0    0 -0.33996894014E+02 -0.60969751107E+02 -0.88973007565E+03  0.12641441281E+04  0.89530311607E+03 0.  0.
         23    2    4    4    0    0  0.11932970938E+03 -0.27584584272E+03  0.17779980567E+02  0.31493724393E+03  0.92405797561E+02 0.  0.
         23    2    4    4    0    0 -0.15332660339E+03  0.21487609161E+03 -0.90751005621E+03  0.94920688412E+03  0.87968316377E+02 0.  0.
         13    1    3    3    0    0  0.56101635277E+02  0.64898371452E+02 -0.73977322231E+03  0.74473056372E+03  0.00000000000E+00 0. -1.
        -13    1    3    3    0    0 -0.22104741263E+02 -0.39286203454E+01 -0.45368323433E+03  0.45423840740E+03  0.00000000000E+00 0.  1.
          3    1    5    5  502    0  0.94150613815E+02 -0.23783654931E+03 -0.18800032088E+02  0.25648392440E+03  0.00000000000E+00 0. -1.
          3    1    6    6  503    0 -0.11273863749E+03  0.20432153434E+03 -0.81259743156E+03  0.84544182269E+03  0.00000000000E+00 0. -1.
         -3    1    5    5    0  502  0.25179095564E+02 -0.38009293410E+02  0.36580012655E+02  0.58453319535E+02  0.00000000000E+00 0.  1.
         -3    1    6    6    0  503 -0.40587965906E+02  0.10554557270E+02 -0.94912624652E+02  0.10376506143E+03  0.00000000000E+00 0.  1.
<mgrwt>
<rscale>  0 0.13142526E+04</rscale>
<asrwt>0</asrwt>
<pdfrwt beam="1">  1        2 0.34971538E+00 0.13142526E+04</pdfrwt>
<pdfrwt beam="2">  1       -2 0.29225118E-01 0.13142526E+04</pdfrwt>
<totfact> 0.49631864E+01</totfact>
</mgrwt>
</event>
<event>
12    1  0.4672461E-008  0.2656709E+04  0.7818608E-02  0.8349190E-01
          2   -1    0    0  501    0  0.00000000000E+00  0.00000000000E+00  0.10262749210E+04  0.10262749210E+04  0.00000000000E+00 0. -1.
         -2   -1    0    0    0  501 -0.00000000000E+00 -0.00000000000E+00 -0.17193496786E+04  0.17193496786E+04  0.00000000000E+00 0.  1.
         23    2    1    2    0    0 -0.10178692754E+04 -0.22445181992E+03 -0.85445700476E+03  0.13508433925E+04  0.90799872041E+02 0.  0.
        254    2    1    2    0    0  0.10178692754E+04  0.22445181992E+03  0.16138224711E+03  0.13947812071E+04  0.91265212684E+03 0.  0.
         23    2    4    4    0    0  0.12857972979E+03 -0.30718114680E+03  0.14648897948E+02  0.34435449811E+03  0.86443196903E+02 0.  0.
         23    2    4    4    0    0  0.88928954561E+03  0.53163296672E+03  0.14673334916E+03  0.10504267090E+04  0.91630169177E+02 0.  0.
         13    1    3    3    0    0 -0.24219669458E+03 -0.71324858399E+02 -0.16324952258E+03  0.30066074056E+03  0.00000000000E+00 0. -1.
        -13    1    3    3    0    0 -0.77567258083E+03 -0.15312696152E+03 -0.69120748218E+03  0.10501826519E+04  0.00000000000E+00 0.  1.
          1    1    6    6  502    0  0.25439618685E+03  0.17309655762E+03  0.81905556214E+02  0.31841538638E+03  0.00000000000E+00 0. -1.
          1    1    5    5  503    0 -0.11987788532E+02 -0.31541969704E+02  0.88630214584E+01  0.34887763988E+02  0.00000000000E+00 0. -1.
         -1    1    5    5    0  503  0.14056751833E+03 -0.27563917710E+03  0.57858764900E+01  0.30946673412E+03  0.00000000000E+00 0.  1.
         -1    1    6    6    0  502  0.63489335876E+03  0.35853640910E+03  0.64827792945E+02  0.73201132258E+03  0.00000000000E+00 0.  1.
<mgrwt>
<rscale>  0 0.26567088E+04</rscale>
<asrwt>0</asrwt>
<pdfrwt beam="1">  1        2 0.15788845E+00 0.26567088E+04</pdfrwt>
<pdfrwt beam="2">  1       -2 0.26451533E+00 0.26567088E+04</pdfrwt>
<totfact> 0.11169303E+00</totfact>
</mgrwt>
</event>
<event>
12    1  0.4672461E-008  0.1428665E+04  0.7818608E-02  0.8933327E-01
         -3   -1    0    0    0  501 -0.00000000000E+00  0.00000000000E+00  0.47757240158E+03  0.47757240158E+03  0.00000000000E+00 0.  1.
          3   -1    0    0  501    0  0.00000000000E+00 -0.00000000000E+00 -0.10684684697E+04  0.10684684697E+04  0.00000000000E+00 0. -1.
         23    2    1    2    0    0  0.53012448114E+02  0.21577987305E+03 -0.57020185130E+03  0.61902295539E+03  0.93209413688E+02 0.  0.
        254    2    1    2    0    0 -0.53012448114E+02 -0.21577987305E+03 -0.20694216798E+02  0.92701791588E+03  0.89975701858E+03 0.  0.
         23    2    4    4    0    0 -0.11804903882E+03 -0.33543311371E+03 -0.38260702669E+03  0.53052203200E+03  0.92814547479E+02 0.  0.
         23    2    4    4    0    0  0.65036590711E+02  0.11965324066E+03  0.36191280989E+03  0.39649588388E+03  0.87643869404E+02 0.  0.
         13    1    3    3    0    0  0.25995383693E+02  0.22714684458E+02 -0.33877845003E+02  0.48367605331E+02  0.00000000000E+00 0.  1.
        -13    1    3    3    0    0  0.27017064420E+02  0.19306518859E+03 -0.53632400630E+03  0.57065535005E+03  0.00000000000E+00 0. -1.
          1    1    5    5  502    0  0.20560818582E+01 -0.20000084895E+00  0.42483692437E+01  0.47239934566E+01  0.00000000000E+00 0. -1.
          3    1    6    6  503    0  0.16459926547E+02  0.27229286916E+02  0.16894849516E+02  0.36024980056E+02  0.00000000000E+00 0. -1.
         -1    1    5    5    0  502 -0.12010512068E+03 -0.33523311286E+03 -0.38685539593E+03  0.52579803854E+03  0.00000000000E+00 0.  1.
         -3    1    6    6    0  503  0.48576664163E+02  0.92423953741E+02  0.34501796037E+03  0.36047090383E+03  0.00000000000E+00 0.  1.
<mgrwt>
<rscale>  0 0.14286652E+04</rscale>
<asrwt>0</asrwt>
<pdfrwt beam="1">  1        3 0.16437976E+00 0.14286652E+04</pdfrwt>
<pdfrwt beam="2">  1       -3 0.73472678E-01 0.14286652E+04</pdfrwt>
<totfact> 0.11358305E+00</totfact>
</mgrwt>
</event>
<event>
12    1  0.4672461E-008  0.2493811E+04  0.7818608E-02  0.8405194E-01
          2   -1    0    0  501    0  0.00000000000E+00  0.00000000000E+00  0.65061480784E+03  0.65061480784E+03  0.00000000000E+00 0. -1.
         -2   -1    0    0    0  501 -0.00000000000E+00 -0.00000000000E+00 -0.23896990751E+04  0.23896990751E+04  0.00000000000E+00 0.  1.
         23    2    1    2    0    0  0.37184350731E+02  0.95296556069E+02 -0.20620183950E+04  0.20664145040E+04  0.87663740726E+02 0.  0.
        254    2    1    2    0    0 -0.37184350731E+02 -0.95296556069E+02  0.32293412774E+03  0.97389937895E+03  0.91308785992E+03 0.  0.
         23    2    4    4    0    0 -0.16444514960E+03 -0.24684474719E+03  0.56717319954E+03  0.64624346212E+03  0.89278427500E+02 0.  0.
         23    2    4    4    0    0  0.12726079887E+03  0.15154819112E+03 -0.24423907180E+03  0.32765591683E+03  0.92431112069E+02 0.  0.
         11    1    3    3    0    0  0.16931847557E+02  0.10749864414E+03 -0.18176954859E+04  0.18209501711E+04  0.00000000000E+00 0.  1.
        -11    1    3    3    0    0  0.20252503174E+02 -0.12202088072E+02 -0.24432290904E+03  0.24546433289E+03  0.00000000000E+00 0. -1.
          2    1    5    5  502    0 -0.66414979896E+02 -0.12437568688E+03  0.18109213116E+03  0.22950952270E+03  0.00000000000E+00 0. -1.
          3    1    6    6  503    0  0.27635089876E+02  0.93600183741E+01 -0.14966202171E+01  0.29215543953E+02  0.00000000000E+00 0. -1.
         -2    1    5    5    0  502 -0.98030169701E+02 -0.12246906031E+03  0.38608106838E+03  0.41673393942E+03  0.00000000000E+00 0.  1.
         -3    1    6    6    0  503  0.99625708991E+02  0.14218817275E+03 -0.24274245158E+03  0.29844037288E+03  0.00000000000E+00 0.  1.
<mgrwt>
<rscale>  0 0.24938112E+04</rscale>
<asrwt>0</asrwt>
<pdfrwt beam="1">  1        2 0.10009458E+00 0.24938112E+04</pdfrwt>
<pdfrwt beam="2">  1       -2 0.36764602E+00 0.24938112E+04</pdfrwt>
<totfact> 0.48194249E-01</totfact>
</mgrwt>
</event>
<event>
12    1  0.4672461E-008  0.1471794E+04  0.7818608E-02  0.8903429E-01
          2   -1    0    0  501    0  0.00000000000E+00  0.00000000000E+00  0.30912010117E+04  0.30912010117E+04  0.00000000000E+00 0. -1.
         -2   -1    0    0    0  501 -0.00000000000E+00 -0.00000000000E+00 -0.17518893622E+03  0.17518893622E+03  0.00000000000E+00 0.  1.
         23    2    1    2    0    0 -0.69013350939E+02 -0.65154890733E+02 -0.65387224609E+02  0.14720191231E+03  0.91569162119E+02 0.  0.
        254    2    1    2    0    0  0.69013350939E+02  0.65154890733E+02  0.29813993001E+04  0.31191880357E+04  0.91191239302E+03 0.  0.
         23    2    4    4    0    0  0.74405865753E+02 -0.26495807785E+02  0.29818747974E+04  0.29843039101E+04  0.90852957382E+02 0.  0.
         23    2    4    4    0    0 -0.53925148140E+01  0.91650698518E+02 -0.47549729253E+00  0.13488412551E+03  0.98815846214E+02 0.  0.
         11    1    3    3    0    0  0.20861607790E+02 -0.44201181686E+01 -0.21216064168E+02  0.30080982414E+02  0.00000000000E+00 0. -1.
        -11    1    3    3    0    0 -0.89874958728E+02 -0.60734772564E+02 -0.44171160442E+02  0.11712092990E+03  0.00000000000E+00 0.  1.
          4    1    5    5  502    0 -0.12751657806E+02  0.76046175924E+01  0.12229353000E+03  0.12319148699E+03  0.00000000000E+00 0.  1.
          4    1    6    6  503    0  0.31016346705E+02  0.59279529487E+02  0.34149167855E+02  0.75114859012E+02  0.00000000000E+00 0.  1.
         -4    1    5    5    0  502  0.87157523558E+02 -0.34100425377E+02  0.28595812674E+04  0.28611124232E+04  0.00000000000E+00 0. -1.
         -4    1    6    6    0  503 -0.36408861519E+02  0.32371169031E+02 -0.34624665148E+02  0.59769266502E+02  0.00000000000E+00 0. -1.
<mgrwt>
<rscale>  0 0.14717938E+04</rscale>
<asrwt>0</asrwt>
<pdfrwt beam="1">  1        2 0.47556935E+00 0.14717938E+04</pdfrwt>
<pdfrwt beam="2">  1       -2 0.26952146E-01 0.14717938E+04</pdfrwt>
<totfact> 0.18624533E+01</totfact>
</mgrwt>
</event>
<event>
12    1  0.4672461E-008  0.1352259E+04  0.7818608E-02  0.8989120E-01
          2   -1    0    0  501    0  0.00000000000E+00  0.00000000000E+00  0.22502958025E+04  0.22502958025E+04  0.00000000000E+00 0. -1.
         -2   -1    0    0    0  501 -0.00000000000E+00 -0.00000000000E+00 -0.20315165845E+03  0.20315165845E+03  0.00000000000E+00 0.  1.
         23    2    1    2    0    0  0.11927468220E+03 -0.31008861178E+03  0.27177504912E+03  0.43825749802E+03  0.88467848836E+02 0.  0.
        254    2    1    2    0    0 -0.11927468220E+03  0.31008861178E+03  0.17753690950E+04  0.20151899630E+04  0.89368549643E+03 0.  0.
         23    2    4    4    0    0 -0.15262530434E+03  0.50148026270E+03  0.52912718615E+03  0.75066531896E+03  0.93519541065E+02 0.  0.
         23    2    4    4    0    0  0.33350622136E+02 -0.19139165092E+03  0.12462419088E+04  0.12645246440E+04  0.90336327150E+02 0.  0.
         13    1    3    3    0    0  0.73243010327E+02 -0.14449626037E+03  0.79801244283E+02  0.18058778035E+03  0.00000000000E+00 0.  1.
        -13    1    3    3    0    0  0.46031671874E+02 -0.16559235141E+03  0.19197380484E+03  0.25766971767E+03  0.00000000000E+00 0. -1.
          4    1    5    5  502    0 -0.11043634398E+03  0.42084475998E+03  0.47765509388E+03  0.64611213174E+03  0.00000000000E+00 0. -1.
          3    1    6    6  503    0  0.38459560597E+01 -0.17931406940E+03  0.11226691377E+04  0.11369055896E+04  0.00000000000E+00 0. -1.
         -4    1    5    5    0  502 -0.42188960355E+02  0.80635502715E+02  0.51472092278E+02  0.10455318722E+03  0.00000000000E+00 0.  1.
         -3    1    6    6    0  503  0.29504666076E+02 -0.12077581517E+02  0.12357277108E+03  0.12761905440E+03  0.00000000000E+00 0.  1.
<mgrwt>
<rscale>  0 0.13522593E+04</rscale>
<asrwt>0</asrwt>
<pdfrwt beam="1">  1        2 0.34619934E+00 0.13522593E+04</pdfrwt>
<pdfrwt beam="2">  1       -2 0.31254103E-01 0.13522593E+04</pdfrwt>
<totfact> 0.44960164E+01</totfact>
</mgrwt>
</event>
<event>
12    1  0.4672461E-008  0.2326805E+04  0.7818608E-02  0.8467427E-01
          2   -1    0    0  501    0  0.00000000000E+00  0.00000000000E+00  0.18527408316E+04  0.18527408316E+04  0.00000000000E+00 0. -1.
         -2   -1    0    0    0  501 -0.00000000000E+00 -0.00000000000E+00 -0.73054213183E+03  0.73054213183E+03  0.00000000000E+00 0.  1.
         23    2    1    2    0    0 -0.26213820990E+03 -0.58586196680E+03  0.13114212113E+04  0.14628842379E+04  0.90851609104E+02 0.  0.
        254    2    1    2    0    0  0.26213820990E+03  0.58586196680E+03 -0.18922251155E+03  0.11203987255E+04  0.89863088083E+03 0.  0.
         23    2    4    4    0    0  0.37986673644E+03  0.41278359988E+03  0.25341414193E+03  0.62222106554E+03  0.90836607658E+02 0.  0.
         23    2    4    4    0    0 -0.11772852654E+03  0.17307836692E+03 -0.44263665348E+03  0.49817765995E+03  0.91856664488E+02 0.  0.
         11    1    3    3    0    0 -0.24067263294E+03 -0.44671646894E+03  0.10308923181E+04  0.11490073505E+04  0.00000000000E+00 0. -1.
        -11    1    3    3    0    0 -0.21465576961E+02 -0.13914549786E+03  0.28052889319E+03  0.31387688746E+03  0.00000000000E+00 0.  1.
          4    1    5    5  502    0  0.39797229580E+01  0.15965611236E+01 -0.62453604387E+01  0.75757329185E+01  0.00000000000E+00 0.  1.
          1    1    6    6  503    0 -0.12225313825E+03  0.14606616201E+03 -0.31897044390E+03  0.37151486858E+03  0.00000000000E+00 0. -1.
         -4    1    5    5    0  502  0.37588701348E+03  0.41118703876E+03  0.25965950237E+03  0.61464533262E+03  0.00000000000E+00 0. -1.
         -1    1    6    6    0  503  0.45246117059E+01  0.27012204915E+02 -0.12366620958E+03  0.12666279137E+03  0.00000000000E+00 0.  1.
<mgrwt>
<rscale>  0 0.23268049E+04</rscale>
<asrwt>0</asrwt>
<pdfrwt beam="1">  1        2 0.28503705E+00 0.23268049E+04</pdfrwt>
<pdfrwt beam="2">  1       -2 0.11239110E+00 0.23268049E+04</pdfrwt>
<totfact> 0.45504595E+00</totfact>
</mgrwt>
</event>
<event>
12    1  0.4672461E-008  0.1831467E+04  0.7818608E-02  0.8689743E-01
         -2   -1    0    0    0  501 -0.00000000000E+00  0.00000000000E+00  0.65565801403E+03  0.65565801403E+03  0.00000000000E+00 0. -1.
          2   -1    0    0  501    0  0.00000000000E+00 -0.00000000000E+00 -0.12789710089E+04  0.12789710089E+04  0.00000000000E+00 0.  1.
         23    2    1    2    0    0  0.30419465063E+03  0.61273986858E+03 -0.12396561416E+03  0.70110910924E+03  0.90564769891E+02 0.  0.
        254    2    1    2    0    0 -0.30419465063E+03 -0.61273986858E+03 -0.49934738072E+03  0.12335199137E+04  0.89679375493E+03 0.  0.
         23    2    4    4    0    0 -0.17277051866E+03 -0.25575246432E+03  0.23691926131E+03  0.39983086899E+03  0.92059829980E+02 0.  0.
         23    2    4    4    0    0 -0.13142413197E+03 -0.35698740425E+03 -0.73626664203E+03  0.83368904472E+03  0.90755417738E+02 0.  0.
         13    1    3    3    0    0 -0.35514449314E+01  0.21163082320E+02 -0.13038037101E+02  0.25109345388E+02  0.00000000000E+00 0. -1.
        -13    1    3    3    0    0  0.30774609556E+03  0.59157678626E+03 -0.11092757706E+03  0.67599976385E+03  0.00000000000E+00 0.  1.
          2    1    5    5  502    0 -0.71147711992E+02 -0.40203061371E+02  0.41542154912E+02  0.91673516896E+02  0.00000000000E+00 0. -1.
          3    1    6    6  503    0 -0.20687074806E+02 -0.71788964284E+02 -0.79143221261E+02  0.10883593124E+03  0.00000000000E+00 0. -1.
         -2    1    5    5    0  502 -0.10162280667E+03 -0.21554940295E+03  0.19537710640E+03  0.30815735210E+03  0.00000000000E+00 0.  1.
         -3    1    6    6    0  503 -0.11073705716E+03 -0.28519843997E+03 -0.65712342077E+03  0.72485311348E+03  0.00000000000E+00 0.  1.
<mgrwt>
<rscale>  0 0.18314667E+04</rscale>
<asrwt>0</asrwt>
<pdfrwt beam="1">  1        2 0.19676477E+00 0.18314667E+04</pdfrwt>
<pdfrwt beam="2">  1       -2 0.10087046E+00 0.18314667E+04</pdfrwt>
<totfact> 0.12960818E+01</totfact>
</mgrwt>
</event>
<event>
12    1  0.4672461E-008  0.2271064E+04  0.7818608E-02  0.8489418E-01
         -1   -1    0    0    0  501 -0.00000000000E+00  0.00000000000E+00  0.12551696097E+04  0.12551696097E+04  0.00000000000E+00 0.  1.
          1   -1    0    0  501    0  0.00000000000E+00 -0.00000000000E+00 -0.10272976924E+04  0.10272976924E+04  0.00000000000E+00 0. -1.
         23    2    1    2    0    0  0.75788442538E+03 -0.56567415310E+03  0.24625654340E+03  0.98127979171E+03  0.88835211047E+02 0.  0.
        254    2    1    2    0    0 -0.75788442538E+03  0.56567415310E+03 -0.18384626061E+02  0.13011875104E+04  0.89351826674E+03 0.  0.
         23    2    4    4    0    0 -0.64370701676E+03  0.75657380149E+03  0.14404471635E+03  0.10077411937E+04  0.89614690385E+02 0.  0.
         23    2    4    4    0    0 -0.11417740863E+03 -0.19089964839E+03 -0.16242934241E+03  0.29344631665E+03  0.10123385344E+03 0.  0.
         13    1    3    3    0    0  0.70749062316E+03 -0.53990513396E+03  0.25041831858E+03  0.92452683564E+03  0.00000000000E+00 0. -1.
        -13    1    3    3    0    0  0.50393802223E+02 -0.25769019144E+02 -0.41617751791E+01  0.56752956071E+02  0.00000000000E+00 0.  1.
          2    1    5    5  502    0 -0.73899510849E+01  0.27722892522E+02 -0.39216311561E+01  0.28957716376E+02  0.00000000000E+00 0. -1.
          1    1    6    6  503    0 -0.53179800428E+02 -0.11010375179E+02 -0.40216170167E+02  0.67577066214E+02  0.00000000000E+00 0. -1.
         -2    1    5    5    0  502 -0.63631706567E+03  0.72885090897E+03  0.14796634751E+03  0.97878347736E+03  0.00000000000E+00 0.  1.
         -1    1    6    6    0  503 -0.60997608201E+02 -0.17988927321E+03 -0.12221317224E+03  0.22586925044E+03  0.00000000000E+00 0.  1.
<mgrwt>
<rscale>  0 0.22710639E+04</rscale>
<asrwt>0</asrwt>
<pdfrwt beam="1">  1        1 0.15804580E+00 0.22710639E+04</pdfrwt>
<pdfrwt beam="2">  1       -1 0.19310302E+00 0.22710639E+04</pdfrwt>
<totfact> 0.21942731E+00</totfact>
</mgrwt>
</event>
<event>
12    1  0.4672461E-008  0.1356308E+04  0.7818608E-02  0.8986067E-01
          2   -1    0    0  501    0  0.00000000000E+00  0.00000000000E+00  0.77627489102E+03  0.77627489102E+03  0.00000000000E+00 0. -1.
         -2   -1    0    0    0  501 -0.00000000000E+00 -0.00000000000E+00 -0.59243549832E+03  0.59243549832E+03  0.00000000000E+00 0.  1.
         23    2    1    2    0    0  0.11882688868E+03  0.22378740203E+02  0.42190889046E+03  0.44814350378E+03  0.90580630633E+02 0.  0.
        254    2    1    2    0    0 -0.11882688868E+03 -0.22378740203E+02 -0.23806949776E+03  0.92056688555E+03  0.88099129821E+03 0.  0.
         23    2    4    4    0    0 -0.62671593161E+01  0.20808547987E+03  0.26441129563E+03  0.34863550143E+03  0.91074339863E+02 0.  0.
         23    2    4    4    0    0 -0.11255972937E+03 -0.23046422008E+03 -0.50248079339E+03  0.57193138413E+03  0.93995271243E+02 0.  0.
         13    1    3    3    0    0  0.25277409577E+02  0.47648842480E+02  0.13895190503E+03  0.14905365322E+03  0.00000000000E+00 0. -1.
        -13    1    3    3    0    0  0.93549479107E+02 -0.25270102276E+02  0.28295698543E+03  0.29908985057E+03  0.00000000000E+00 0.  1.
          1    1    5    5  502    0  0.10436983511E+02  0.82288351973E+02  0.42987680850E+02  0.93425072653E+02  0.00000000000E+00 0. -1.
          1    1    6    6  503    0 -0.26107773889E+02 -0.79382179679E+01 -0.10299983775E+03  0.10655326245E+03  0.00000000000E+00 0. -1.
         -1    1    5    5    0  502 -0.16704142827E+02  0.12579712790E+03  0.22142361477E+03  0.25521042877E+03  0.00000000000E+00 0.  1.
         -1    1    6    6    0  503 -0.86451955479E+02 -0.22252600211E+03 -0.39948095564E+03  0.46537812168E+03  0.00000000000E+00 0.  1.
<mgrwt>
<rscale>  0 0.13563079E+04</rscale>
<asrwt>0</asrwt>
<pdfrwt beam="1">  1        2 0.11942691E+00 0.13563079E+04</pdfrwt>
<pdfrwt beam="2">  1       -2 0.91143922E-01 0.13563079E+04</pdfrwt>
<totfact> 0.35935620E+01</totfact>
</mgrwt>
</event>
<event>
12    1  0.4672461E-008  0.2864972E+04  0.7818608E-02  0.8283376E-01
         -2   -1    0    0    0  501 -0.00000000000E+00  0.00000000000E+00  0.14848801153E+04  0.14848801153E+04  0.00000000000E+00 0.  1.
          2   -1    0    0  501    0  0.00000000000E+00 -0.00000000000E+00 -0.13819409675E+04  0.13819409675E+04  0.00000000000E+00 0. -1.
         23    2    1    2    0    0  0.34702100712E+02  0.65658925759E+03  0.11612356193E+04  0.13374223268E+04  0.88975432908E+02 0.  0.
        254    2    1    2    0    0 -0.34702100712E+02 -0.65658925759E+03 -0.10582964714E+04  0.15293987560E+04  0.88699235881E+03 0.  0.
         23    2    4    4    0    0  0.38208474132E+03 -0.10183076079E+03 -0.42273520671E+03  0.58443969582E+03  0.80662566686E+02 0.  0.
         23    2    4    4    0    0 -0.41678684204E+03 -0.55475849681E+03 -0.63556126470E+03  0.94495906022E+03  0.86840329486E+02 0.  0.
         11    1    3    3    0    0 -0.10889555254E+02  0.87887038071E+01  0.21291851119E+02  0.25478749034E+02  0.00000000000E+00 0. -1.
        -11    1    3    3    0    0  0.45591655966E+02  0.64780055379E+03  0.11399437682E+04  0.13119435777E+04  0.00000000000E+00 0.  1.
          1    1    6    6  502    0 -0.22436681979E+03 -0.22705720217E+03 -0.28380284539E+03  0.42712936908E+03  0.00000000000E+00 0. -1.
          1    1    5    5  503    0  0.22009659348E+03 -0.43749229445E+02 -0.29231110340E+03  0.36851361807E+03  0.00000000000E+00 0. -1.
         -1    1    5    5    0  503  0.16198814785E+03 -0.58081531341E+02 -0.13042410331E+03  0.21592607775E+03  0.00000000000E+00 0.  1.
         -1    1    6    6    0  502 -0.19242002225E+03 -0.32770129463E+03 -0.35175841931E+03  0.51782969113E+03  0.00000000000E+00 0.  1.
<mgrwt>
<rscale>  0 0.28649724E+04</rscale>
<asrwt>0</asrwt>
<pdfrwt beam="1">  1        2 0.21260630E+00 0.28649724E+04</pdfrwt>
<pdfrwt beam="2">  1       -2 0.22844310E+00 0.28649724E+04</pdfrwt>
<totfact> 0.11217004E+00</totfact>
</mgrwt>
</event>
<event>
12    1  0.4672461E-008  0.1309278E+04  0.7818608E-02  0.9022240E-01
          2   -1    0    0  501    0  0.00000000000E+00  0.00000000000E+00  0.24653773339E+04  0.24653773339E+04  0.00000000000E+00 0. -1.
         -2   -1    0    0    0  501 -0.00000000000E+00 -0.00000000000E+00 -0.17382816106E+03  0.17382816106E+03  0.00000000000E+00 0.  1.
         23    2    1    2    0    0 -0.18402451665E+03 -0.21148148107E+03  0.96102992427E+03  0.10056779110E+04  0.96021381454E+02 0.  0.
        254    2    1    2    0    0  0.18402451665E+03  0.21148148107E+03  0.13305192486E+04  0.16335275840E+04  0.90528529055E+03 0.  0.
         23    2    4    4    0    0 -0.21100724440E+03  0.31747466835E+03  0.10710621329E+04  0.11405807047E+04  0.91847858705E+02 0.  0.
         23    2    4    4    0    0  0.39503176105E+03 -0.10599318729E+03  0.25945711571E+03  0.49294687933E+03  0.91618682385E+02 0.  0.
         13    1    3    3    0    0 -0.18607269609E+03 -0.17408479885E+03  0.77174068714E+03  0.81271904962E+03  0.00000000000E+00 0. -1.
        -13    1    3    3    0    0  0.20481794382E+01 -0.37396682214E+02  0.18928923713E+03  0.19295886135E+03  0.00000000000E+00 0.  1.
          2    1    5    5  502    0 -0.96788399068E+02  0.11286564699E+03  0.54044745274E+03  0.56052662527E+03  0.00000000000E+00 0.  1.
          3    1    6    6  503    0  0.31105459205E+03 -0.11773280511E+03  0.22428405070E+03  0.40114748913E+03  0.00000000000E+00 0. -1.
         -2    1    5    5    0  502 -0.11421884533E+03  0.20460902136E+03  0.53061468015E+03  0.58005407941E+03  0.00000000000E+00 0. -1.
         -3    1    6    6    0  503  0.83977168996E+02  0.11739617826E+02  0.35173065010E+02  0.91799390202E+02  0.00000000000E+00 0.  1.
<mgrwt>
<rscale>  0 0.13092777E+04</rscale>
<asrwt>0</asrwt>
<pdfrwt beam="1">  1        2 0.37928879E+00 0.13092777E+04</pdfrwt>
<pdfrwt beam="2">  1       -2 0.26742796E-01 0.13092777E+04</pdfrwt>
<totfact> 0.45497462E+01</totfact>
</mgrwt>
</event>
<event>
12    1  0.4672461E-008  0.1194859E+04  0.7818608E-02  0.9117368E-01
          1   -1    0    0  501    0  0.00000000000E+00  0.00000000000E+00  0.10048929854E+04  0.10048929854E+04  0.00000000000E+00 0. -1.
         -1   -1    0    0    0  501 -0.00000000000E+00 -0.00000000000E+00 -0.35518423866E+03  0.35518423866E+03  0.00000000000E+00 0.  1.
         23    2    1    2    0    0 -0.35569197216E+02  0.91450855528E+02 -0.11318073207E+03  0.17472369993E+03  0.89944796608E+02 0.  0.
        254    2    1    2    0    0  0.35569197216E+02 -0.91450855528E+02  0.76288947879E+03  0.11853535241E+04  0.90190586732E+03 0.  0.
         23    2    4    4    0    0 -0.10730463034E+03 -0.32119562186E+03 -0.21503419160E+02  0.35096423157E+03  0.89624681935E+02 0.  0.
         23    2    4    4    0    0  0.14287382756E+03  0.22974476633E+03  0.78439289795E+03  0.83438929254E+03  0.87964111357E+02 0.  0.
         11    1    3    3    0    0  0.28457272456E+02  0.36545923509E+02 -0.56703986394E+02  0.73217231262E+02  0.00000000000E+00 0. -1.
        -11    1    3    3    0    0 -0.64026469672E+02  0.54904932019E+02 -0.56476745675E+02  0.10150646866E+03  0.00000000000E+00 0.  1.
          2    1    5    5  502    0 -0.85750028422E+02 -0.15691116947E+03 -0.42923649983E+02  0.18389296399E+03  0.00000000000E+00 0. -1.
          4    1    6    6  503    0  0.11163443179E+03  0.22180820362E+03  0.73096931860E+03  0.77199564137E+03  0.00000000000E+00 0. -1.
         -2    1    5    5    0  502 -0.21554601919E+02 -0.16428445239E+03  0.21420230822E+02  0.16707126758E+03  0.00000000000E+00 0.  1.
         -4    1    6    6    0  503  0.31239395771E+02  0.79365627157E+01  0.53423579347E+02  0.62393651168E+02  0.00000000000E+00 0.  1.
<mgrwt>
<rscale>  0 0.11948592E+04</rscale>
<asrwt>0</asrwt>
<pdfrwt beam="1">  1        1 0.15459892E+00 0.11948592E+04</pdfrwt>
<pdfrwt beam="2">  1       -1 0.54643729E-01 0.11948592E+04</pdfrwt>
<totfact> 0.50236248E+01</totfact>
</mgrwt>
</event>
<event>
12    1  0.4672461E-008  0.2714842E+04  0.7818608E-02  0.8330205E-01
          1   -1    0    0  501    0  0.00000000000E+00  0.00000000000E+00  0.15695881018E+04  0.15695881018E+04  0.00000000000E+00 0. -1.
         -1   -1    0    0    0  501 -0.00000000000E+00 -0.00000000000E+00 -0.11739330978E+04  0.11739330978E+04  0.00000000000E+00 0.  1.
         23    2    1    2    0    0  0.76844556116E+03  0.29027942488E+02  0.10949980967E+04  0.13411073163E+04  0.90536181658E+02 0.  0.
        254    2    1    2    0    0 -0.76844556116E+03 -0.29027942488E+02 -0.69934309267E+03  0.14024138833E+04  0.94145246125E+03 0.  0.
         23    2    4    4    0    0 -0.37525550397E+03 -0.46973801858E+03 -0.44330744780E+03  0.75199657659E+03  0.86642129296E+02 0.  0.
         23    2    4    4    0    0 -0.39319005719E+03  0.44071007609E+03 -0.25603564487E+03  0.65041730667E+03  0.93083989687E+02 0.  0.
         11    1    3    3    0    0  0.58828727715E+03  0.12637950860E+02  0.76923836933E+03  0.96848815537E+03  0.00000000000E+00 0. -1.
        -11    1    3    3    0    0  0.18015828402E+03  0.16389991627E+02  0.32575972736E+03  0.37261916093E+03  0.00000000000E+00 0.  1.
          4    1    5    5  502    0 -0.22513751751E+03 -0.24409829427E+03 -0.19908218037E+03  0.38717514589E+03  0.00000000000E+00 0.  1.
          3    1    6    6  503    0  0.31388714724E+01  0.18168030441E+00 -0.69387201304E+01  0.76178316404E+01  0.00000000000E+00 0. -1.
         -4    1    5    5    0  502 -0.15011798647E+03 -0.22563972431E+03 -0.24422526743E+03  0.36482143070E+03  0.00000000000E+00 0. -1.
         -3    1    6    6    0  503 -0.39632892866E+03  0.44052839579E+03 -0.24909692474E+03  0.64279947503E+03  0.00000000000E+00 0.  1.
<mgrwt>
<rscale>  0 0.27148417E+04</rscale>
<asrwt>0</asrwt>
<pdfrwt beam="1">  1        1 0.24147509E+00 0.27148417E+04</pdfrwt>
<pdfrwt beam="2">  1       -1 0.18060509E+00 0.27148417E+04</pdfrwt>
<totfact> 0.10521609E+00</totfact>
</mgrwt>
</event>
<event>
12    1  0.4672461E-008  0.1654373E+04  0.7818608E-02  0.8787823E-01
          2   -1    0    0  501    0  0.00000000000E+00  0.00000000000E+00  0.23450136845E+04  0.23450136845E+04  0.00000000000E+00 0. -1.
         -2   -1    0    0    0  501 -0.00000000000E+00 -0.00000000000E+00 -0.29178418815E+03  0.29178418815E+03  0.00000000000E+00 0.  1.
         23    2    1    2    0    0  0.24691877003E+03 -0.44846982176E+03  0.12047392675E+04  0.13108617668E+04  0.69769684914E+02 0.  0.
        254    2    1    2    0    0 -0.24691877003E+03  0.44846982176E+03  0.84849022885E+03  0.13259361059E+04  0.88095222820E+03 0.  0.
         23    2    4    4    0    0  0.28005866706E+03  0.37490330308E+03  0.35499911086E+03  0.59434711245E+03  0.90767712885E+02 0.  0.
         23    2    4    4    0    0 -0.52697743709E+03  0.73566518675E+02  0.49349111799E+03  0.73158899342E+03  0.92583583234E+02 0.  0.
         11    1    3    3    0    0  0.15759605040E+03 -0.32833873835E+03  0.78930267919E+03  0.86927645866E+03  0.00000000000E+00 0.  1.
        -11    1    3    3    0    0  0.89322719635E+02 -0.12013108341E+03  0.41543658832E+03  0.44158530813E+03  0.00000000000E+00 0. -1.
          2    1    5    5  502    0  0.24186235145E+03  0.27896972003E+03  0.30834501188E+03  0.48103861394E+03  0.00000000000E+00 0. -1.
          4    1    6    6  503    0 -0.52375646692E+03  0.68640683484E+02  0.46898054242E+03  0.70638171638E+03  0.00000000000E+00 0. -1.
         -2    1    5    5    0  502  0.38196315612E+02  0.95933583053E+02  0.46654098978E+02  0.11330849851E+03  0.00000000000E+00 0.  1.
         -4    1    6    6    0  503 -0.32209701776E+01  0.49258351912E+01  0.24510575565E+02  0.25207277039E+02  0.00000000000E+00 0.  1.
<mgrwt>
<rscale>  0 0.16543735E+04</rscale>
<asrwt>0</asrwt>
<pdfrwt beam="1">  1        2 0.36077132E+00 0.16543735E+04</pdfrwt>
<pdfrwt beam="2">  1       -2 0.44889877E-01 0.16543735E+04</pdfrwt>
<totfact> 0.19229787E+01</totfact>
</mgrwt>
</event>
<event>
12    1  0.4672461E-008  0.1781356E+04  0.7818608E-02  0.8716277E-01
          1   -1    0    0  501    0  0.00000000000E+00  0.00000000000E+00  0.12373427158E+04  0.12373427158E+04  0.00000000000E+00 0. -1.
         -1   -1    0    0    0  501 -0.00000000000E+00 -0.00000000000E+00 -0.64113815917E+03  0.64113815917E+03  0.00000000000E+00 0.  1.
         23    2    1    2    0    0 -0.35951865248E+03  0.18977496264E+03  0.80597279450E+03  0.90717968552E+03  0.90081287885E+02 0.  0.
        254    2    1    2    0    0  0.35951865248E+03 -0.18977496264E+03 -0.20976823783E+03  0.97130118950E+03  0.85682850629E+03 0.  0.
         23    2    4    4    0    0  0.38873125348E+03 -0.28285246860E+03  0.20902856860E+03  0.53167792415E+03  0.88718465452E+02 0.  0.
         23    2    4    4    0    0 -0.29212601001E+02  0.93077505953E+02 -0.41879680643E+03  0.43962326535E+03  0.91438789310E+02 0.  0.
         13    1    3    3    0    0 -0.53473773513E+02  0.49446831111E+02  0.21536391787E+03  0.22734566344E+03  0.00000000000E+00 0.  1.
        -13    1    3    3    0    0 -0.30604487896E+03  0.14032813153E+03  0.59060887662E+03  0.67983402209E+03  0.00000000000E+00 0. -1.
          3    1    5    5  502    0  0.12584544350E+03 -0.14304623822E+03  0.94370746929E+02  0.21261500369E+03  0.00000000000E+00 0. -1.
          3    1    6    6  503    0  0.32298191618E+02  0.43933743261E+02 -0.18930138274E+03  0.19699837686E+03  0.00000000000E+00 0. -1.
         -3    1    5    5    0  502  0.26288580998E+03 -0.13980623038E+03  0.11465782167E+03  0.31906292046E+03  0.00000000000E+00 0.  1.
         -3    1    6    6    0  503 -0.61510792619E+02  0.49143762692E+02 -0.22949542369E+03  0.24262488849E+03  0.00000000000E+00 0.  1.
<mgrwt>
<rscale>  0 0.17813564E+04</rscale>
<asrwt>0</asrwt>
<pdfrwt beam="1">  1        1 0.19036042E+00 0.17813564E+04</pdfrwt>
<pdfrwt beam="2">  1       -1 0.98636640E-01 0.17813564E+04</pdfrwt>
<totfact> 0.93296619E+00</totfact>
</mgrwt>
</event>
<event>
12    1  0.6021681E-008  0.2398123E+04  0.7818608E-02  0.8440207E-01
         -1   -1    0    0    0  501 -0.00000000000E+00  0.00000000000E+00  0.63696005081E+03  0.63696005081E+03  0.00000000000E+00 0.  1.
          1   -1    0    0  501    0  0.00000000000E+00 -0.00000000000E+00 -0.22572036541E+04  0.22572036541E+04  0.00000000000E+00 0. -1.
         23    2    1    2    0    0 -0.69284573154E+03  0.49130875605E+03 -0.13953708281E+04  0.16360975933E+04  0.91302165706E+02 0.  0.
        254    2    1    2    0    0  0.69284573154E+03 -0.49130875605E+03 -0.22487277522E+03  0.12580661116E+04  0.90041272465E+03 0.  0.
         23    2    4    4    0    0  0.73432665081E+03 -0.75236656940E+01 -0.18343223308E+03  0.76230991283E+03  0.90425568485E+02 0.  0.
         23    2    4    4    0    0 -0.41480919268E+02 -0.48378509035E+03 -0.41440542144E+02  0.49575619880E+03  0.91039605694E+02 0.  0.
         13    1    3    3    0    0 -0.54409232957E+03  0.39264474094E+03 -0.11682822892E+04  0.13472527094E+04  0.00000000000E+00 0. -1.
        -13    1    3    3    0    0 -0.14875340197E+03  0.98664015109E+02 -0.22708853890E+03  0.28884488393E+03  0.00000000000E+00 0.  1.
          3    1    6    6  502    0 -0.68657071698E+02 -0.39873467020E+03 -0.29530935381E+02  0.40567869904E+03  0.00000000000E+00 0. -1.
          3    1    5    5  503    0  0.64082031646E+03 -0.28852044330E+02 -0.13781840125E+03  0.65610748370E+03  0.00000000000E+00 0. -1.
         -3    1    5    5    0  503  0.93506334349E+02  0.21328378636E+02 -0.45613831825E+02  0.10620242913E+03  0.00000000000E+00 0.  1.
         -3    1    6    6    0  502  0.27176152431E+02 -0.85050420156E+02 -0.11909606762E+02  0.90077499759E+02  0.00000000000E+00 0.  1.
<mgrwt>
<rscale>  0 0.23981231E+04</rscale>
<asrwt>0</asrwt>
<pdfrwt beam="1">  1        1 0.34726210E+00 0.23981231E+04</pdfrwt>
<pdfrwt beam="2">  1       -1 0.97993855E-01 0.23981231E+04</pdfrwt>
<totfact> 0.17809004E+00</totfact>
</mgrwt>
</event>
<event>
12    1  0.4672461E-008  0.1295298E+04  0.7818608E-02  0.9033302E-01
          2   -1    0    0  501    0  0.00000000000E+00  0.00000000000E+00  0.15615019440E+04  0.15615019440E+04  0.00000000000E+00 0. -1.
         -2   -1    0    0    0  501 -0.00000000000E+00 -0.00000000000E+00 -0.26861897406E+03  0.26861897406E+03  0.00000000000E+00 0.  1.
         23    2    1    2    0    0  0.29220043469E+03 -0.10064967033E+03  0.50778444711E+03  0.60120408351E+03  0.89943621942E+02 0.  0.
        254    2    1    2    0    0 -0.29220043469E+03  0.10064967033E+03  0.78509852285E+03  0.12289168346E+04  0.89350178820E+03 0.  0.
         23    2    4    4    0    0 -0.14889491579E+03 -0.36312697397E+03  0.54607211335E+03  0.67864003832E+03  0.91250498460E+02 0.  0.
         23    2    4    4    0    0 -0.14330551890E+03  0.46377664430E+03  0.23902640951E+03  0.55027679624E+03  0.10022814223E+03 0.  0.
         13    1    3    3    0    0  0.27770171493E+03 -0.76653477947E+02  0.48868493997E+03  0.56728032639E+03  0.00000000000E+00 0. -1.
        -13    1    3    3    0    0  0.14498719762E+02 -0.23996192388E+02  0.19099507132E+02  0.33923757111E+02  0.00000000000E+00 0.  1.
          2    1    6    6  502    0 -0.55882742546E+02  0.15736011638E+03  0.31281203638E+02  0.16989290992E+03  0.00000000000E+00 0. -1.
          2    1    5    5  503    0 -0.46609566769E+01 -0.55991485844E+02  0.38557323908E+02  0.68142778275E+02  0.00000000000E+00 0. -1.
         -2    1    5    5    0  503 -0.14423395911E+03 -0.30713548812E+03  0.50751478944E+03  0.61049726005E+03  0.00000000000E+00 0.  1.
         -2    1    6    6    0  502 -0.87422776356E+02  0.30641652792E+03  0.20774520587E+03  0.38038388632E+03  0.00000000000E+00 0.  1.
<mgrwt>
<rscale>  0 0.12952977E+04</rscale>
<asrwt>0</asrwt>
<pdfrwt beam="1">  1        2 0.24023106E+00 0.12952977E+04</pdfrwt>
<pdfrwt beam="2">  1       -2 0.41325997E-01 0.12952977E+04</pdfrwt>
<totfact> 0.63720924E+01</totfact>
</mgrwt>
</event>
<event>
12    1  0.4672461E-008  0.1630061E+04  0.7818608E-02  0.8802290E-01
         -1   -1    0    0    0  501 -0.00000000000E+00  0.00000000000E+00  0.11506696092E+04  0.11506696092E+04  0.00000000000E+00 0.  1.
          1   -1    0    0  501    0  0.00000000000E+00 -0.00000000000E+00 -0.57729415570E+03  0.57729415570E+03  0.00000000000E+00 0. -1.
         23    2    1    2    0    0  0.54122097901E+03  0.91922810522E+02  0.67284891956E+02  0.56114561873E+03  0.94800830806E+02 0.  0.
        254    2    1    2    0    0 -0.54122097901E+03 -0.91922810522E+02  0.50609056157E+03  0.11668181462E+04  0.89664205710E+03 0.  0.
         23    2    4    4    0    0 -0.42534190561E+03  0.36578294943E+03  0.26301012214E+03  0.62781684383E+03  0.10132503289E+03 0.  0.
         23    2    4    4    0    0 -0.11587907341E+03 -0.45770575996E+03  0.24308043943E+03  0.53900130236E+03  0.92259316953E+02 0.  0.
         11    1    3    3    0    0  0.11974954281E+03  0.50672172333E+02  0.43038052585E+02  0.13696676978E+03  0.00000000000E+00 0.  1.
        -11    1    3    3    0    0  0.42147143620E+03  0.41250638189E+02  0.24246839371E+02  0.42417884896E+03  0.00000000000E+00 0. -1.
          3    1    6    6  502    0 -0.11868831152E+03 -0.43564621056E+03  0.20721760565E+03  0.49680345426E+03  0.00000000000E+00 0. -1.
          3    1    5    5  503    0 -0.38744178247E+03  0.28550788810E+03  0.22002709640E+03  0.52918599010E+03  0.00000000000E+00 0. -1.
         -3    1    5    5    0  503 -0.37900123138E+02  0.80275061332E+02  0.42983025742E+02  0.98630853730E+02  0.00000000000E+00 0.  1.
         -3    1    6    6    0  502  0.28092381189E+01 -0.22059549397E+02  0.35862833776E+02  0.42197848107E+02  0.00000000000E+00 0.  1.
<mgrwt>
<rscale>  0 0.16300612E+04</rscale>
<asrwt>0</asrwt>
<pdfrwt beam="1">  1        1 0.88814486E-01 0.16300612E+04</pdfrwt>
<pdfrwt beam="2">  1       -1 0.17702609E+00 0.16300612E+04</pdfrwt>
<totfact> 0.75764525E+00</totfact>
</mgrwt>
</event>
<event>
12    1  0.4672461E-008  0.2261030E+04  0.7818608E-02  0.8493447E-01
          1   -1    0    0  501    0  0.00000000000E+00  0.00000000000E+00  0.11234054267E+04  0.11234054267E+04  0.00000000000E+00 0. -1.
         -1   -1    0    0    0  501 -0.00000000000E+00 -0.00000000000E+00 -0.11376699034E+04  0.11376699034E+04  0.00000000000E+00 0.  1.
         23    2    1    2    0    0 -0.19940074472E+03  0.28110461142E+01  0.92274226728E+03  0.94845321391E+03  0.91332623824E+02 0.  0.
        254    2    1    2    0    0  0.19940074472E+03 -0.28110461142E+01 -0.93700674390E+03  0.13126221162E+04  0.89734420530E+03 0.  0.
         23    2    4    4    0    0 -0.14359627996E+03 -0.95695555498E+02  0.94895683588E+02  0.21752336614E+03  0.92377990304E+02 0.  0.
         23    2    4    4    0    0  0.34299702468E+03  0.92884509384E+02 -0.10319024275E+04  0.10950987500E+04  0.90245007920E+02 0.  0.
         11    1    3    3    0    0 -0.15301691465E+03 -0.37486124580E+02  0.68742657431E+03  0.70524795694E+03  0.00000000000E+00 0. -1.
        -11    1    3    3    0    0 -0.46383830069E+02  0.40297170694E+02  0.23531569297E+03  0.24320525697E+03  0.00000000000E+00 0.  1.
          3    1    6    6  502    0  0.67537328357E+02 -0.14876219667E+02 -0.23973320287E+03  0.24950871967E+03  0.00000000000E+00 0. -1.
          3    1    5    5  503    0  0.89009549754E+00 -0.34113672694E+02  0.20679233327E+00  0.34125909479E+02  0.00000000000E+00 0. -1.
         -3    1    5    5    0  503 -0.14448637546E+03 -0.61581882804E+02  0.94688891254E+02  0.18339745666E+03  0.00000000000E+00 0.  1.
         -3    1    6    6    0  502  0.27545969633E+03  0.10776072905E+03 -0.79216922462E+03  0.84559003037E+03  0.00000000000E+00 0.  1.
<mgrwt>
<rscale>  0 0.22610303E+04</rscale>
<asrwt>0</asrwt>
<pdfrwt beam="1">  1        1 0.17283160E+00 0.22610303E+04</pdfrwt>
<pdfrwt beam="2">  1       -1 0.17502614E+00 0.22610303E+04</pdfrwt>
<totfact> 0.24966852E+00</totfact>
</mgrwt>
</event>
<event>
12    1  0.4672461E-008  0.1806354E+04  0.7818608E-02  0.8702928E-01
          2   -1    0    0  501    0  0.00000000000E+00  0.00000000000E+00  0.77704876790E+03  0.77704876790E+03  0.00000000000E+00 0. -1.
         -2   -1    0    0    0  501 -0.00000000000E+00 -0.00000000000E+00 -0.10497774864E+04  0.10497774864E+04  0.00000000000E+00 0.  1.
         23    2    1    2    0    0 -0.49740496256E+03  0.40562243590E+03 -0.31845362792E+03  0.72224495754E+03  0.91015428782E+02 0.  0.
        254    2    1    2    0    0  0.49740496256E+03 -0.40562243590E+03  0.45724909451E+02  0.11045812967E+04  0.89781279589E+03 0.  0.
         23    2    4    4    0    0 -0.59336164226E+02 -0.47415704118E+03  0.18228421448E+03  0.51978932258E+03  0.92777825660E+02 0.  0.
         23    2    4    4    0    0  0.55674112679E+03  0.68534605283E+02 -0.13655930503E+03  0.58479197415E+03  0.93142551300E+02 0.  0.
         11    1    3    3    0    0 -0.16841746572E+03  0.19478086868E+03 -0.12619279581E+03  0.28675538579E+03  0.00000000000E+00 0. -1.
        -11    1    3    3    0    0 -0.32898749684E+03  0.21084156722E+03 -0.19226083211E+03  0.43548957175E+03  0.00000000000E+00 0.  1.
          3    1    5    5  502    0 -0.22361752887E+02 -0.18416561258E+03  0.23186144617E+02  0.18696154190E+03  0.00000000000E+00 0. -1.
          3    1    6    6  503    0  0.13342545799E+03  0.37817552825E+02  0.81910433744E+00  0.13868378086E+03  0.00000000000E+00 0. -1.
         -3    1    5    5    0  502 -0.36974411339E+02 -0.28999142860E+03  0.15909806986E+03  0.33282778068E+03  0.00000000000E+00 0.  1.
         -3    1    6    6    0  503  0.42331566879E+03  0.30717052458E+02 -0.13737840937E+03  0.44610819329E+03  0.00000000000E+00 0.  1.
<mgrwt>
<rscale>  0 0.18063536E+04</rscale>
<asrwt>0</asrwt>
<pdfrwt beam="1">  1        2 0.11954596E+00 0.18063536E+04</pdfrwt>
<pdfrwt beam="2">  1       -2 0.16150423E+00 0.18063536E+04</pdfrwt>
<totfact> 0.82904750E+00</totfact>
</mgrwt>
</event>
<event>
12    1  0.4672461E-008  0.1106526E+04  0.7818608E-02  0.9198854E-01
          2   -1    0    0  501    0  0.00000000000E+00  0.00000000000E+00  0.18284397895E+04  0.18284397895E+04  0.00000000000E+00 0.  1.
         -2   -1    0    0    0  501 -0.00000000000E+00 -0.00000000000E+00 -0.16741056967E+03  0.16741056967E+03  0.00000000000E+00 0. -1.
         23    2    1    2    0    0  0.81488259013E+02  0.83176968851E+02  0.67045387104E+02  0.15960153555E+03  0.86132582192E+02 0.  0.
        254    2    1    2    0    0 -0.81488259013E+02 -0.83176968851E+02  0.15939838327E+04  0.18362488236E+04  0.90413856167E+03 0.  0.
         23    2    4    4    0    0  0.26204035613E+02  0.35010395205E+03  0.32169822412E+03  0.48482599406E+03  0.91143120384E+02 0.  0.
         23    2    4    4    0    0 -0.10769229463E+03 -0.43328092090E+03  0.12722856086E+04  0.13514228295E+04  0.91120840743E+02 0.  0.
         11    1    3    3    0    0  0.42080321979E+02  0.71664903068E+02  0.81185605242E+02  0.11617966400E+03  0.00000000000E+00 0. -1.
        -11    1    3    3    0    0  0.39407937034E+02  0.11512065783E+02 -0.14140218139E+02  0.43421871549E+02  0.00000000000E+00 0.  1.
          2    1    6    6  502    0  0.45324537093E+00 -0.35497905033E+02  0.48707480362E+02  0.60272094176E+02  0.00000000000E+00 0. -1.
          2    1    5    5  503    0  0.33880531892E+02  0.13621129488E+03  0.17950434482E+03  0.22786666519E+03  0.00000000000E+00 0. -1.
         -2    1    5    5    0  503 -0.76764962787E+01  0.21389265716E+03  0.14219387930E+03  0.25695932887E+03  0.00000000000E+00 0.  1.
         -2    1    6    6    0  502 -0.10814554000E+03 -0.39778301587E+03  0.12235781282E+04  0.12911507354E+04  0.00000000000E+00 0.  1.
<mgrwt>
<rscale>  0 0.11065264E+04</rscale>
<asrwt>0</asrwt>
<pdfrwt beam="1">  1        2 0.28129842E+00 0.11065264E+04</pdfrwt>
<pdfrwt beam="2">  1       -2 0.25755474E-01 0.11065264E+04</pdfrwt>
<totfact> 0.11230571E+02</totfact>
</mgrwt>
</event>
<event>
12    1  0.4672461E-008  0.1554572E+04  0.7818608E-02  0.8848952E-01
          2   -1    0    0  501    0  0.00000000000E+00  0.00000000000E+00  0.16736683992E+04  0.16736683992E+04  0.00000000000E+00 0. -1.
         -2   -1    0    0    0  501 -0.00000000000E+00 -0.00000000000E+00 -0.36098776912E+03  0.36098776912E+03  0.00000000000E+00 0.  1.
         23    2    1    2    0    0 -0.52756426686E+02 -0.25955863689E+03 -0.12890975612E+03  0.30846388910E+03  0.91533158554E+02 0.  0.
        254    2    1    2    0    0  0.52756426686E+02  0.25955863689E+03  0.14415903862E+04  0.17261922792E+04  0.91181303825E+03 0.  0.
         23    2    4    4    0    0  0.19792293534E+03 -0.28324972764E+03  0.38274198727E+03  0.52352019054E+03  0.90432651929E+02 0.  0.
         23    2    4    4    0    0 -0.14516650865E+03  0.54280836454E+03  0.10588483989E+04  0.12026720887E+04  0.97703557458E+02 0.  0.
         13    1    3    3    0    0 -0.24585609304E+02 -0.20419397403E+03 -0.13504475705E+03  0.24604210539E+03  0.00000000000E+00 0.  1.
        -13    1    3    3    0    0 -0.28170817383E+02 -0.55364662861E+02  0.61350009339E+01  0.62421783715E+02  0.00000000000E+00 0. -1.
          2    1    5    5  502    0  0.59957475471E+02 -0.40390917933E+02  0.11975163747E+03  0.13988130609E+03  0.00000000000E+00 0.  1.
          3    1    6    6  503    0 -0.37913498880E+02  0.29645977317E+03  0.61630010362E+03  0.68494645647E+03  0.00000000000E+00 0. -1.
         -2    1    5    5    0  502  0.13796545987E+03 -0.24285880971E+03  0.26299034980E+03  0.38363888444E+03  0.00000000000E+00 0. -1.
         -3    1    6    6    0  503 -0.10725300977E+03  0.24634859136E+03  0.44254829532E+03  0.51772563222E+03  0.00000000000E+00 0.  1.
<mgrwt>
<rscale>  0 0.15545724E+04</rscale>
<asrwt>0</asrwt>
<pdfrwt beam="1">  1        2 0.25748744E+00 0.15545724E+04</pdfrwt>
<pdfrwt beam="2">  1       -2 0.55536581E-01 0.15545724E+04</pdfrwt>
<totfact> 0.29734352E+01</totfact>
</mgrwt>
</event>
<event>
12    1  0.4672461E-008  0.1716593E+04  0.7818608E-02  0.8751957E-01
          1   -1    0    0  501    0  0.00000000000E+00  0.00000000000E+00  0.60204713019E+03  0.60204713019E+03  0.00000000000E+00 0. -1.
         -1   -1    0    0    0  501 -0.00000000000E+00 -0.00000000000E+00 -0.12236135261E+04  0.12236135261E+04  0.00000000000E+00 0.  1.
         23    2    1    2    0    0 -0.25438733727E+03  0.40779507877E+03 -0.64617212815E+03  0.81044315277E+03  0.90939216173E+02 0.  0.
        254    2    1    2    0    0  0.25438733727E+03 -0.40779507877E+03  0.24605732205E+02  0.10152175036E+04  0.89389674674E+03 0.  0.
         23    2    4    4    0    0  0.41178519179E+03 -0.56433779331E+03 -0.14607926666E+03  0.71988384723E+03  0.94071314502E+02 0.  0.
         23    2    4    4    0    0 -0.15739785453E+03  0.15654271454E+03  0.17068499887E+03  0.29533365632E+03  0.93855706451E+02 0.  0.
         13    1    3    3    0    0 -0.51419667917E+02  0.12612092324E+03 -0.24141027664E+03  0.27718115231E+03  0.00000000000E+00 0. -1.
        -13    1    3    3    0    0 -0.20296766935E+03  0.28167415553E+03 -0.40476185151E+03  0.53326200046E+03  0.00000000000E+00 0.  1.
          2    1    5    5  502    0  0.31196742367E+03 -0.48786199036E+03 -0.11582703175E+03  0.59054965613E+03  0.00000000000E+00 0. -1.
          1    1    6    6  503    0 -0.15852694117E+03  0.16467155589E+03  0.15084817002E+03  0.27386617680E+03  0.00000000000E+00 0. -1.
         -2    1    5    5    0  502  0.99817768124E+02 -0.76475802950E+02 -0.30252234910E+02  0.12933419110E+03  0.00000000000E+00 0.  1.
         -1    1    6    6    0  503  0.11290866485E+01 -0.81288413473E+01  0.19836828849E+02  0.21467479523E+02  0.00000000000E+00 0.  1.
<mgrwt>
<rscale>  0 0.17165932E+04</rscale>
<asrwt>0</asrwt>
<pdfrwt beam="1">  1        1 0.92622637E-01 0.17165932E+04</pdfrwt>
<pdfrwt beam="2">  1       -1 0.18824823E+00 0.17165932E+04</pdfrwt>
<totfact> 0.58864035E+00</totfact>
</mgrwt>
</event>
<event>
12    1  0.4672461E-008  0.2045033E+04  0.7818608E-02  0.8585851E-01
         -1   -1    0    0    0  501 -0.00000000000E+00  0.00000000000E+00  0.99971454250E+03  0.99971454250E+03  0.00000000000E+00 0.  1.
          1   -1    0    0  501    0  0.00000000000E+00 -0.00000000000E+00 -0.10458389391E+04  0.10458389391E+04  0.00000000000E+00 0. -1.
         23    2    1    2    0    0 -0.56231060514E+03 -0.51996123114E+03  0.27277528333E+03  0.81810843863E+03  0.91335445545E+02 0.  0.
        254    2    1    2    0    0  0.56231060514E+03  0.51996123114E+03 -0.31889967995E+03  0.12274450430E+04  0.90463883906E+03 0.  0.
         23    2    4    4    0    0  0.44912566671E+03  0.30026195399E+03  0.24905743056E+03  0.60214513091E+03  0.93156048939E+02 0.  0.
         23    2    4    4    0    0  0.11318493843E+03  0.21969927715E+03 -0.56795711051E+03  0.62529991207E+03  0.85709380980E+02 0.  0.
         13    1    3    3    0    0 -0.47376513832E+03 -0.47729847029E+03  0.22804055186E+03  0.71011951763E+03  0.00000000000E+00 0.  1.
        -13    1    3    3    0    0 -0.88545466824E+02 -0.42662760854E+02  0.44734731476E+02  0.10798892100E+03  0.00000000000E+00 0. -1.
          2    1    6    6  502    0  0.87723898189E+02  0.10385791603E+03 -0.23047990824E+03  0.26758725145E+03  0.00000000000E+00 0. -1.
          2    1    5    5  503    0  0.26997972620E+03  0.23356049097E+03  0.15740255411E+03  0.39014756124E+03  0.00000000000E+00 0. -1.
         -2    1    5    5    0  503  0.17914594051E+03  0.66701463017E+02  0.91654876453E+02  0.21199756967E+03  0.00000000000E+00 0.  1.
         -2    1    6    6    0  502  0.25461040240E+02  0.11584136112E+03 -0.33747720228E+03  0.35771266063E+03  0.00000000000E+00 0.  1.
<mgrwt>
<rscale>  0 0.20450334E+04</rscale>
<asrwt>0</asrwt>
<pdfrwt beam="1">  1        1 0.16089830E+00 0.20450334E+04</pdfrwt>
<pdfrwt beam="2">  1       -1 0.15380224E+00 0.20450334E+04</pdfrwt>
<totfact> 0.41997278E+00</totfact>
</mgrwt>
</event>
<event>
12    1  0.4672461E-008  0.2344175E+04  0.7818608E-02  0.8460704E-01
         -1   -1    0    0    0  501 -0.00000000000E+00  0.00000000000E+00  0.44529136973E+03  0.44529136973E+03  0.00000000000E+00 0.  1.
          1   -1    0    0  501    0  0.00000000000E+00 -0.00000000000E+00 -0.30851474686E+04  0.30851474686E+04  0.00000000000E+00 0. -1.
         23    2    1    2    0    0 -0.24996649044E+03  0.92743655668E+03 -0.74029196019E+03  0.12155498522E+04  0.83111032756E+02 0.  0.
        254    2    1    2    0    0  0.24996649044E+03 -0.92743655668E+03 -0.18995641387E+04  0.23148889861E+04  0.90980508256E+03 0.  0.
         23    2    4    4    0    0 -0.35387804263E+02 -0.99283114085E+03 -0.12761197526E+04  0.16200573108E+04  0.95593390925E+02 0.  0.
         23    2    4    4    0    0  0.28535429470E+03  0.65394584173E+02 -0.62344438600E+03  0.69483167529E+03  0.91676765858E+02 0.  0.
         11    1    3    3    0    0 -0.21351286472E+03  0.83443066956E+03 -0.63263335226E+03  0.10686848198E+04  0.00000000000E+00 0. -1.
        -11    1    3    3    0    0 -0.36453625723E+02  0.93005887124E+02 -0.10765860792E+03  0.14686503235E+03  0.00000000000E+00 0.  1.
          2    1    5    5  502    0  0.14237932083E+02 -0.39087651480E+03 -0.44190598275E+03  0.59014241173E+03  0.00000000000E+00 0. -1.
          1    1    6    6  503    0  0.29193579477E+03  0.60455662717E+02 -0.60001950206E+03  0.67000358079E+03  0.00000000000E+00 0. -1.
         -2    1    5    5    0  502 -0.49625736346E+02 -0.60195462606E+03 -0.83421376990E+03  0.10299148991E+04  0.00000000000E+00 0.  1.
         -1    1    6    6    0  503 -0.65815000719E+01  0.49389214565E+01 -0.23424883943E+02  0.24828094492E+02  0.00000000000E+00 0.  1.
<mgrwt>
<rscale>  0 0.23441754E+04</rscale>
<asrwt>0</asrwt>
<pdfrwt beam="1">  1        1 0.47463807E+00 0.23441754E+04</pdfrwt>
<pdfrwt beam="2">  1       -1 0.68506365E-01 0.23441754E+04</pdfrwt>
<totfact> 0.10056891E+00</totfact>
</mgrwt>
</event>
<event>
12    1  0.4672461E-008  0.1248852E+04  0.7818608E-02  0.9071139E-01
         -2   -1    0    0    0  501 -0.00000000000E+00  0.00000000000E+00  0.20284101824E+03  0.20284101824E+03  0.00000000000E+00 0.  1.
          2   -1    0    0  501    0  0.00000000000E+00 -0.00000000000E+00 -0.19222331597E+04  0.19222331597E+04  0.00000000000E+00 0. -1.
         23    2    1    2    0    0  0.22664672617E+03  0.99892939289E+02 -0.19958073823E+03  0.33375801229E+03  0.10106731367E+03 0.  0.
        254    2    1    2    0    0 -0.22664672617E+03 -0.99892939289E+02 -0.15198114032E+04  0.17913161656E+04  0.91522651083E+03 0.  0.
         23    2    4    4    0    0  0.27010724419E+03  0.16463393848E+03 -0.85070162605E+03  0.91221342744E+03  0.91530451672E+02 0.  0.
         23    2    4    4    0    0 -0.49675397036E+03 -0.26452687777E+03 -0.66910977717E+03  0.87910273820E+03  0.91513683496E+02 0.  0.
         13    1    3    3    0    0  0.19748046790E+03  0.11659854303E+03 -0.19248271659E+03  0.29940499599E+03  0.00000000000E+00 0.  1.
        -13    1    3    3    0    0  0.29166258261E+02 -0.16705603742E+02 -0.70980216464E+01  0.34353016296E+02  0.00000000000E+00 0. -1.
          3    1    6    6  502    0 -0.48355875648E+03 -0.26733546533E+03 -0.63125623838E+03  0.83891701645E+03  0.00000000000E+00 0.  1.
          3    1    5    5  503    0 -0.61042732624E+01  0.12627621618E+02 -0.36718705616E+02  0.39306263138E+02  0.00000000000E+00 0. -1.
         -3    1    5    5    0  503  0.27621151746E+03  0.15200631687E+03 -0.81398292043E+03  0.87290716431E+03  0.00000000000E+00 0.  1.
         -3    1    6    6    0  502 -0.13195213879E+02  0.28085875612E+01 -0.37853538789E+02  0.40185721747E+02  0.00000000000E+00 0. -1.
<mgrwt>
<rscale>  0 0.12488518E+04</rscale>
<asrwt>0</asrwt>
<pdfrwt beam="1">  1        2 0.29572817E+00 0.12488518E+04</pdfrwt>
<pdfrwt beam="2">  1       -2 0.31206311E-01 0.12488518E+04</pdfrwt>
<totfact> 0.69185809E+01</totfact>
</mgrwt>
</event>
<event>
12    1  0.4672461E-008  0.1276373E+04  0.7818608E-02  0.9048514E-01
          3   -1    0    0  501    0  0.00000000000E+00  0.00000000000E+00  0.69279451262E+03  0.69279451262E+03  0.00000000000E+00 0. -1.
         -3   -1    0    0    0  501 -0.00000000000E+00 -0.00000000000E+00 -0.58788282997E+03  0.58788282997E+03  0.00000000000E+00 0.  1.
         23    2    1    2    0    0  0.10665679820E+03  0.23220324261E+03 -0.13858269324E+03  0.30488269993E+03  0.91947155301E+02 0.  0.
        254    2    1    2    0    0 -0.10665679820E+03 -0.23220324261E+03  0.24349437588E+03  0.97579464266E+03  0.90972064672E+03 0.  0.
         23    2    4    4    0    0 -0.39220721674E+03  0.16730876890E+03  0.18501380747E+03  0.47228761811E+03  0.83706393176E+02 0.  0.
         23    2    4    4    0    0  0.28555041853E+03 -0.39951201151E+03  0.58480568412E+02  0.50350702455E+03  0.94606860317E+02 0.  0.
         13    1    3    3    0    0 -0.15655070055E+02  0.14087886997E+02 -0.15597748983E+02  0.26207623925E+02  0.00000000000E+00 0. -1.
        -13    1    3    3    0    0  0.12231186826E+03  0.21811535562E+03 -0.12298494425E+03  0.27867507600E+03  0.00000000000E+00 0.  1.
          4    1    6    6  502    0 -0.44447482175E+01 -0.25630254614E+01 -0.57811506952E+01  0.77295918128E+01  0.00000000000E+00 0. -1.
          4    1    5    5  503    0 -0.41421227096E+02  0.49158634177E+02  0.31160362554E+02  0.71437088146E+02  0.00000000000E+00 0. -1.
         -4    1    5    5    0  503 -0.35078598964E+03  0.11815013472E+03  0.15385344491E+03  0.40085052997E+03  0.00000000000E+00 0.  1.
         -4    1    6    6    0  502  0.28999516675E+03 -0.39694898605E+03  0.64261719107E+02  0.49577743273E+03  0.00000000000E+00 0.  1.
<mgrwt>
<rscale>  0 0.12763730E+04</rscale>
<asrwt>0</asrwt>
<pdfrwt beam="1">  1        3 0.10658377E+00 0.12763730E+04</pdfrwt>
<pdfrwt beam="2">  1       -3 0.90443512E-01 0.12763730E+04</pdfrwt>
<totfact> 0.21353168E+00</totfact>
</mgrwt>
</event>
<event>
12    1  0.4672461E-008  0.2280940E+04  0.7818608E-02  0.8485474E-01
          1   -1    0    0  501    0  0.00000000000E+00  0.00000000000E+00  0.57016772934E+03  0.57016772934E+03  0.00000000000E+00 0. -1.
         -1   -1    0    0    0  501 -0.00000000000E+00 -0.00000000000E+00 -0.22812094434E+04  0.22812094434E+04  0.00000000000E+00 0.  1.
         23    2    1    2    0    0  0.14590480204E+03  0.18679938796E+03  0.42099579418E+03  0.49083222967E+03  0.86582887240E+02 0.  0.
        254    2    1    2    0    0 -0.14590480204E+03 -0.18679938796E+03 -0.21320375082E+04  0.23605449430E+04  0.98509201049E+03 0.  0.
         23    2    4    4    0    0  0.12627101111E+03  0.20728444181E+03 -0.11217425795E+03  0.28265182881E+03  0.91639424467E+02 0.  0.
         23    2    4    4    0    0 -0.27217581315E+03 -0.39408382978E+03 -0.20198632502E+04  0.20778931142E+04  0.91708812607E+02 0.  0.
         11    1    3    3    0    0  0.14020091204E+03  0.12081668528E+03  0.32888227301E+03  0.37738112920E+03  0.00000000000E+00 0. -1.
        -11    1    3    3    0    0  0.57038900021E+01  0.65982702684E+02  0.92113521169E+02  0.11345110047E+03  0.00000000000E+00 0.  1.
          1    1    5    5  502    0  0.10708634568E+03  0.10617317467E+03 -0.37189802021E+02  0.15531680471E+03  0.00000000000E+00 0. -1.
          3    1    6    6  503    0 -0.26232092128E+03 -0.36742958837E+03 -0.19639630170E+04  0.20151842348E+04  0.00000000000E+00 0. -1.
         -1    1    5    5    0  502  0.19184665431E+02  0.10111126714E+03 -0.74984455932E+02  0.12733502410E+03  0.00000000000E+00 0.  1.
         -3    1    6    6    0  503 -0.98548918694E+01 -0.26654241405E+02 -0.55900233227E+02  0.62708879383E+02  0.00000000000E+00 0.  1.
<mgrwt>
<rscale>  0 0.22809402E+04</rscale>
<asrwt>0</asrwt>
<pdfrwt beam="1">  1        1 0.87718112E-01 0.22809402E+04</pdfrwt>
<pdfrwt beam="2">  1       -1 0.35095530E+00 0.22809402E+04</pdfrwt>
<totfact> 0.51130640E-01</totfact>
</mgrwt>
</event>
<event>
12    1  0.4672461E-008  0.1537235E+04  0.7818608E-02  0.8860063E-01
          2   -1    0    0  501    0  0.00000000000E+00  0.00000000000E+00  0.19399929239E+04  0.19399929239E+04  0.00000000000E+00 0. -1.
         -2   -1    0    0    0  501 -0.00000000000E+00 -0.00000000000E+00 -0.30452325652E+03  0.30452325652E+03  0.00000000000E+00 0.  1.
         23    2    1    2    0    0  0.38271270342E+02  0.49330737827E+02  0.12143638638E+04  0.12197656768E+04  0.96179523484E+02 0.  0.
        254    2    1    2    0    0 -0.38271270342E+02 -0.49330737827E+02  0.42110580350E+03  0.10247505035E+04  0.93214016379E+03 0.  0.
         23    2    4    4    0    0  0.24276468163E+03 -0.19420912640E+03 -0.15632342679E+03  0.35925264685E+03  0.89294877104E+02 0.  0.
         23    2    4    4    0    0 -0.28103595198E+03  0.14487838857E+03  0.57742923029E+03  0.66549785670E+03  0.97426523591E+02 0.  0.
         11    1    3    3    0    0  0.63181591913E+01 -0.29019964473E+02  0.35922033504E+03  0.36044601063E+03  0.00000000000E+00 0.  1.
        -11    1    3    3    0    0  0.31953111151E+02  0.78350702301E+02  0.85514352881E+03  0.85931966620E+03  0.00000000000E+00 0. -1.
          4    1    5    5  502    0 -0.45803732779E+01 -0.14572961333E+02  0.12683339112E+01  0.15328394968E+02  0.00000000000E+00 0. -1.
          4    1    6    6  503    0 -0.98202679040E+02  0.16290762833E+01  0.15752775651E+03  0.18563785749E+03  0.00000000000E+00 0. -1.
         -4    1    5    5    0  502  0.24734505491E+03 -0.17963616507E+03 -0.15759176070E+03  0.34392425188E+03  0.00000000000E+00 0.  1.
         -4    1    6    6    0  503 -0.18283327294E+03  0.14324931229E+03  0.41990147378E+03  0.47985999922E+03  0.00000000000E+00 0.  1.
<mgrwt>
<rscale>  0 0.15372351E+04</rscale>
<asrwt>0</asrwt>
<pdfrwt beam="1">  1        2 0.29846044E+00 0.15372351E+04</pdfrwt>
<pdfrwt beam="2">  1       -2 0.46849733E-01 0.15372351E+04</pdfrwt>
<totfact> 0.30027617E+01</totfact>
</mgrwt>
</event>
<event>
12    1  0.4672461E-008  0.2431903E+04  0.7818608E-02  0.8427655E-01
         -2   -1    0    0    0  501 -0.00000000000E+00  0.00000000000E+00  0.94579660069E+03  0.94579660069E+03  0.00000000000E+00 0.  1.
          2   -1    0    0  501    0  0.00000000000E+00 -0.00000000000E+00 -0.15632726367E+04  0.15632726367E+04  0.00000000000E+00 0. -1.
         23    2    1    2    0    0 -0.98412568977E+03 -0.21880855829E+03  0.27299393363E+02  0.10127111234E+04  0.91967408008E+02 0.  0.
        254    2    1    2    0    0  0.98412568977E+03  0.21880855829E+03 -0.64477542939E+03  0.14963581140E+04  0.89831603156E+03 0.  0.
         23    2    4    4    0    0 -0.18874052494E+02 -0.17892327989E+03  0.52015206515E+02  0.20860867437E+03  0.91881594282E+02 0.  0.
         23    2    4    4    0    0  0.10029997423E+04  0.39773183818E+03 -0.69679063591E+03  0.12877494396E+04  0.92640870729E+02 0.  0.
         11    1    3    3    0    0 -0.57664899095E+03 -0.95108174716E+02 -0.16137129494E+02  0.58466232187E+03  0.00000000000E+00 0. -1.
        -11    1    3    3    0    0 -0.40747669882E+03 -0.12370038357E+03  0.43436522857E+02  0.42804880153E+03  0.00000000000E+00 0.  1.
          1    1    6    6  502    0  0.81942901654E+02  0.22268504055E+02 -0.84262889235E+02  0.11962758840E+03  0.00000000000E+00 0. -1.
          1    1    5    5  503    0  0.10642071987E+02  0.76392819767E+01  0.43615246831E+01  0.13807071481E+02  0.00000000000E+00 0. -1.
         -1    1    5    5    0  503 -0.29516124481E+02 -0.18656256187E+03  0.47653681832E+02  0.19480160288E+03  0.00000000000E+00 0.  1.
         -1    1    6    6    0  502  0.92105684061E+03  0.37546333412E+03 -0.61252774667E+03  0.11681218512E+04  0.00000000000E+00 0.  1.
<mgrwt>
<rscale>  0 0.24319029E+04</rscale>
<asrwt>0</asrwt>
<pdfrwt beam="1">  1        2 0.24050348E+00 0.24319029E+04</pdfrwt>
<pdfrwt beam="2">  1       -2 0.14550717E+00 0.24319029E+04</pdfrwt>
<totfact> 0.34057672E+00</totfact>
</mgrwt>
</event>
<event>
12    1  0.4672461E-008  0.2532643E+04  0.7818608E-02  0.8391448E-01
         -1   -1    0    0    0  501 -0.00000000000E+00  0.00000000000E+00  0.17185393128E+04  0.17185393128E+04  0.00000000000E+00 0.  1.
          1   -1    0    0  501    0  0.00000000000E+00 -0.00000000000E+00 -0.93310031091E+03  0.93310031091E+03  0.00000000000E+00 0. -1.
         23    2    1    2    0    0 -0.69001900732E+03 -0.36500106723E+03  0.11561138570E+04  0.13980103227E+04  0.92095615552E+02 0.  0.
        254    2    1    2    0    0  0.69001900732E+03  0.36500106723E+03 -0.37067485512E+03  0.12536293010E+04  0.90820403360E+03 0.  0.
         23    2    4    4    0    0  0.80695069752E+03  0.49731801852E+03 -0.43174244121E+03  0.10455707487E+04  0.91225079785E+02 0.  0.
         23    2    4    4    0    0 -0.11693169019E+03 -0.13231695129E+03  0.61067586088E+02  0.20805855236E+03  0.91533138089E+02 0.  0.
         11    1    3    3    0    0 -0.19750336515E+03 -0.58757064600E+02  0.30144607543E+03  0.36514340783E+03  0.00000000000E+00 0. -1.
        -11    1    3    3    0    0 -0.49251564218E+03 -0.30624400263E+03  0.85466778156E+03  0.10328669148E+04  0.00000000000E+00 0.  1.
          2    1    5    5  502    0  0.49812165546E+03  0.33963563604E+03 -0.31112242386E+03  0.67843548811E+03  0.00000000000E+00 0. -1.
          2    1    6    6  503    0 -0.56915804886E+02 -0.11975753779E+03  0.62808175938E+02  0.14671790507E+03  0.00000000000E+00 0. -1.
         -2    1    5    5    0  502  0.30882904206E+03  0.15768238247E+03 -0.12062001735E+03  0.36713526056E+03  0.00000000000E+00 0.  1.
         -2    1    6    6    0  503 -0.60015885309E+02 -0.12559413500E+02 -0.17405898498E+01  0.61340647289E+02  0.00000000000E+00 0.  1.
<mgrwt>
<rscale>  0 0.25326425E+04</rscale>
<asrwt>0</asrwt>
<pdfrwt beam="1">  1        1 0.14355389E+00 0.25326425E+04</pdfrwt>
<pdfrwt beam="2">  1       -1 0.26439066E+00 0.25326425E+04</pdfrwt>
<totfact> 0.85122443E-01</totfact>
</mgrwt>
</event>
<event>
12    1  0.4672461E-008  0.1633335E+04  0.7818608E-02  0.8800327E-01
          2   -1    0    0  501    0  0.00000000000E+00  0.00000000000E+00  0.20861906551E+04  0.20861906551E+04  0.00000000000E+00 0.  1.
         -2   -1    0    0    0  501 -0.00000000000E+00 -0.00000000000E+00 -0.31969568886E+03  0.31969568886E+03  0.00000000000E+00 0. -1.
         23    2    1    2    0    0  0.39459539778E+03 -0.19435662234E+03  0.96733601231E+02  0.45822676463E+03  0.84465102978E+02 0.  0.
        254    2    1    2    0    0 -0.39459539778E+03  0.19435662234E+03  0.16697613650E+04  0.19476595793E+04  0.90099655729E+03 0.  0.
         23    2    4    4    0    0  0.15192320029E+03 -0.46314625038E+02  0.12420680246E+02  0.18361307351E+03  0.91289562303E+02 0.  0.
         23    2    4    4    0    0 -0.54651859808E+03  0.24067124738E+03  0.16573406847E+04  0.17640465058E+04  0.92069006458E+02 0.  0.
         13    1    3    3    0    0  0.30150158632E+03 -0.18323067035E+03  0.90656892733E+02  0.36427373953E+03  0.00000000000E+00 0. -1.
        -13    1    3    3    0    0  0.93093811464E+02 -0.11125951993E+02  0.60767084978E+01  0.93953025107E+02  0.00000000000E+00 0.  1.
          1    1    5    5  502    0 -0.15061127074E+01  0.14575008784E+02 -0.89433324379E+01  0.17166317358E+02  0.00000000000E+00 0. -1.
          1    1    6    6  503    0 -0.47597139601E+03  0.19626700101E+03  0.15014445994E+04  0.15872634912E+04  0.00000000000E+00 0. -1.
         -1    1    5    5    0  502  0.15342931300E+03 -0.60889633822E+02  0.21364012684E+02  0.16644675615E+03  0.00000000000E+00 0.  1.
         -1    1    6    6    0  503 -0.70547202063E+02  0.44404246373E+02  0.15589608530E+03  0.17678301453E+03  0.00000000000E+00 0.  1.
<mgrwt>
<rscale>  0 0.16333354E+04</rscale>
<asrwt>0</asrwt>
<pdfrwt beam="1">  1        2 0.32095240E+00 0.16333354E+04</pdfrwt>
<pdfrwt beam="2">  1       -2 0.49183953E-01 0.16333354E+04</pdfrwt>
<totfact> 0.22396843E+01</totfact>
</mgrwt>
</event>
<event>
12    1  0.4672461E-008  0.1278436E+04  0.7818608E-02  0.9046843E-01
          2   -1    0    0  501    0  0.00000000000E+00  0.00000000000E+00  0.14690325977E+04  0.14690325977E+04  0.00000000000E+00 0. -1.
         -2   -1    0    0    0  501 -0.00000000000E+00 -0.00000000000E+00 -0.27814185037E+03  0.27814185037E+03  0.00000000000E+00 0.  1.
         23    2    1    2    0    0 -0.13625126941E+03  0.16981166574E+03 -0.33799366568E+01  0.23612781482E+03  0.91348293490E+02 0.  0.
        254    2    1    2    0    0  0.13625126941E+03 -0.16981166574E+03  0.11942706840E+04  0.15110466333E+04  0.89976610906E+03 0.  0.
         23    2    4    4    0    0  0.13491002998E+03  0.26925290298E+03  0.94882169768E+03  0.10001025597E+04  0.96149227494E+02 0.  0.
         23    2    4    4    0    0  0.13412394286E+01 -0.43906456872E+03  0.24544898635E+03  0.51094407360E+03  0.89661290562E+02 0.  0.
         11    1    3    3    0    0 -0.16362168487E+02  0.80550384168E+02  0.20624790297E+02  0.84743536166E+02  0.00000000000E+00 0. -1.
        -11    1    3    3    0    0 -0.11988910092E+03  0.89261281570E+02 -0.24004726953E+02  0.15138427865E+03  0.00000000000E+00 0.  1.
          3    1    6    6  502    0 -0.29475126656E+02 -0.14986232850E+03  0.50722905638E+02  0.16093574417E+03  0.00000000000E+00 0. -1.
          3    1    5    5  503    0  0.12503535002E+03  0.14523505784E+03  0.58650347809E+03  0.61701976516E+03  0.00000000000E+00 0. -1.
         -3    1    5    5    0  503  0.98746799587E+01  0.12401784514E+03  0.36231821959E+03  0.38308279453E+03  0.00000000000E+00 0.  1.
         -3    1    6    6    0  502  0.30816366084E+02 -0.28920224022E+03  0.19472608071E+03  0.35000832944E+03  0.00000000000E+00 0.  1.
<mgrwt>
<rscale>  0 0.12784357E+04</rscale>
<asrwt>0</asrwt>
<pdfrwt beam="1">  1        2 0.22600501E+00 0.12784357E+04</pdfrwt>
<pdfrwt beam="2">  1       -2 0.42791055E-01 0.12784357E+04</pdfrwt>
<totfact> 0.67144418E+01</totfact>
</mgrwt>
</event>
<event>
12    1  0.4672461E-008  0.1299700E+04  0.7818608E-02  0.9029803E-01
          2   -1    0    0  501    0  0.00000000000E+00  0.00000000000E+00  0.38901115449E+03  0.38901115449E+03  0.00000000000E+00 0. -1.
         -2   -1    0    0    0  501 -0.00000000000E+00 -0.00000000000E+00 -0.10855866481E+04  0.10855866481E+04  0.00000000000E+00 0.  1.
         23    2    1    2    0    0 -0.23415259385E+03 -0.15627226536E+03  0.17113489175E+02  0.29598363500E+03  0.89805247893E+02 0.  0.
        254    2    1    2    0    0  0.23415259385E+03  0.15627226536E+03 -0.71368898282E+03  0.11786141676E+04  0.89472394277E+03 0.  0.
         23    2    4    4    0    0  0.34251816190E+03 -0.24101253561E+03 -0.10998479907E+03  0.44165056184E+03  0.86907014641E+02 0.  0.
         23    2    4    4    0    0 -0.10836556804E+03  0.39728480097E+03 -0.60370418375E+03  0.73696360577E+03  0.95280141385E+02 0.  0.
         13    1    3    3    0    0 -0.33867768521E+02 -0.18163218326E+02 -0.29279367343E+02  0.48313658489E+02  0.00000000000E+00 0.  1.
        -13    1    3    3    0    0 -0.20028482533E+03 -0.13810904703E+03  0.46392856518E+02  0.24766997651E+03  0.00000000000E+00 0. -1.
          2    1    5    5  502    0  0.27080291101E+03 -0.22374660046E+03 -0.71618703885E+02  0.35850522531E+03  0.00000000000E+00 0. -1.
          3    1    6    6  503    0 -0.12030498770E+03  0.37089308995E+03 -0.53167355009E+03  0.65932673091E+03  0.00000000000E+00 0. -1.
         -2    1    5    5    0  502  0.71715250890E+02 -0.17265935153E+02 -0.38366095185E+02  0.83145336530E+02  0.00000000000E+00 0.  1.
         -3    1    6    6    0  503  0.11939419657E+02  0.26391711023E+02 -0.72030633660E+02  0.77636874860E+02  0.00000000000E+00 0.  1.
<mgrwt>
<rscale>  0 0.12997005E+04</rscale>
<asrwt>0</asrwt>
<pdfrwt beam="1">  1        2 0.59847871E-01 0.12997005E+04</pdfrwt>
<pdfrwt beam="2">  1       -2 0.16701333E+00 0.12997005E+04</pdfrwt>
<totfact> 0.17986991E+01</totfact>
</mgrwt>
</event>
<event>
12    1  0.4672461E-008  0.1116863E+04  0.7818608E-02  0.9188910E-01
         -2   -1    0    0    0  501 -0.00000000000E+00  0.00000000000E+00  0.62456127394E+03  0.62456127394E+03  0.00000000000E+00 0. -1.
          2   -1    0    0  501    0  0.00000000000E+00 -0.00000000000E+00 -0.49930382062E+03  0.49930382062E+03  0.00000000000E+00 0.  1.
         23    2    1    2    0    0 -0.33843537234E+01 -0.39570190406E+02  0.19658857756E+03  0.22301233369E+03  0.97520143210E+02 0.  0.
        254    2    1    2    0    0  0.33843537234E+01  0.39570190406E+02 -0.71331124239E+02  0.90085276087E+03  0.89714564796E+03 0.  0.
         23    2    4    4    0    0 -0.86831061372E+02 -0.31649980607E+03 -0.30378686131E+03  0.45663706474E+03  0.92299465497E+02 0.  0.
         23    2    4    4    0    0  0.90215415095E+02  0.35606999647E+03  0.23245573707E+03  0.44421569613E+03  0.91472681622E+02 0.  0.
         13    1    3    3    0    0 -0.25993092995E+02 -0.39763177947E+02  0.32937575849E+02  0.57806877676E+02  0.00000000000E+00 0.  1.
        -13    1    3    3    0    0  0.22608739272E+02  0.19298754093E+00  0.16365100171E+03  0.16520545601E+03  0.00000000000E+00 0. -1.
          4    1    5    5  502    0 -0.10256019567E+03 -0.26706452382E+03 -0.27717813568E+03  0.39833374514E+03  0.00000000000E+00 0. -1.
          1    1    6    6  503    0  0.85829882493E+02  0.24524829626E+03  0.20224387824E+03  0.32926597431E+03  0.00000000000E+00 0. -1.
         -4    1    5    5    0  502  0.15729134298E+02 -0.49435282248E+02 -0.26608725626E+02  0.58303319598E+02  0.00000000000E+00 0.  1.
         -1    1    6    6    0  503  0.43855326016E+01  0.11082170021E+03  0.30211858823E+02  0.11494972182E+03  0.00000000000E+00 0.  1.
<mgrwt>
<rscale>  0 0.11168632E+04</rscale>
<asrwt>0</asrwt>
<pdfrwt beam="1">  1        2 0.76815973E-01 0.11168632E+04</pdfrwt>
<pdfrwt beam="2">  1       -2 0.96086350E-01 0.11168632E+04</pdfrwt>
<totfact> 0.55539323E+01</totfact>
</mgrwt>
</event>
<event>
12    1  0.4672461E-008  0.3040967E+04  0.7818608E-02  0.8232128E-01
          1   -1    0    0  501    0  0.00000000000E+00  0.00000000000E+00  0.22658202123E+04  0.22658202123E+04  0.00000000000E+00 0. -1.
         -1   -1    0    0    0  501 -0.00000000000E+00 -0.00000000000E+00 -0.10203238977E+04  0.10203238977E+04  0.00000000000E+00 0.  1.
         23    2    1    2    0    0  0.76426470975E+03  0.62539457003E+03  0.16223607065E+04  0.19014563632E+04  0.90901728492E+02 0.  0.
        254    2    1    2    0    0 -0.76426470975E+03 -0.62539457003E+03 -0.37686439189E+03  0.13846877468E+04  0.89449118027E+03 0.  0.
         23    2    4    4    0    0  0.68740057399E+02  0.68530209442E+02  0.12660042003E+03  0.18580055074E+03  0.95250161178E+02 0.  0.
         23    2    4    4    0    0 -0.83300476715E+03 -0.69392477948E+03 -0.50346481192E+03  0.11988871961E+04  0.91788618479E+02 0.  0.
         11    1    3    3    0    0  0.55463962077E+03  0.42310959643E+03  0.12076447833E+04  0.13946514841E+04  0.00000000000E+00 0. -1.
        -11    1    3    3    0    0  0.20962508898E+03  0.20228497361E+03  0.41471592324E+03  0.50680487909E+03  0.00000000000E+00 0.  1.
          1    1    5    5  502    0 -0.92137117224E+00 -0.17628070291E+01  0.73431451109E+02  0.73458385671E+02  0.00000000000E+00 0. -1.
          1    1    6    6  503    0 -0.88788305705E+01  0.94251167328E+00  0.46766894802E+00  0.89409549154E+01  0.00000000000E+00 0. -1.
         -1    1    5    5    0  502  0.69661428571E+02  0.70293016472E+02  0.53168968921E+02  0.11234216506E+03  0.00000000000E+00 0.  1.
         -1    1    6    6    0  503 -0.82412593658E+03 -0.69486729115E+03 -0.50393248087E+03  0.11899462412E+04  0.00000000000E+00 0.  1.
<mgrwt>
<rscale>  0 0.30409673E+04</rscale>
<asrwt>0</asrwt>
<pdfrwt beam="1">  1        1 0.34858772E+00 0.30409673E+04</pdfrwt>
<pdfrwt beam="2">  1       -1 0.15697291E+00 0.30409673E+04</pdfrwt>
<totfact> 0.51328849E-01</totfact>
</mgrwt>
</event>
<event>
12    1  0.4672461E-008  0.1432466E+04  0.7818608E-02  0.8930647E-01
         -1   -1    0    0    0  501 -0.00000000000E+00  0.00000000000E+00  0.48632483059E+03  0.48632483059E+03  0.00000000000E+00 0.  1.
          1   -1    0    0  501    0  0.00000000000E+00 -0.00000000000E+00 -0.10548298312E+04  0.10548298312E+04  0.00000000000E+00 0. -1.
         23    2    1    2    0    0 -0.33245682097E+03 -0.24282992895E+03 -0.25697993605E+03  0.49380887128E+03  0.91184437425E+02 0.  0.
        254    2    1    2    0    0  0.33245682097E+03  0.24282992895E+03 -0.31152506458E+03  0.10473457905E+04  0.91125815599E+03 0.  0.
         23    2    4    4    0    0  0.60908130630E+03  0.69436680002E+02 -0.34047731692E+03  0.70723535589E+03  0.91954092200E+02 0.  0.
         23    2    4    4    0    0 -0.27662448534E+03  0.17339324894E+03  0.28952252343E+02  0.34011043462E+03  0.90832539091E+02 0.  0.
         13    1    3    3    0    0 -0.21457949476E+03 -0.18991845267E+03 -0.13754200373E+03  0.31785402472E+03  0.00000000000E+00 0. -1.
        -13    1    3    3    0    0 -0.11787732621E+03 -0.52911476272E+02 -0.11943793231E+03  0.17595484657E+03  0.00000000000E+00 0.  1.
          2    1    5    5  502    0  0.49880642380E+03  0.37432988888E+02 -0.24066677034E+03  0.55509420050E+03  0.00000000000E+00 0. -1.
          3    1    6    6  503    0 -0.13082275117E+03  0.12697673544E+03 -0.87505104115E+01  0.18252193019E+03  0.00000000000E+00 0. -1.
         -2    1    5    5    0  502  0.11027488250E+03  0.32003691113E+02 -0.99810546585E+02  0.15214115539E+03  0.00000000000E+00 0.  1.
         -3    1    6    6    0  503 -0.14580173416E+03  0.46416513504E+02  0.37702762754E+02  0.15758850443E+03  0.00000000000E+00 0.  1.
<mgrwt>
<rscale>  0 0.14324663E+04</rscale>
<asrwt>0</asrwt>
<pdfrwt beam="1">  1        1 0.16228151E+00 0.14324663E+04</pdfrwt>
<pdfrwt beam="2">  1       -1 0.74819205E-01 0.14324663E+04</pdfrwt>
<totfact> 0.23985350E+01</totfact>
</mgrwt>
</event>
<event>
12    1  0.4672461E-008  0.1699595E+04  0.7818608E-02  0.8761595E-01
         -2   -1    0    0    0  501 -0.00000000000E+00  0.00000000000E+00  0.38199649665E+03  0.38199649665E+03  0.00000000000E+00 0.  1.
          2   -1    0    0  501    0  0.00000000000E+00 -0.00000000000E+00 -0.18904785941E+04  0.18904785941E+04  0.00000000000E+00 0. -1.
         23    2    1    2    0    0 -0.35316801027E+03  0.42753052177E+03 -0.18242381133E+03  0.59067209118E+03  0.90028228035E+02 0.  0.
        254    2    1    2    0    0  0.35316801027E+03 -0.42753052177E+03 -0.13260582861E+04  0.16818029995E+04  0.87322434726E+03 0.  0.
         23    2    4    4    0    0  0.28402909538E+01  0.24686832682E+03 -0.43387613356E+03  0.50623204828E+03  0.84085369675E+02 0.  0.
         23    2    4    4    0    0  0.35032771931E+03 -0.67439884859E+03 -0.89218215253E+03  0.11755709513E+04  0.91840896469E+02 0.  0.
         13    1    3    3    0    0 -0.34948445706E+03  0.39477547790E+03 -0.18178889728E+03  0.55770446193E+03  0.00000000000E+00 0.  1.
        -13    1    3    3    0    0 -0.36835532071E+01  0.32755043867E+02 -0.63491405091E+00  0.32967629257E+02  0.00000000000E+00 0. -1.
          3    1    6    6  502    0  0.22428095147E+03 -0.37347196357E+03 -0.45324259024E+03  0.62865896826E+03  0.00000000000E+00 0. -1.
          3    1    5    5  503    0 -0.20179214784E+02  0.46110253324E+02 -0.14663186302E+03  0.15502986623E+03  0.00000000000E+00 0. -1.
         -3    1    5    5    0  503  0.23019505738E+02  0.20075807350E+03 -0.28724427054E+03  0.35120218205E+03  0.00000000000E+00 0.  1.
         -3    1    6    6    0  502  0.12604676784E+03 -0.30092688502E+03 -0.43893956229E+03  0.54691198300E+03  0.00000000000E+00 0.  1.
<mgrwt>
<rscale>  0 0.16995955E+04</rscale>
<asrwt>0</asrwt>
<pdfrwt beam="1">  1        2 0.29084286E+00 0.16995955E+04</pdfrwt>
<pdfrwt beam="2">  1       -2 0.58768692E-01 0.16995955E+04</pdfrwt>
<totfact> 0.19791355E+01</totfact>
</mgrwt>
</event>
<event>
12    1  0.4672461E-008  0.1512703E+04  0.7818608E-02  0.8876049E-01
          2   -1    0    0  501    0  0.00000000000E+00  0.00000000000E+00  0.53222923274E+03  0.53222923274E+03  0.00000000000E+00 0. -1.
         -2   -1    0    0    0  501 -0.00000000000E+00 -0.00000000000E+00 -0.10748521859E+04  0.10748521859E+04  0.00000000000E+00 0.  1.
         23    2    1    2    0    0 -0.82334384644E+02 -0.28676506232E+03  0.22856250857E+03  0.38645268896E+03  0.89953924970E+02 0.  0.
        254    2    1    2    0    0  0.82334384644E+02  0.28676506232E+03 -0.77118546177E+03  0.12206287297E+04  0.89788324826E+03 0.  0.
         23    2    4    4    0    0 -0.23931013742E+03  0.46861678897E+03 -0.60017750148E+03  0.80329872252E+03  0.90580171906E+02 0.  0.
         23    2    4    4    0    0  0.32164452206E+03 -0.18185172665E+03 -0.17100796029E+03  0.41733000720E+03  0.91626215513E+02 0.  0.
         11    1    3    3    0    0 -0.92706830043E+02 -0.28128482700E+03  0.20519690945E+03  0.36030748242E+03  0.00000000000E+00 0. -1.
        -11    1    3    3    0    0  0.10372445399E+02 -0.54802353159E+01  0.23365599126E+02  0.26145206543E+02  0.00000000000E+00 0.  1.
          4    1    6    6  502    0 -0.34369655609E+00 -0.15454479719E+02 -0.18500648635E+02  0.24108775801E+02  0.00000000000E+00 0. -1.
          4    1    5    5  503    0 -0.81086731072E+02  0.98451833047E+02 -0.10553120303E+03  0.16554351754E+03  0.00000000000E+00 0. -1.
         -4    1    5    5    0  503 -0.15822340634E+03  0.37016495592E+03 -0.49464629845E+03  0.63775520498E+03  0.00000000000E+00 0.  1.
         -4    1    6    6    0  502  0.32198821862E+03 -0.16639724693E+03 -0.15250731166E+03  0.39322123140E+03  0.00000000000E+00 0.  1.
<mgrwt>
<rscale>  0 0.15127032E+04</rscale>
<asrwt>0</asrwt>
<pdfrwt beam="1">  1        2 0.81881421E-01 0.15127032E+04</pdfrwt>
<pdfrwt beam="2">  1       -2 0.16536187E+00 0.15127032E+04</pdfrwt>
<totfact> 0.12700745E+01</totfact>
</mgrwt>
</event>
<event>
12    1  0.4672461E-008  0.1499705E+04  0.7818608E-02  0.8884649E-01
         -2   -1    0    0    0  501 -0.00000000000E+00  0.00000000000E+00  0.90418876405E+03  0.90418876405E+03  0.00000000000E+00 0.  1.
          2   -1    0    0  501    0  0.00000000000E+00 -0.00000000000E+00 -0.62185969328E+03  0.62185969328E+03  0.00000000000E+00 0. -1.
         23    2    1    2    0    0  0.10268558884E+03  0.44899952334E+03  0.21268121696E+03  0.51550948709E+03  0.91497700027E+02 0.  0.
        254    2    1    2    0    0 -0.10268558884E+03 -0.44899952334E+03  0.69647853803E+02  0.10105389702E+04  0.89676824471E+03 0.  0.
         23    2    4    4    0    0  0.59904337713E+02  0.25305545015E+03  0.69843521428E+02  0.28426546121E+03  0.91121591441E+02 0.  0.
         23    2    4    4    0    0 -0.16258992656E+03 -0.70205497349E+03 -0.19566762431E+00  0.72627350903E+03  0.90313352322E+02 0.  0.
         11    1    3    3    0    0  0.72317211435E+02  0.28035369851E+03  0.84800114246E+02  0.30169361066E+03  0.00000000000E+00 0. -1.
        -11    1    3    3    0    0  0.30368377408E+02  0.16864582483E+03  0.12788110271E+03  0.21381587642E+03  0.00000000000E+00 0.  1.
          4    1    5    5  502    0  0.38046592158E+02  0.88470526667E+02  0.68585139738E+02  0.11823070099E+03  0.00000000000E+00 0.  1.
          3    1    6    6  503    0 -0.81690129101E+01 -0.56779756545E+01  0.82598933424E+01  0.12930507240E+02  0.00000000000E+00 0. -1.
         -4    1    5    5    0  502  0.21857745555E+02  0.16458492348E+03  0.12583816899E+01  0.16603476022E+03  0.00000000000E+00 0. -1.
         -3    1    6    6    0  503 -0.15442091365E+03 -0.69637699784E+03 -0.84555609668E+01  0.71334300179E+03  0.00000000000E+00 0.  1.
<mgrwt>
<rscale>  0 0.14997047E+04</rscale>
<asrwt>0</asrwt>
<pdfrwt beam="1">  1        2 0.95670722E-01 0.14997047E+04</pdfrwt>
<pdfrwt beam="2">  1       -2 0.13910596E+00 0.14997047E+04</pdfrwt>
<totfact> 0.16744722E+01</totfact>
</mgrwt>
</event>
<event>
12    1  0.4672461E-008  0.2275208E+04  0.7818608E-02  0.8487761E-01
          2   -1    0    0  501    0  0.00000000000E+00  0.00000000000E+00  0.27302328735E+04  0.27302328735E+04  0.00000000000E+00 0. -1.
         -2   -1    0    0    0  501 -0.00000000000E+00 -0.00000000000E+00 -0.47400476923E+03  0.47400476923E+03  0.00000000000E+00 0.  1.
         23    2    1    2    0    0 -0.89762109351E+03  0.31910018548E+03  0.12979293241E+04  0.16125896672E+04  0.90974437861E+02 0.  0.
        254    2    1    2    0    0  0.89762109351E+03 -0.31910018548E+03  0.95829878013E+03  0.15916479756E+04  0.84110532646E+03 0.  0.
         23    2    4    4    0    0  0.41925349912E+03  0.25957070816E+03  0.27287419792E+03  0.57098529613E+03  0.91724759225E+02 0.  0.
         23    2    4    4    0    0  0.47836759440E+03 -0.57867089363E+03  0.68542458221E+03  0.10206626794E+04  0.90828898247E+02 0.  0.
         13    1    3    3    0    0 -0.83273966223E+03  0.31156553058E+03  0.12360730948E+04  0.15226309863E+04  0.00000000000E+00 0. -1.
        -13    1    3    3    0    0 -0.64881431278E+02  0.75346548981E+01  0.61856229361E+02  0.89958680848E+02  0.00000000000E+00 0.  1.
          1    1    5    5  502    0  0.24224985309E+03  0.19337898720E+03  0.14090823401E+03  0.34049310481E+03  0.00000000000E+00 0. -1.
          3    1    6    6  503    0  0.43577950043E+03 -0.47832774494E+03  0.57838588275E+03  0.86788906777E+03  0.00000000000E+00 0. -1.
         -1    1    5    5    0  502  0.17700364602E+03  0.66191720959E+02  0.13196596391E+03  0.23049219132E+03  0.00000000000E+00 0.  1.
         -3    1    6    6    0  503  0.42588093965E+02 -0.10034314869E+03  0.10703869946E+03  0.15277361166E+03  0.00000000000E+00 0.  1.
<mgrwt>
<rscale>  0 0.22752085E+04</rscale>
<asrwt>0</asrwt>
<pdfrwt beam="1">  1        2 0.42003582E+00 0.22752085E+04</pdfrwt>
<pdfrwt beam="2">  1       -2 0.72923812E-01 0.22752085E+04</pdfrwt>
<totfact> 0.39331656E+00</totfact>
</mgrwt>
</event>
<event>
12    1  0.4672461E-008  0.1778358E+04  0.7818608E-02  0.8717894E-01
         -1   -1    0    0    0  501 -0.00000000000E+00  0.00000000000E+00  0.84921003749E+03  0.84921003749E+03  0.00000000000E+00 0.  1.
          1   -1    0    0  501    0  0.00000000000E+00 -0.00000000000E+00 -0.93102911983E+03  0.93102911983E+03  0.00000000000E+00 0. -1.
         23    2    1    2    0    0 -0.25224647296E+03  0.10234657726E+03  0.56545326062E+03  0.63444651489E+03  0.93176634989E+02 0.  0.
        254    2    1    2    0    0  0.25224647296E+03 -0.10234657726E+03 -0.64727234296E+03  0.11457926424E+04  0.90541492615E+03 0.  0.
         23    2    4    4    0    0  0.18472265896E+03  0.19076468838E+03  0.12856095964E+03  0.30869999774E+03  0.90852304296E+02 0.  0.
         23    2    4    4    0    0  0.67523813998E+02 -0.29311126563E+03 -0.77583330260E+03  0.83709264469E+03  0.91285830672E+02 0.  0.
         11    1    3    3    0    0 -0.17089698369E+03  0.44356173682E+02  0.27039911198E+03  0.32293796454E+03  0.00000000000E+00 0. -1.
        -11    1    3    3    0    0 -0.81349489265E+02  0.57990403575E+02  0.29505414864E+03  0.31150855035E+03  0.00000000000E+00 0.  1.
          1    1    5    5  502    0  0.21031222192E+02  0.77704312917E+02  0.50276024864E+02  0.94910227209E+02  0.00000000000E+00 0. -1.
          3    1    6    6  503    0  0.77700331440E+02 -0.18904426564E+03 -0.43586971910E+03  0.48141197316E+03  0.00000000000E+00 0. -1.
         -1    1    5    5    0  502  0.16369143677E+03  0.11306037546E+03  0.78284934772E+02  0.21378977053E+03  0.00000000000E+00 0.  1.
         -3    1    6    6    0  503 -0.10176517441E+02 -0.10406699999E+03 -0.33996358350E+03  0.35568067153E+03  0.00000000000E+00 0.  1.
<mgrwt>
<rscale>  0 0.17783580E+04</rscale>
<asrwt>0</asrwt>
<pdfrwt beam="1">  1        1 0.14323525E+00 0.17783580E+04</pdfrwt>
<pdfrwt beam="2">  1       -1 0.13064770E+00 0.17783580E+04</pdfrwt>
<totfact> 0.81290013E+00</totfact>
</mgrwt>
</event>
<event>
12    1  0.4672461E-008  0.1069314E+04  0.7818608E-02  0.9235628E-01
          1   -1    0    0  501    0  0.00000000000E+00  0.00000000000E+00  0.20209170265E+03  0.20209170265E+03  0.00000000000E+00 0. -1.
         -1   -1    0    0    0  501 -0.00000000000E+00 -0.00000000000E+00 -0.14144972373E+04  0.14144972373E+04  0.00000000000E+00 0.  1.
         23    2    1    2    0    0 -0.11076194808E+03 -0.51679731612E+02 -0.18253127527E+03  0.23814807746E+03  0.91966496874E+02 0.  0.
        254    2    1    2    0    0  0.11076194808E+03  0.51679731612E+02 -0.10298742594E+04  0.13784408625E+04  0.90803040558E+03 0.  0.
         23    2    4    4    0    0  0.44416949369E+03  0.24873056305E+03 -0.54712856772E+03  0.75271065049E+03  0.89834412303E+02 0.  0.
         23    2    4    4    0    0 -0.33340754561E+03 -0.19705083144E+03 -0.48274569169E+03  0.62573021202E+03  0.92224041012E+02 0.  0.
         11    1    3    3    0    0 -0.47442099296E+02 -0.29283341770E+02 -0.15118963114E+02  0.57765473568E+02  0.00000000000E+00 0. -1.
        -11    1    3    3    0    0 -0.63319848783E+02 -0.22396389841E+02 -0.16741231215E+03  0.18038260390E+03  0.00000000000E+00 0.  1.
          1    1    5    5  502    0  0.14607350384E+03  0.36733440084E+02 -0.14441996774E+03  0.20867185058E+03  0.00000000000E+00 0. -1.
          3    1    6    6  503    0 -0.22489506449E+03 -0.10394645805E+03 -0.24587707133E+03  0.34905327728E+03  0.00000000000E+00 0. -1.
         -1    1    5    5    0  502  0.29809598986E+03  0.21199712297E+03 -0.40270859998E+03  0.54403879991E+03  0.00000000000E+00 0.  1.
         -3    1    6    6    0  503 -0.10851248112E+03 -0.93104373391E+02 -0.23686862037E+03  0.27667693474E+03  0.00000000000E+00 0.  1.
<mgrwt>
<rscale>  0 0.10693141E+04</rscale>
<asrwt>0</asrwt>
<pdfrwt beam="1">  1        1 0.31091033E-01 0.10693141E+04</pdfrwt>
<pdfrwt beam="2">  1       -1 0.21761495E+00 0.10693141E+04</pdfrwt>
<totfact> 0.16766707E+01</totfact>
</mgrwt>
</event>
<event>
12    1  0.4672461E-008  0.1484441E+04  0.7818608E-02  0.8894866E-01
         -1   -1    0    0    0  501 -0.00000000000E+00  0.00000000000E+00  0.66108040327E+03  0.66108040327E+03  0.00000000000E+00 0.  1.
          1   -1    0    0  501    0  0.00000000000E+00 -0.00000000000E+00 -0.83331963363E+03  0.83331963363E+03  0.00000000000E+00 0. -1.
         23    2    1    2    0    0  0.20066286186E+03  0.39618680672E+03  0.77998922647E+02  0.45971282346E+03  0.89568287740E+02 0.  0.
        254    2    1    2    0    0 -0.20066286186E+03 -0.39618680672E+03 -0.25023815300E+03  0.10346872134E+04  0.90040486810E+03 0.  0.
         23    2    4    4    0    0  0.13550849594E+03 -0.48418877162E+03 -0.39788724796E+03  0.64736910143E+03  0.89281422233E+02 0.  0.
         23    2    4    4    0    0 -0.33617135780E+03  0.88001964906E+02  0.14764909495E+03  0.38731811202E+03  0.86368611338E+02 0.  0.
         13    1    3    3    0    0  0.20217019522E+03  0.37769666544E+03  0.57792331015E+02  0.43228175122E+03  0.00000000000E+00 0.  1.
        -13    1    3    3    0    0 -0.15073333588E+01  0.18490141282E+02  0.20206591632E+02  0.27431072233E+02  0.00000000000E+00 0. -1.
          2    1    5    5  502    0  0.22316782501E+02 -0.17331665721E+03 -0.18207219210E+03  0.25236280547E+03  0.00000000000E+00 0. -1.
          3    1    6    6  503    0 -0.13972297696E+03  0.33716709675E+02  0.10775427196E+03  0.17963938858E+03  0.00000000000E+00 0. -1.
         -2    1    5    5    0  502  0.11319171344E+03 -0.31087211441E+03 -0.21581505585E+03  0.39500629596E+03  0.00000000000E+00 0.  1.
         -3    1    6    6    0  503 -0.19644838084E+03  0.54285255230E+02  0.39894822996E+02  0.20767872344E+03  0.00000000000E+00 0.  1.
<mgrwt>
<rscale>  0 0.14844410E+04</rscale>
<asrwt>0</asrwt>
<pdfrwt beam="1">  1        1 0.12820302E+00 0.14844410E+04</pdfrwt>
<pdfrwt beam="2">  1       -1 0.10170468E+00 0.14844410E+04</pdfrwt>
<totfact> 0.18379790E+01</totfact>
</mgrwt>
</event>
<event>
12    1  0.4672461E-008  0.2796163E+04  0.7818608E-02  0.8304461E-01
         -1   -1    0    0    0  501 -0.00000000000E+00  0.00000000000E+00  0.89482153408E+03  0.89482153408E+03  0.00000000000E+00 0.  1.
          1   -1    0    0  501    0  0.00000000000E+00 -0.00000000000E+00 -0.21843818331E+04  0.21843818331E+04  0.00000000000E+00 0. -1.
         23    2    1    2    0    0 -0.76252233181E+03  0.97327210769E+03 -0.77658822755E+03  0.14629492864E+04  0.91828303273E+02 0.  0.
        254    2    1    2    0    0  0.76252233181E+03 -0.97327210769E+03 -0.51297207150E+03  0.16162540808E+04  0.90578032961E+03 0.  0.
         23    2    4    4    0    0  0.40644034616E+03 -0.10612750548E+04 -0.28644477794E+03  0.11755389947E+04  0.91339040682E+02 0.  0.
         23    2    4    4    0    0  0.35608198566E+03  0.88002947099E+02 -0.22652729356E+03  0.44071508612E+03  0.91521982046E+02 0.  0.
         11    1    3    3    0    0 -0.44631990034E+03  0.59293339346E+03 -0.41530941338E+03  0.85044304416E+03  0.00000000000E+00 0. -1.
        -11    1    3    3    0    0 -0.31620243147E+03  0.38033871423E+03 -0.36127881417E+03  0.61250624223E+03  0.00000000000E+00 0.  1.
          1    1    5    5  502    0  0.10103178603E+03 -0.17565820121E+03 -0.35674441735E+02  0.20575687409E+03  0.00000000000E+00 0. -1.
          3    1    6    6  503    0  0.30763365228E+02  0.20757921205E+02  0.25394572056E+01  0.37198451255E+02  0.00000000000E+00 0. -1.
         -1    1    5    5    0  502  0.30540856012E+03 -0.88561685358E+03 -0.25077033621E+03  0.96978212061E+03  0.00000000000E+00 0.  1.
         -3    1    6    6    0  503  0.32531862043E+03  0.67245025894E+02 -0.22906675076E+03  0.40351663486E+03  0.00000000000E+00 0.  1.
<mgrwt>
<rscale>  0 0.27961630E+04</rscale>
<asrwt>0</asrwt>
<pdfrwt beam="1">  1        1 0.33605874E+00 0.27961630E+04</pdfrwt>
<pdfrwt beam="2">  1       -1 0.13766485E+00 0.27961630E+04</pdfrwt>
<totfact> 0.84662511E-01</totfact>
</mgrwt>
</event>
<event>
12    1  0.4672461E-008  0.2169673E+04  0.7818608E-02  0.8531158E-01
         -3   -1    0    0    0  501 -0.00000000000E+00  0.00000000000E+00  0.61359910936E+03  0.61359910936E+03  0.00000000000E+00 0.  1.
          3   -1    0    0  501    0  0.00000000000E+00 -0.00000000000E+00 -0.19179793113E+04  0.19179793113E+04  0.00000000000E+00 0. -1.
         23    2    1    2    0    0  0.24211215280E+03 -0.52051488958E+03  0.25868526215E+03  0.63597562916E+03  0.89402970963E+02 0.  0.
        254    2    1    2    0    0 -0.24211215280E+03  0.52051488958E+03 -0.15630654641E+04  0.18956027915E+04  0.90585995236E+03 0.  0.
         23    2    4    4    0    0 -0.47581995996E+03  0.50480453923E+03 -0.14674228564E+04  0.16255919521E+04  0.89370565236E+02 0.  0.
         23    2    4    4    0    0  0.23370780716E+03  0.15710350349E+02 -0.95642607707E+02  0.27001083947E+03  0.94298413477E+02 0.  0.
         11    1    3    3    0    0  0.95070511130E+02 -0.12090665739E+03  0.88270333790E+02  0.17733717522E+03  0.00000000000E+00 0. -1.
        -11    1    3    3    0    0  0.14704164167E+03 -0.39960823219E+03  0.17041492836E+03  0.45863845394E+03  0.00000000000E+00 0.  1.
          4    1    5    5  502    0 -0.45862819325E+03  0.46677256931E+03 -0.13351418520E+04  0.14868827177E+04  0.00000000000E+00 0. -1.
          4    1    6    6  503    0  0.24188001456E+03  0.97078455572E+01 -0.89141110893E+02  0.25796573680E+03  0.00000000000E+00 0. -1.
         -4    1    5    5    0  502 -0.17191766711E+02  0.38031969924E+02 -0.13228100439E+03  0.13870923437E+03  0.00000000000E+00 0.  1.
         -4    1    6    6    0  503 -0.81722073991E+01  0.60025047915E+01 -0.65014968133E+01  0.12045102671E+02  0.00000000000E+00 0.  1.
<mgrwt>
<rscale>  0 0.21696732E+04</rscale>
<asrwt>0</asrwt>
<pdfrwt beam="1">  1        3 0.29507373E+00 0.21696732E+04</pdfrwt>
<pdfrwt beam="2">  1       -3 0.94399865E-01 0.21696732E+04</pdfrwt>
<totfact> 0.98481051E-02</totfact>
</mgrwt>
</event>
<event>
12    1  0.4672461E-008  0.3085172E+04  0.7818608E-02  0.8219819E-01
          2   -1    0    0  501    0  0.00000000000E+00  0.00000000000E+00  0.19024626942E+04  0.19024626942E+04  0.00000000000E+00 0.  1.
         -2   -1    0    0    0  501 -0.00000000000E+00 -0.00000000000E+00 -0.12507844917E+04  0.12507844917E+04  0.00000000000E+00 0. -1.
         23    2    1    2    0    0 -0.12759177106E+04 -0.75747308080E+02  0.90440878459E+03  0.15698013783E+04  0.11232746279E+03 0.  0.
        254    2    1    2    0    0  0.12759177106E+04  0.75747308080E+02 -0.25273058208E+03  0.15834458075E+04  0.89984677553E+03 0.  0.
         23    2    4    4    0    0  0.70108804773E+03 -0.37709454303E+03 -0.27073775306E+03  0.84578900851E+03  0.91298252614E+02 0.  0.
         23    2    4    4    0    0  0.57482966282E+03  0.45284185111E+03  0.18007170983E+02  0.73765679901E+03  0.91205326243E+02 0.  0.
         13    1    3    3    0    0 -0.11978872816E+04 -0.76421725846E+02  0.81362477487E+03  0.14500894779E+04  0.00000000000E+00 0.  1.
        -13    1    3    3    0    0 -0.78030428990E+02  0.67441776641E+00  0.90784009718E+02  0.11971190045E+03  0.00000000000E+00 0. -1.
          4    1    5    5  502    0  0.57689222890E+03 -0.31602723520E+03 -0.18625586160E+03  0.68364398859E+03  0.00000000000E+00 0. -1.
          1    1    6    6  503    0  0.29313692064E+03  0.28573228716E+03 -0.41572225602E+01  0.40937693715E+03  0.00000000000E+00 0. -1.
         -4    1    5    5    0  502  0.12419581884E+03 -0.61067307832E+02 -0.84481891461E+02  0.16214501993E+03  0.00000000000E+00 0.  1.
         -1    1    6    6    0  503  0.28169274218E+03  0.16710956395E+03  0.22164393543E+02  0.32827986186E+03  0.00000000000E+00 0.  1.
<mgrwt>
<rscale>  0 0.30851715E+04</rscale>
<asrwt>0</asrwt>
<pdfrwt beam="1">  1        2 0.29268657E+00 0.30851715E+04</pdfrwt>
<pdfrwt beam="2">  1       -2 0.19242838E+00 0.30851715E+04</pdfrwt>
<totfact> 0.96078512E-01</totfact>
</mgrwt>
</event>
<event>
12    1  0.4672461E-008  0.1649589E+04  0.7818608E-02  0.8790650E-01
         -2   -1    0    0    0  501 -0.00000000000E+00  0.00000000000E+00  0.27179039893E+03  0.27179039893E+03  0.00000000000E+00 0.  1.
          2   -1    0    0  501    0  0.00000000000E+00 -0.00000000000E+00 -0.25029786898E+04  0.25029786898E+04  0.00000000000E+00 0. -1.
         23    2    1    2    0    0  0.15172325506E+03 -0.54537667937E+03 -0.71381178947E+03  0.91637553053E+03  0.98798652022E+02 0.  0.
        254    2    1    2    0    0 -0.15172325506E+03  0.54537667937E+03 -0.15173765014E+04  0.18583935582E+04  0.91144912180E+03 0.  0.
         23    2    4    4    0    0  0.91116957219E+02  0.64974776951E+03 -0.14151832117E+04  0.15624445595E+04  0.89526616786E+02 0.  0.
         23    2    4    4    0    0 -0.24284021228E+03 -0.10437109013E+03 -0.10219328972E+03  0.29594899867E+03  0.85309133123E+02 0.  0.
         11    1    3    3    0    0  0.15101874644E+03 -0.50772741148E+03 -0.62109876354E+03  0.81630720945E+03  0.00000000000E+00 0. -1.
        -11    1    3    3    0    0  0.70450862636E+00 -0.37649267892E+02 -0.92713025933E+02  0.10006832108E+03  0.00000000000E+00 0.  1.
          2    1    5    5  502    0  0.92515027484E+02  0.65218765628E+03 -0.14029980339E+04  0.15499391125E+04  0.00000000000E+00 0. -1.
          3    1    6    6  503    0 -0.17900960203E+03 -0.10820342906E+03 -0.10030047072E+03  0.23197543858E+03  0.00000000000E+00 0. -1.
         -2    1    5    5    0  502 -0.13980702657E+01 -0.24398867790E+01 -0.12185177781E+02  0.12505447034E+02  0.00000000000E+00 0.  1.
         -3    1    6    6    0  503 -0.63830610256E+02  0.38323389219E+01 -0.18928190004E+01  0.63973560093E+02  0.00000000000E+00 0.  1.
<mgrwt>
<rscale>  0 0.16495885E+04</rscale>
<asrwt>0</asrwt>
<pdfrwt beam="1">  1        2 0.38507364E+00 0.16495885E+04</pdfrwt>
<pdfrwt beam="2">  1       -2 0.41813908E-01 0.16495885E+04</pdfrwt>
<totfact> 0.17986158E+01</totfact>
</mgrwt>
</event>
<event>
12    1  0.4672461E-008  0.3198633E+04  0.7818608E-02  0.8189178E-01
         -3   -1    0    0    0  501 -0.00000000000E+00  0.00000000000E+00  0.85369358120E+03  0.85369358120E+03  0.00000000000E+00 0.  1.
          3   -1    0    0  501    0  0.00000000000E+00 -0.00000000000E+00 -0.29961725068E+04  0.29961725068E+04  0.00000000000E+00 0. -1.
         23    2    1    2    0    0  0.47560390659E+03  0.49008857535E+03 -0.25596275170E+04  0.26507322033E+04  0.91116958624E+02 0.  0.
        254    2    1    2    0    0 -0.47560390659E+03 -0.49008857535E+03  0.41714859144E+03  0.11991338847E+04  0.89304156586E+03 0.  0.
         23    2    4    4    0    0 -0.37459670118E+03 -0.68039070054E+03  0.74693276118E+02  0.78553990402E+03  0.90772580632E+02 0.  0.
         23    2    4    4    0    0 -0.10100720541E+03  0.19030212519E+03  0.34245531532E+03  0.41359398064E+03  0.85831133226E+02 0.  0.
         11    1    3    3    0    0  0.17043070139E+03  0.17621802581E+03 -0.10934329438E+04  0.11205779844E+04  0.00000000000E+00 0.  1.
        -11    1    3    3    0    0  0.30517320519E+03  0.31387054954E+03 -0.14661945733E+04  0.15301542189E+04  0.00000000000E+00 0. -1.
          4    1    5    5  502    0 -0.13278201688E+03 -0.24493828017E+03  0.70657698028E+02  0.28743405398E+03  0.00000000000E+00 0. -1.
          3    1    6    6  503    0 -0.12701461831E+02  0.13656211152E+02  0.95899501798E+02  0.97696129303E+02  0.00000000000E+00 0. -1.
         -4    1    5    5    0  502 -0.24181468430E+03 -0.43545242038E+03  0.40355780900E+01  0.49810585004E+03  0.00000000000E+00 0.  1.
         -3    1    6    6    0  503 -0.88305743581E+02  0.17664591404E+03  0.24655581352E+03  0.31589785134E+03  0.00000000000E+00 0.  1.
<mgrwt>
<rscale>  0 0.31986330E+04</rscale>
<asrwt>0</asrwt>
<pdfrwt beam="1">  1        3 0.46094961E+00 0.31986330E+04</pdfrwt>
<pdfrwt beam="2">  1       -3 0.13133748E+00 0.31986330E+04</pdfrwt>
<totfact> 0.53004847E-03</totfact>
</mgrwt>
</event>
<event>
12    1  0.4672461E-008  0.1542298E+04  0.7818608E-02  0.8856802E-01
         -2   -1    0    0    0  501 -0.00000000000E+00  0.00000000000E+00  0.64689842321E+03  0.64689842321E+03  0.00000000000E+00 0.  1.
          2   -1    0    0  501    0  0.00000000000E+00 -0.00000000000E+00 -0.91926435644E+03  0.91926435644E+03  0.00000000000E+00 0. -1.
         23    2    1    2    0    0  0.13387005162E+03 -0.28446718757E+03 -0.50729935186E+03  0.60366732201E+03  0.90657772671E+02 0.  0.
        254    2    1    2    0    0 -0.13387005162E+03  0.28446718757E+03  0.23493341862E+03  0.96249545764E+03  0.87884072690E+03 0.  0.
         23    2    4    4    0    0 -0.97366783900E+02  0.32383275214E+03 -0.27279308178E+03  0.44386082718E+03  0.90820848235E+02 0.  0.
         23    2    4    4    0    0 -0.36503267723E+02 -0.39365564575E+02  0.50772650040E+03  0.51863463045E+03  0.91178640406E+02 0.  0.
         11    1    3    3    0    0 -0.13481873719E+02 -0.34426441201E+02 -0.57877727620E+02  0.68678760379E+02  0.00000000000E+00 0.  1.
        -11    1    3    3    0    0  0.14735192534E+03 -0.25004074637E+03 -0.44942162424E+03  0.53498856164E+03  0.00000000000E+00 0. -1.
          4    1    5    5  502    0  0.15690455074E+02  0.23849597174E+02 -0.13674083687E+02  0.31653976535E+02  0.00000000000E+00 0. -1.
          3    1    6    6  503    0 -0.10652740858E+02  0.29794625194E+02  0.17184712605E+03  0.17473590161E+03  0.00000000000E+00 0. -1.
         -4    1    5    5    0  502 -0.11305723897E+03  0.29998315497E+03 -0.25911899809E+03  0.41220685065E+03  0.00000000000E+00 0.  1.
         -3    1    6    6    0  503 -0.25850526865E+02 -0.69160189769E+02  0.33587937435E+03  0.34389872884E+03  0.00000000000E+00 0.  1.
<mgrwt>
<rscale>  0 0.15422978E+04</rscale>
<asrwt>0</asrwt>
<pdfrwt beam="1">  1        2 0.14142528E+00 0.15422978E+04</pdfrwt>
<pdfrwt beam="2">  1       -2 0.99522835E-01 0.15422978E+04</pdfrwt>
<totfact> 0.22902599E+01</totfact>
</mgrwt>
</event>
<event>
12    1  0.4672461E-008  0.1412771E+04  0.7818608E-02  0.8944626E-01
          2   -1    0    0  501    0  0.00000000000E+00  0.00000000000E+00  0.43494449553E+03  0.43494449553E+03  0.00000000000E+00 0. -1.
         -2   -1    0    0    0  501 -0.00000000000E+00 -0.00000000000E+00 -0.11472284305E+04  0.11472284305E+04  0.00000000000E+00 0.  1.
         23    2    1    2    0    0 -0.16829460075E+03 -0.25231651348E+03  0.93816698984E+02  0.33572620211E+03  0.10919621860E+03 0.  0.
        254    2    1    2    0    0  0.16829460075E+03  0.25231651348E+03 -0.80610063398E+03  0.12464467239E+04  0.90102414391E+03 0.  0.
         23    2    4    4    0    0  0.15764590756E+02 -0.86366111098E+02 -0.85143122839E+03  0.86121628944E+03  0.95135340679E+02 0.  0.
         23    2    4    4    0    0  0.15253000999E+03  0.33868262458E+03  0.45330594407E+02  0.38523043451E+03  0.91522132530E+02 0.  0.
         11    1    3    3    0    0 -0.53865579620E+02 -0.17546159872E+03  0.66386262829E+02  0.19518045287E+03  0.00000000000E+00 0. -1.
        -11    1    3    3    0    0 -0.11442902112E+03 -0.76854914768E+02  0.27430436154E+02  0.14054574923E+03  0.00000000000E+00 0.  1.
          2    1    5    5  502    0 -0.17014775252E+02 -0.39724099008E+01 -0.27864244949E+02  0.32889189164E+02  0.00000000000E+00 0. -1.
          4    1    6    6  503    0  0.13721498488E+02  0.56942104450E+02 -0.24487913574E+02  0.63484964292E+02  0.00000000000E+00 0. -1.
         -2    1    5    5    0  502  0.32779366008E+02 -0.82393701197E+02 -0.82356698344E+03  0.82832710027E+03  0.00000000000E+00 0.  1.
         -4    1    6    6    0  503  0.13880851150E+03  0.28174052013E+03  0.69818507981E+02  0.32174547022E+03  0.00000000000E+00 0.  1.
<mgrwt>
<rscale>  0 0.14127713E+04</rscale>
<asrwt>0</asrwt>
<pdfrwt beam="1">  1        2 0.66914539E-01 0.14127713E+04</pdfrwt>
<pdfrwt beam="2">  1       -2 0.17649668E+00 0.14127713E+04</pdfrwt>
<totfact> 0.13469398E+01</totfact>
</mgrwt>
</event>
<event>
12    1  0.4672461E-008  0.1890311E+04  0.7818608E-02  0.8659694E-01
          1   -1    0    0  501    0  0.00000000000E+00  0.00000000000E+00  0.57018426430E+03  0.57018426430E+03  0.00000000000E+00 0. -1.
         -1   -1    0    0    0  501 -0.00000000000E+00 -0.00000000000E+00 -0.15667203211E+04  0.15667203211E+04  0.00000000000E+00 0.  1.
         23    2    1    2    0    0 -0.63698918365E+03  0.10359301903E+03 -0.76104397027E+03  0.10019094789E+04  0.90265970931E+02 0.  0.
        254    2    1    2    0    0  0.63698918365E+03 -0.10359301903E+03 -0.23549208648E+03  0.11349951065E+04  0.90347696996E+03 0.  0.
         23    2    4    4    0    0  0.20664096834E+03 -0.46892353342E+03 -0.21293626974E+03  0.56251655187E+03  0.92158809492E+02 0.  0.
         23    2    4    4    0    0  0.43034821531E+03  0.36533051439E+03 -0.22555816735E+02  0.57247855460E+03  0.92503834767E+02 0.  0.
         13    1    3    3    0    0 -0.48146458791E+03  0.63166903534E+02 -0.62424981043E+03  0.79087674952E+03  0.00000000000E+00 0.  1.
        -13    1    3    3    0    0 -0.15552459574E+03  0.40426115499E+02 -0.13679415985E+03  0.21103272936E+03  0.00000000000E+00 0. -1.
          2    1    5    5  502    0  0.32509972867E+01 -0.19824731566E+02 -0.31139399991E+02  0.37057404076E+02  0.00000000000E+00 0.  1.
          1    1    6    6  503    0  0.40987357914E+03  0.32599606838E+03 -0.22652765498E+01  0.52371263012E+03  0.00000000000E+00 0. -1.
         -2    1    5    5    0  502  0.20338997105E+03 -0.44909880185E+03 -0.18179686975E+03  0.52545914780E+03  0.00000000000E+00 0. -1.
         -1    1    6    6    0  503  0.20474636176E+02  0.39334446010E+02 -0.20290540185E+02  0.48765924480E+02  0.00000000000E+00 0.  1.
<mgrwt>
<rscale>  0 0.18903114E+04</rscale>
<asrwt>0</asrwt>
<pdfrwt beam="1">  1        1 0.87720657E-01 0.18903114E+04</pdfrwt>
<pdfrwt beam="2">  1       -1 0.24103389E+00 0.18903114E+04</pdfrwt>
<totfact> 0.27542360E+00</totfact>
</mgrwt>
</event>
<event>
12    1  0.4672461E-008  0.1316127E+04  0.7818608E-02  0.9016873E-01
         -2   -1    0    0    0  501 -0.00000000000E+00  0.00000000000E+00  0.33350317537E+03  0.33350317537E+03  0.00000000000E+00 0.  1.
          2   -1    0    0  501    0  0.00000000000E+00 -0.00000000000E+00 -0.12984811940E+04  0.12984811940E+04  0.00000000000E+00 0. -1.
         23    2    1    2    0    0  0.26978785057E+03  0.19832039649E+02 -0.51558498048E+03  0.58992251247E+03  0.94878366910E+02 0.  0.
        254    2    1    2    0    0 -0.26978785057E+03 -0.19832039649E+02 -0.44939303817E+03  0.10420618569E+04  0.90042213256E+03 0.  0.
         23    2    4    4    0    0  0.95748389386E+02  0.36824719930E+03 -0.25332972962E+03  0.46608862442E+03  0.91043396451E+02 0.  0.
         23    2    4    4    0    0 -0.36553623996E+03 -0.38807923895E+03 -0.19606330855E+03  0.57597323251E+03  0.95300079650E+02 0.  0.
         11    1    3    3    0    0  0.23576191917E+02  0.32231045245E+02 -0.80066077613E+02  0.89472084402E+02  0.00000000000E+00 0.  1.
        -11    1    3    3    0    0  0.24621165865E+03 -0.12399005596E+02 -0.43551890287E+03  0.50045042807E+03  0.00000000000E+00 0. -1.
          2    1    5    5  502    0  0.83721066033E+01  0.92295348100E+02 -0.21240516551E+02  0.95077247505E+02  0.00000000000E+00 0. -1.
          3    1    6    6  503    0 -0.14564085292E+01 -0.29511858126E+02 -0.29398221909E+01  0.29693660104E+02  0.00000000000E+00 0. -1.
         -2    1    5    5    0  502  0.87376282783E+02  0.27595185120E+03 -0.23208921306E+03  0.37101137691E+03  0.00000000000E+00 0.  1.
         -3    1    6    6    0  503 -0.36407983143E+03 -0.35856738083E+03 -0.19312348636E+03  0.54627957241E+03  0.00000000000E+00 0.  1.
<mgrwt>
<rscale>  0 0.13161270E+04</rscale>
<asrwt>0</asrwt>
<pdfrwt beam="1">  1        2 0.19976634E+00 0.13161270E+04</pdfrwt>
<pdfrwt beam="2">  1       -2 0.51308180E-01 0.13161270E+04</pdfrwt>
<totfact> 0.58199991E+01</totfact>
</mgrwt>
</event>
<event>
12    1  0.4672461E-008  0.1606773E+04  0.7818608E-02  0.8816398E-01
         -1   -1    0    0    0  501 -0.00000000000E+00  0.00000000000E+00  0.17216242823E+03  0.17216242823E+03  0.00000000000E+00 0.  1.
          1   -1    0    0  501    0  0.00000000000E+00 -0.00000000000E+00 -0.37489577820E+04  0.37489577820E+04  0.00000000000E+00 0. -1.
         23    2    1    2    0    0 -0.30239859212E+03  0.42340415562E+02 -0.15037867235E+03  0.35251398731E+03  0.91731929276E+02 0.  0.
        254    2    1    2    0    0  0.30239859212E+03 -0.42340415562E+02 -0.34264166814E+04  0.35686062229E+04  0.94941112286E+03 0.  0.
         23    2    4    4    0    0  0.26594427439E+03  0.73853212066E+02 -0.23616339854E+03  0.37472803494E+03  0.92017907753E+02 0.  0.
         23    2    4    4    0    0  0.36454317728E+02 -0.11619362763E+03 -0.31902532829E+04  0.31938781880E+04  0.91170139462E+02 0.  0.
         13    1    3    3    0    0 -0.68436654415E+02 -0.50639053599E+01 -0.76183049347E+02  0.10253329124E+03  0.00000000000E+00 0. -1.
        -13    1    3    3    0    0 -0.23396193770E+03  0.47404320922E+02 -0.74195623005E+02  0.24998069607E+03  0.00000000000E+00 0.  1.
          4    1    5    5  502    0  0.14886940582E+03  0.62653934969E+02 -0.82926631272E+02  0.18156112395E+03  0.00000000000E+00 0. -1.
          1    1    6    6  503    0  0.49487458313E+02 -0.12409669719E+03 -0.30166883781E+04  0.30196453052E+04  0.00000000000E+00 0. -1.
         -4    1    5    5    0  502  0.11707486857E+03  0.11199277097E+02 -0.15323676727E+03  0.19316691099E+03  0.00000000000E+00 0.  1.
         -1    1    6    6    0  503 -0.13033140585E+02  0.79030695644E+01 -0.17356490476E+03  0.17423288274E+03  0.00000000000E+00 0.  1.
<mgrwt>
<rscale>  0 0.16067728E+04</rscale>
<asrwt>0</asrwt>
<pdfrwt beam="1">  1        1 0.57676274E+00 0.16067728E+04</pdfrwt>
<pdfrwt beam="2">  1       -1 0.26486527E-01 0.16067728E+04</pdfrwt>
<totfact> 0.19358153E+00</totfact>
</mgrwt>
</event>
<event>
12    1  0.4672461E-008  0.1707142E+04  0.7818608E-02  0.8757301E-01
         -2   -1    0    0    0  501 -0.00000000000E+00  0.00000000000E+00  0.36670208934E+03  0.36670208934E+03  0.00000000000E+00 0. -1.
          2   -1    0    0  501    0  0.00000000000E+00 -0.00000000000E+00 -0.19868543241E+04  0.19868543241E+04  0.00000000000E+00 0.  1.
         23    2    1    2    0    0  0.47377400766E+03  0.32505348276E+03 -0.30229833685E+03  0.65506002681E+03  0.87165229718E+02 0.  0.
        254    2    1    2    0    0 -0.47377400766E+03 -0.32505348276E+03 -0.13178538979E+04  0.16984963867E+04  0.90444983399E+03 0.  0.
         23    2    4    4    0    0 -0.53251714559E+03 -0.35268397540E+03 -0.14115558743E+04  0.15520143942E+04  0.91094437338E+02 0.  0.
         23    2    4    4    0    0  0.58743137926E+02  0.27630492645E+02  0.93701976389E+02  0.14648199249E+03  0.91993007172E+02 0.  0.
         13    1    3    3    0    0  0.42136665717E+03  0.28351538906E+03 -0.23302971473E+03  0.55877874293E+03  0.00000000000E+00 0. -1.
        -13    1    3    3    0    0  0.52407350493E+02  0.41538093696E+02 -0.69268622129E+02  0.96281283879E+02  0.00000000000E+00 0.  1.
          3    1    5    5  502    0 -0.24904674642E+03 -0.16416955351E+03 -0.76946009590E+03  0.82525436283E+03  0.00000000000E+00 0. -1.
          3    1    6    6  503    0  0.25492674515E+02 -0.31041044722E+02  0.56917822951E+02  0.69663918070E+02  0.00000000000E+00 0. -1.
         -3    1    5    5    0  502 -0.28347039917E+03 -0.18851442190E+03 -0.64209577842E+03  0.72676003132E+03  0.00000000000E+00 0.  1.
         -3    1    6    6    0  503  0.33250463410E+02  0.58671537367E+02  0.36784153438E+02  0.76818074424E+02  0.00000000000E+00 0.  1.
<mgrwt>
<rscale>  0 0.17071422E+04</rscale>
<asrwt>0</asrwt>
<pdfrwt beam="1">  1        2 0.30566990E+00 0.17071422E+04</pdfrwt>
<pdfrwt beam="2">  1       -2 0.56415706E-01 0.17071422E+04</pdfrwt>
<totfact> 0.19053595E+01</totfact>
</mgrwt>
</event>
<event>
12    1  0.5645931E-008  0.3891056E+04  0.7818608E-02  0.8026892E-01
          2   -1    0    0  501    0  0.00000000000E+00  0.00000000000E+00  0.21452512544E+04  0.21452512544E+04  0.00000000000E+00 0. -1.
         -2   -1    0    0    0  501 -0.00000000000E+00 -0.00000000000E+00 -0.17643985675E+04  0.17643985675E+04  0.00000000000E+00 0.  1.
         23    2    1    2    0    0  0.83869055374E+03 -0.46549110488E+03  0.17683766164E+04  0.20134693182E+04  0.82577383333E+02 0.  0.
        254    2    1    2    0    0 -0.83869055374E+03  0.46549110488E+03 -0.13875239295E+04  0.18961805037E+04  0.86613742212E+03 0.  0.
         23    2    4    4    0    0  0.76311163036E+02 -0.11058759803E+03 -0.39040470300E+03  0.42251903011E+03  0.89741229301E+02 0.  0.
         23    2    4    4    0    0 -0.91500171677E+03  0.57607870291E+03 -0.99711922648E+03  0.14736614736E+04  0.91304836769E+02 0.  0.
         13    1    3    3    0    0  0.82908902280E+03 -0.44734618378E+03  0.17355928967E+04  0.19747885757E+04  0.00000000000E+00 0. -1.
        -13    1    3    3    0    0  0.96015309343E+01 -0.18144921104E+02  0.32783719690E+02  0.38680742429E+02  0.00000000000E+00 0.  1.
          3    1    6    6  502    0 -0.90907153096E+03  0.57642977000E+03 -0.99771483876E+03  0.14676911213E+04  0.00000000000E+00 0. -1.
          3    1    5    5  503    0  0.69671815537E+02 -0.12616222676E+03 -0.35883771350E+03  0.38669829838E+03  0.00000000000E+00 0. -1.
         -3    1    5    5    0  503  0.66393474993E+01  0.15574628730E+02 -0.31566989500E+02  0.35820731726E+02  0.00000000000E+00 0.  1.
         -3    1    6    6    0  502 -0.59301858093E+01 -0.35106709006E+00  0.59561228112E+00  0.59703522361E+01  0.00000000000E+00 0.  1.
<mgrwt>
<rscale>  0 0.38910555E+04</rscale>
<asrwt>0</asrwt>
<pdfrwt beam="1">  1        2 0.33003866E+00 0.38910555E+04</pdfrwt>
<pdfrwt beam="2">  1       -2 0.27144593E+00 0.38910555E+04</pdfrwt>
<totfact> 0.20951420E-01</totfact>
</mgrwt>
</event>
<event>
12    1  0.4672461E-008  0.2384603E+04  0.7818608E-02  0.8445291E-01
         -2   -1    0    0    0  501 -0.00000000000E+00  0.00000000000E+00  0.89082482448E+03  0.89082482448E+03  0.00000000000E+00 0.  1.
          2   -1    0    0  501    0  0.00000000000E+00 -0.00000000000E+00 -0.15958045462E+04  0.15958045462E+04  0.00000000000E+00 0. -1.
         23    2    1    2    0    0  0.84702100575E+03 -0.39536406278E+03 -0.73282706390E+03  0.11913751380E+04  0.92638477610E+02 0.  0.
        254    2    1    2    0    0 -0.84702100575E+03  0.39536406278E+03  0.27847342199E+02  0.12952542327E+04  0.89618676985E+03 0.  0.
         23    2    4    4    0    0 -0.14365902240E+03  0.24678484234E+03  0.38398068893E+03  0.48774642543E+03  0.94417863361E+02 0.  0.
         23    2    4    4    0    0 -0.70336198335E+03  0.14857922044E+03 -0.35613334673E+03  0.80750780724E+03  0.91891423651E+02 0.  0.
         13    1    3    3    0    0  0.51334544446E+03 -0.22779597165E+03 -0.49543028927E+03  0.74890968853E+03  0.00000000000E+00 0. -1.
        -13    1    3    3    0    0  0.33367556129E+03 -0.16756809112E+03 -0.23739677462E+03  0.44246544946E+03  0.00000000000E+00 0.  1.
          1    1    5    5  502    0 -0.87406301880E+02  0.19373043817E+03  0.21706692876E+03  0.30379169812E+03  0.00000000000E+00 0. -1.
          3    1    6    6  503    0 -0.63134533634E+03  0.11080636670E+03 -0.29419141007E+03  0.70528261738E+03  0.00000000000E+00 0. -1.
         -1    1    5    5    0  502 -0.56252720520E+02  0.53054404170E+02  0.16691376016E+03  0.18395472731E+03  0.00000000000E+00 0.  1.
         -3    1    6    6    0  503 -0.72016647008E+02  0.37772853734E+02 -0.61941936654E+02  0.10222518986E+03  0.00000000000E+00 0.  1.
<mgrwt>
<rscale>  0 0.23846025E+04</rscale>
<asrwt>0</asrwt>
<pdfrwt beam="1">  1        2 0.24550839E+00 0.23846025E+04</pdfrwt>
<pdfrwt beam="2">  1       -2 0.13704997E+00 0.23846025E+04</pdfrwt>
<totfact> 0.38323213E+00</totfact>
</mgrwt>
</event>
<event>
12    1  0.4672461E-008  0.1536979E+04  0.7818608E-02  0.8860228E-01
          1   -1    0    0  501    0  0.00000000000E+00  0.00000000000E+00  0.35459111954E+04  0.35459111954E+04  0.00000000000E+00 0. -1.
         -1   -1    0    0    0  501 -0.00000000000E+00 -0.00000000000E+00 -0.16655139418E+03  0.16655139418E+03  0.00000000000E+00 0.  1.
         23    2    1    2    0    0  0.19761029702E+03 -0.11807527133E+03  0.45129455176E+02  0.25170988329E+03  0.91266633735E+02 0.  0.
        254    2    1    2    0    0 -0.19761029702E+03  0.11807527133E+03  0.33342303461E+04  0.34607527063E+04  0.89817909933E+03 0.  0.
         23    2    4    4    0    0  0.78229092122E+02  0.43011112175E+03  0.22780249830E+04  0.23213666288E+04  0.90718432816E+02 0.  0.
         23    2    4    4    0    0 -0.27583938915E+03 -0.31203585043E+03  0.10562053631E+04  0.11393860776E+04  0.95797307922E+02 0.  0.
         13    1    3    3    0    0  0.62076329214E+02 -0.51432182090E+02  0.59209741452E+02  0.10002266486E+03  0.00000000000E+00 0. -1.
        -13    1    3    3    0    0  0.13553396781E+03 -0.66643089238E+02 -0.14080286277E+02  0.15168721843E+03  0.00000000000E+00 0.  1.
          2    1    5    5  502    0  0.97134842638E+02  0.39115419326E+03  0.20389434586E+04  0.20783953445E+04  0.00000000000E+00 0. -1.
          1    1    6    6  503    0 -0.17546086613E+03 -0.25821408866E+03  0.73356026070E+03  0.79722750028E+03  0.00000000000E+00 0. -1.
         -2    1    5    5    0  502 -0.18905750516E+02  0.38956928494E+02  0.23908152437E+03  0.24297128426E+03  0.00000000000E+00 0.  1.
         -1    1    6    6    0  503 -0.10037852302E+03 -0.53821761764E+02  0.32264510236E+03  0.34215857727E+03  0.00000000000E+00 0.  1.
<mgrwt>
<rscale>  0 0.15369794E+04</rscale>
<asrwt>0</asrwt>
<pdfrwt beam="1">  1        1 0.54552474E+00 0.15369794E+04</pdfrwt>
<pdfrwt beam="2">  1       -1 0.25623294E-01 0.15369794E+04</pdfrwt>
<totfact> 0.30101499E+00</totfact>
</mgrwt>
</event>
<event>
12    1  0.4672461E-008  0.1513863E+04  0.7818608E-02  0.8875286E-01
         -1   -1    0    0    0  501 -0.00000000000E+00  0.00000000000E+00  0.54015894498E+03  0.54015894498E+03  0.00000000000E+00 0.  1.
          1   -1    0    0  501    0  0.00000000000E+00 -0.00000000000E+00 -0.10606975462E+04  0.10606975462E+04  0.00000000000E+00 0. -1.
         23    2    1    2    0    0 -0.44061546175E+03  0.34329430308E+02 -0.37857984568E+03  0.59067706338E+03  0.10127289236E+03 0.  0.
        254    2    1    2    0    0  0.44061546175E+03 -0.34329430308E+02 -0.14195875552E+03  0.10101794278E+04  0.89721217843E+03 0.  0.
         23    2    4    4    0    0 -0.14061646490E+03 -0.20035590905E+03 -0.27971642441E+03  0.38272297501E+03  0.91214675467E+02 0.  0.
         23    2    4    4    0    0  0.58123192665E+03  0.16602647874E+03  0.13775766889E+03  0.62745645278E+03  0.96587165770E+02 0.  0.
         11    1    3    3    0    0 -0.72677964098E+02  0.10117926072E+02 -0.19353892265E+02  0.75888286575E+02  0.00000000000E+00 0.  1.
        -11    1    3    3    0    0 -0.36793749765E+03  0.24211504235E+02 -0.35922595342E+03  0.51478877680E+03  0.00000000000E+00 0. -1.
          2    1    5    5  502    0  0.63493713432E+01 -0.49233791886E+02 -0.42219261108E+02  0.65167068282E+02  0.00000000000E+00 0. -1.
          1    1    6    6  503    0  0.57826881519E+03  0.15222974183E+03  0.13594713935E+03  0.61322943636E+03  0.00000000000E+00 0.  1.
         -2    1    5    5    0  502 -0.14696583625E+03 -0.15112211716E+03 -0.23749716330E+03  0.31755590672E+03  0.00000000000E+00 0.  1.
         -1    1    6    6    0  503  0.29631114605E+01  0.13796736912E+02  0.18105295378E+01  0.14227016417E+02  0.00000000000E+00 0. -1.
<mgrwt>
<rscale>  0 0.15138630E+04</rscale>
<asrwt>0</asrwt>
<pdfrwt beam="1">  1        1 0.16318424E+00 0.15138630E+04</pdfrwt>
<pdfrwt beam="2">  1       -1 0.83101377E-01 0.15138630E+04</pdfrwt>
<totfact> 0.18869686E+01</totfact>
</mgrwt>
</event>
<event>
12    1  0.4672461E-008  0.1215205E+04  0.7818608E-02  0.9099651E-01
          1   -1    0    0  501    0  0.00000000000E+00  0.00000000000E+00  0.73397154305E+03  0.73397154305E+03  0.00000000000E+00 0. -1.
         -1   -1    0    0    0  501 -0.00000000000E+00 -0.00000000000E+00 -0.50299050054E+03  0.50299050054E+03  0.00000000000E+00 0.  1.
         23    2    1    2    0    0 -0.26659156507E+02 -0.12885198196E+03  0.32816945860E+03  0.36533736117E+03  0.91992662893E+02 0.  0.
        254    2    1    2    0    0  0.26659156507E+02  0.12885198196E+03 -0.97188416087E+02  0.87162468242E+03  0.85613693700E+03 0.  0.
         23    2    4    4    0    0 -0.24547535822E+03  0.33648143318E+03 -0.24063915289E+03  0.48971650963E+03  0.91853968523E+02 0.  0.
         23    2    4    4    0    0  0.27213451473E+03 -0.20762945122E+03  0.14345073680E+03  0.38190817279E+03  0.90047517662E+02 0.  0.
         13    1    3    3    0    0 -0.69590577231E+01 -0.41973421997E+02  0.22518525810E+03  0.22916936336E+03  0.00000000000E+00 0. -1.
        -13    1    3    3    0    0 -0.19700098784E+02 -0.86878559966E+02  0.10298420050E+03  0.13616799781E+03  0.00000000000E+00 0.  1.
          2    1    5    5  502    0 -0.13004871453E+03  0.21983602837E+03 -0.10253191856E+03  0.27523324989E+03  0.00000000000E+00 0. -1.
          4    1    6    6  503    0  0.27798659764E+03 -0.19715278141E+03  0.14381246628E+03  0.36990241030E+03  0.00000000000E+00 0. -1.
         -2    1    5    5    0  502 -0.11542664368E+03  0.11664540481E+03 -0.13810723432E+03  0.21448325974E+03  0.00000000000E+00 0.  1.
         -4    1    6    6    0  503 -0.58520829162E+01 -0.10476669811E+02 -0.36172948590E+00  0.12005762492E+02  0.00000000000E+00 0.  1.
<mgrwt>
<rscale>  0 0.12152049E+04</rscale>
<asrwt>0</asrwt>
<pdfrwt beam="1">  1        1 0.11291870E+00 0.12152049E+04</pdfrwt>
<pdfrwt beam="2">  1       -1 0.77383154E-01 0.12152049E+04</pdfrwt>
<totfact> 0.41940848E+01</totfact>
</mgrwt>
</event>
<event>
12    1  0.4672461E-008  0.2775471E+04  0.7818608E-02  0.8310924E-01
         -4   -1    0    0    0  501 -0.00000000000E+00  0.00000000000E+00  0.84692924572E+03  0.84692924572E+03  0.00000000000E+00 0. -1.
          4   -1    0    0  501    0  0.00000000000E+00 -0.00000000000E+00 -0.22738728138E+04  0.22738728138E+04  0.00000000000E+00 0.  1.
         23    2    1    2    0    0 -0.91389609125E+03  0.29665935872E+03 -0.15214536068E+04  0.18017362499E+04  0.90661986408E+02 0.  0.
        254    2    1    2    0    0  0.91389609125E+03 -0.29665935872E+03  0.94510038755E+02  0.13190658096E+04  0.89877117331E+03 0.  0.
         23    2    4    4    0    0  0.18910484521E+03 -0.19486851976E+02  0.42248323355E+03  0.47178701316E+03  0.89165706843E+02 0.  0.
         23    2    4    4    0    0  0.72479124604E+03 -0.27717250674E+03 -0.32797319480E+03  0.84727879645E+03  0.90376952735E+02 0.  0.
         11    1    3    3    0    0 -0.42290775131E+03  0.17426755216E+03 -0.77567743791E+03  0.90049743672E+03  0.00000000000E+00 0. -1.
        -11    1    3    3    0    0 -0.49098833994E+03  0.12239180656E+03 -0.74577616890E+03  0.90123881317E+03  0.00000000000E+00 0.  1.
          2    1    5    5  502    0  0.13001121642E+03 -0.85881216714E+01  0.18150358883E+03  0.22342834419E+03  0.00000000000E+00 0. -1.
          3    1    6    6  503    0  0.49094862846E+03 -0.22145094993E+03 -0.25612421986E+03  0.59638133355E+03  0.00000000000E+00 0. -1.
         -2    1    5    5    0  502  0.59093628790E+02 -0.10898730305E+02  0.24097964472E+03  0.24835866898E+03  0.00000000000E+00 0.  1.
         -3    1    6    6    0  503  0.23384261759E+03 -0.55721556812E+02 -0.71848974933E+02  0.25089746290E+03  0.00000000000E+00 0.  1.
<mgrwt>
<rscale>  0 0.27754707E+04</rscale>
<asrwt>0</asrwt>
<pdfrwt beam="1">  1        4 0.34982658E+00 0.27754707E+04</pdfrwt>
<pdfrwt beam="2">  1       -4 0.13029681E+00 0.27754707E+04</pdfrwt>
<totfact> 0.11091053E-02</totfact>
</mgrwt>
</event>
<event>
12    1  0.4672461E-008  0.2618094E+04  0.7818608E-02  0.8362081E-01
         -2   -1    0    0    0  501 -0.00000000000E+00  0.00000000000E+00  0.42768334517E+03  0.42768334517E+03  0.00000000000E+00 0.  1.
          2   -1    0    0  501    0  0.00000000000E+00 -0.00000000000E+00 -0.40067130539E+04  0.40067130539E+04  0.00000000000E+00 0. -1.
         23    2    1    2    0    0 -0.11405397061E+03  0.11093966866E+04 -0.10811569457E+04  0.15560196664E+04  0.92344704616E+02 0.  0.
        254    2    1    2    0    0  0.11405397061E+03 -0.11093966866E+04 -0.24978727630E+04  0.28783767327E+04  0.89549704560E+03 0.  0.
         23    2    4    4    0    0 -0.10965358341E+02 -0.70169522511E+01  0.43245998702E+02  0.10410095157E+03  0.93794003069E+02 0.  0.
         23    2    4    4    0    0  0.12501932895E+03 -0.11023797343E+04 -0.25411187617E+04  0.27742757811E+04  0.91927347921E+02 0.  0.
         13    1    3    3    0    0 -0.11864949564E+03  0.90012882970E+03 -0.91221474202E+03  0.12870296611E+04  0.00000000000E+00 0. -1.
        -13    1    3    3    0    0  0.45955250268E+01  0.20926785689E+03 -0.16894220370E+03  0.26899000533E+03  0.00000000000E+00 0.  1.
          2    1    5    5  502    0  0.21617421742E+02 -0.13486073951E+02  0.61234852353E+02  0.66324160425E+02  0.00000000000E+00 0.  1.
          3    1    6    6  503    0  0.72953462531E+02 -0.33092347640E+03 -0.83383811183E+03  0.90006585963E+03  0.00000000000E+00 0. -1.
         -2    1    5    5    0  502 -0.32582780083E+02  0.64691217002E+01 -0.17988853651E+02  0.37776791145E+02  0.00000000000E+00 0. -1.
         -3    1    6    6    0  503  0.52065866422E+02 -0.77145625794E+03 -0.17072806499E+04  0.18742099215E+04  0.00000000000E+00 0.  1.
<mgrwt>
<rscale>  0 0.26180943E+04</rscale>
<asrwt>0</asrwt>
<pdfrwt beam="1">  1        2 0.61641737E+00 0.26180943E+04</pdfrwt>
<pdfrwt beam="2">  1       -2 0.65797440E-01 0.26180943E+04</pdfrwt>
<totfact> 0.63600345E-01</totfact>
</mgrwt>
</event>
<event>
12    1  0.4672461E-008  0.1755497E+04  0.7818608E-02  0.8730330E-01
          1   -1    0    0  501    0  0.00000000000E+00  0.00000000000E+00  0.33499980312E+04  0.33499980312E+04  0.00000000000E+00 0. -1.
         -1   -1    0    0    0  501 -0.00000000000E+00 -0.00000000000E+00 -0.22998296298E+03  0.22998296298E+03  0.00000000000E+00 0.  1.
         23    2    1    2    0    0 -0.21307713993E+03  0.52442046570E+03  0.17987542741E+04  0.18879535326E+04  0.91830879785E+02 0.  0.
        254    2    1    2    0    0  0.21307713993E+03 -0.52442046570E+03  0.13212607942E+04  0.16920274616E+04  0.89264111046E+03 0.  0.
         23    2    4    4    0    0  0.23117887639E+03 -0.12595646995E+03  0.12460080809E+04  0.12768439501E+04  0.92117479339E+02 0.  0.
         23    2    4    4    0    0 -0.18101736463E+02 -0.39846399575E+03  0.75252713237E+02  0.41518351145E+03  0.87253358434E+02 0.  0.
         13    1    3    3    0    0 -0.58654758422E+02  0.60736341404E+02  0.28725120256E+03  0.29940363595E+03  0.00000000000E+00 0.  1.
        -13    1    3    3    0    0 -0.15442238150E+03  0.46368412430E+03  0.15115030715E+04  0.15885498967E+04  0.00000000000E+00 0. -1.
          2    1    5    5  502    0 -0.46469753791E+01 -0.42205108124E+01  0.57629873654E+01  0.85216849898E+01  0.00000000000E+00 0. -1.
          4    1    6    6  503    0 -0.34713761923E+02 -0.33908218711E+03  0.37569193163E+02  0.34291867717E+03  0.00000000000E+00 0.  1.
         -2    1    5    5    0  502  0.23582585177E+03 -0.12173595914E+03  0.12402450936E+04  0.12683222651E+04  0.00000000000E+00 0.  1.
         -4    1    6    6    0  503  0.16612025461E+02 -0.59381808645E+02  0.37683520075E+02  0.72264834277E+02  0.00000000000E+00 0. -1.
<mgrwt>
<rscale>  0 0.17554971E+04</rscale>
<asrwt>0</asrwt>
<pdfrwt beam="1">  1        1 0.51538428E+00 0.17554971E+04</pdfrwt>
<pdfrwt beam="2">  1       -1 0.35381997E-01 0.17554971E+04</pdfrwt>
<totfact> 0.23710028E+00</totfact>
</mgrwt>
</event>
<event>
12    1  0.4672461E-008  0.1239641E+04  0.7818608E-02  0.9078849E-01
         -2   -1    0    0    0  501 -0.00000000000E+00  0.00000000000E+00  0.17381132727E+03  0.17381132727E+03  0.00000000000E+00 0. -1.
          2   -1    0    0  501    0  0.00000000000E+00 -0.00000000000E+00 -0.22103125105E+04  0.22103125105E+04  0.00000000000E+00 0.  1.
         23    2    1    2    0    0  0.19886922002E+03  0.18645775010E+03 -0.66174039191E+03  0.72139851299E+03  0.90553901134E+02 0.  0.
        254    2    1    2    0    0 -0.19886922002E+03 -0.18645775010E+03 -0.13747607913E+04  0.16627253248E+04  0.89463557557E+03 0.  0.
         23    2    4    4    0    0 -0.29261828842E+03 -0.12759141896E+03 -0.14597254183E+04  0.14968633369E+04  0.88862362832E+02 0.  0.
         23    2    4    4    0    0  0.93749068399E+02 -0.58866331134E+02  0.84964627012E+02  0.16586198788E+03  0.89649754124E+02 0.  0.
         13    1    3    3    0    0  0.72815918131E+01  0.15757677909E+02 -0.12808911804E+03  0.12926000213E+03  0.00000000000E+00 0.  1.
        -13    1    3    3    0    0  0.19158762820E+03  0.17070007219E+03 -0.53365127387E+03  0.59213851085E+03  0.00000000000E+00 0. -1.
          2    1    5    5  502    0 -0.28158649429E+03 -0.10252666766E+03 -0.13903534929E+04  0.14222817958E+04  0.00000000000E+00 0. -1.
          1    1    6    6  503    0  0.94076329292E+02 -0.76640272490E+02  0.84882471431E+02  0.14808484412E+03  0.00000000000E+00 0. -1.
         -2    1    5    5    0  502 -0.11031794128E+02 -0.25064751306E+02 -0.69371925369E+02  0.74581541075E+02  0.00000000000E+00 0.  1.
         -1    1    6    6    0  503 -0.32726089321E+00  0.17773941356E+02  0.82155581079E-01  0.17777143768E+02  0.00000000000E+00 0.  1.
<mgrwt>
<rscale>  0 0.12396408E+04</rscale>
<asrwt>0</asrwt>
<pdfrwt beam="1">  1        2 0.34004807E+00 0.12396408E+04</pdfrwt>
<pdfrwt beam="2">  1       -2 0.26740205E-01 0.12396408E+04</pdfrwt>
<totfact> 0.63796928E+01</totfact>
</mgrwt>
</event>
<event>
12    1  0.4672461E-008  0.2474298E+04  0.7818608E-02  0.8412200E-01
          1   -1    0    0  501    0  0.00000000000E+00  0.00000000000E+00  0.14149716952E+04  0.14149716952E+04  0.00000000000E+00 0.  1.
         -1   -1    0    0    0  501 -0.00000000000E+00 -0.00000000000E+00 -0.10816736646E+04  0.10816736646E+04  0.00000000000E+00 0. -1.
         23    2    1    2    0    0 -0.61254732465E+03 -0.20409536285E+03  0.10076442299E+04  0.12002104407E+04  0.91044306988E+02 0.  0.
        254    2    1    2    0    0  0.61254732465E+03  0.20409536285E+03 -0.67434619937E+03  0.12964349191E+04  0.89951740436E+03 0.  0.
         23    2    4    4    0    0  0.31519140172E+03  0.14020206184E+03  0.16823638342E+03  0.39601484745E+03  0.97580945037E+02 0.  0.
         23    2    4    4    0    0  0.29735592293E+03  0.63893301010E+02 -0.84258258279E+03  0.90042007164E+03  0.91148218692E+02 0.  0.
         13    1    3    3    0    0 -0.30855251807E+03 -0.64670987406E+02  0.53984267255E+03  0.62515366441E+03  0.00000000000E+00 0.  1.
        -13    1    3    3    0    0 -0.30399480658E+03 -0.13942437545E+03  0.46780155738E+03  0.57505677631E+03  0.00000000000E+00 0. -1.
          1    1    5    5  502    0  0.82906621629E+02  0.27099599026E+02  0.91704587291E+02  0.12656076607E+03  0.00000000000E+00 0. -1.
          3    1    6    6  503    0 -0.51561275442E+01  0.61606467105E+01 -0.39542484538E+02  0.40350307342E+02  0.00000000000E+00 0.  1.
         -1    1    5    5    0  502  0.23228478009E+03  0.11310246281E+03  0.76531796129E+02  0.26945408139E+03  0.00000000000E+00 0.  1.
         -3    1    6    6    0  503  0.30251205048E+03  0.57732654300E+02 -0.80304009825E+03  0.86006976429E+03  0.00000000000E+00 0. -1.
<mgrwt>
<rscale>  0 0.24742980E+04</rscale>
<asrwt>0</asrwt>
<pdfrwt beam="1">  1        1 0.21768795E+00 0.24742980E+04</pdfrwt>
<pdfrwt beam="2">  1       -1 0.16641133E+00 0.24742980E+04</pdfrwt>
<totfact> 0.17466427E+00</totfact>
</mgrwt>
</event>
<event>
12    1  0.4672461E-008  0.1184427E+04  0.7818608E-02  0.9126597E-01
         -2   -1    0    0    0  501 -0.00000000000E+00  0.00000000000E+00  0.33515582781E+03  0.33515582781E+03  0.00000000000E+00 0.  1.
          2   -1    0    0  501    0  0.00000000000E+00 -0.00000000000E+00 -0.10464298060E+04  0.10464298060E+04  0.00000000000E+00 0. -1.
         23    2    1    2    0    0 -0.37085747185E+02 -0.10896714835E+03 -0.38474227206E+03  0.41318324600E+03  0.97183264025E+02 0.  0.
        254    2    1    2    0    0  0.37085747185E+02  0.10896714835E+03 -0.32653170616E+03  0.96840238784E+03  0.90439539891E+03 0.  0.
         23    2    4    4    0    0  0.29007809136E+03  0.33328848485E+03  0.50393866691E+02  0.45401732683E+03  0.91464080600E+02 0.  0.
         23    2    4    4    0    0 -0.25299234417E+03 -0.22432133650E+03 -0.37692557285E+03  0.51438506101E+03  0.90520247978E+02 0.  0.
         13    1    3    3    0    0 -0.41535544829E+02 -0.89769090070E+02 -0.38033888519E+03  0.39299027800E+03  0.00000000000E+00 0. -1.
        -13    1    3    3    0    0  0.44497976436E+01 -0.19198058279E+02 -0.44033868648E+01  0.20192967999E+02  0.00000000000E+00 0.  1.
          3    1    5    5  502    0  0.28579375121E+03  0.33353135583E+03  0.60180124534E+02  0.44333156998E+03  0.00000000000E+00 0. -1.
          3    1    6    6  503    0 -0.21106879820E+03 -0.16045631887E+03 -0.24018157126E+03  0.35774775333E+03  0.00000000000E+00 0. -1.
         -3    1    5    5    0  502  0.42843401510E+01 -0.24287098253E+00 -0.97862578421E+01  0.10685756847E+02  0.00000000000E+00 0.  1.
         -3    1    6    6    0  503 -0.41923545973E+02 -0.63865017635E+02 -0.13674400159E+03  0.15663730768E+03  0.00000000000E+00 0.  1.
<mgrwt>
<rscale>  0 0.11844274E+04</rscale>
<asrwt>0</asrwt>
<pdfrwt beam="1">  1        2 0.16098920E+00 0.11844274E+04</pdfrwt>
<pdfrwt beam="2">  1       -2 0.51562437E-01 0.11844274E+04</pdfrwt>
<totfact> 0.82563473E+01</totfact>
</mgrwt>
</event>
<event>
12    1  0.4672461E-008  0.1017567E+04  0.7818608E-02  0.9289485E-01
          2   -1    0    0  501    0  0.00000000000E+00  0.00000000000E+00  0.18321442800E+04  0.18321442800E+04  0.00000000000E+00 0. -1.
         -2   -1    0    0    0  501 -0.00000000000E+00 -0.00000000000E+00 -0.14128838126E+03  0.14128838126E+03  0.00000000000E+00 0.  1.
         23    2    1    2    0    0  0.77970459584E+02 -0.54923041772E+01  0.25676190505E+03  0.28401373739E+03  0.92884709015E+02 0.  0.
        254    2    1    2    0    0 -0.77970459584E+02  0.54923041772E+01  0.14340939936E+04  0.16894189238E+04  0.88960730638E+03 0.  0.
         23    2    4    4    0    0  0.37972426293E+03  0.11399055961E+03  0.76315902572E+03  0.86507385333E+03  0.93577292356E+02 0.  0.
         23    2    4    4    0    0 -0.45769472251E+03 -0.10849825543E+03  0.67093496793E+03  0.82434507049E+03  0.90192758050E+02 0.  0.
         13    1    3    3    0    0  0.50368541803E+02  0.65094753262E+01  0.24730295914E+03  0.25246409026E+03  0.00000000000E+00 0. -1.
        -13    1    3    3    0    0  0.27601917781E+02 -0.12001779503E+02  0.94589459154E+01  0.31549647134E+02  0.00000000000E+00 0.  1.
          4    1    5    5  502    0  0.38401819619E+03  0.10647234669E+03  0.74269402730E+03  0.84285274740E+03  0.00000000000E+00 0. -1.
          4    1    6    6  503    0 -0.10542236969E+03  0.11920639813E+02  0.16592617416E+03  0.19694535526E+03  0.00000000000E+00 0. -1.
         -4    1    5    5    0  502 -0.42939332639E+01  0.75182129256E+01  0.20464998413E+02  0.22221105925E+02  0.00000000000E+00 0.  1.
         -4    1    6    6    0  503 -0.35227235282E+03 -0.12041889525E+03  0.50500879376E+03  0.62739971523E+03  0.00000000000E+00 0.  1.
<mgrwt>
<rscale>  0 0.10175671E+04</rscale>
<asrwt>0</asrwt>
<pdfrwt beam="1">  1        2 0.28186833E+00 0.10175671E+04</pdfrwt>
<pdfrwt beam="2">  1       -2 0.21736675E-01 0.10175671E+04</pdfrwt>
<totfact> 0.15260379E+02</totfact>
</mgrwt>
</event>
<event>
12    1  0.4672461E-008  0.1969071E+04  0.7818608E-02  0.8621219E-01
          2   -1    0    0  501    0  0.00000000000E+00  0.00000000000E+00  0.23789794169E+04  0.23789794169E+04  0.00000000000E+00 0. -1.
         -2   -1    0    0    0  501 -0.00000000000E+00 -0.00000000000E+00 -0.40744780585E+03  0.40744780585E+03  0.00000000000E+00 0.  1.
         23    2    1    2    0    0  0.71367923200E+03  0.22296922016E+03  0.11568808499E+04  0.13810826341E+04  0.99812934081E+02 0.  0.
        254    2    1    2    0    0 -0.71367923200E+03 -0.22296922016E+03  0.81465076114E+03  0.14053445887E+04  0.86734320262E+03 0.  0.
         23    2    4    4    0    0  0.14415006764E+02  0.25306470416E+03  0.22395274492E+03  0.34994508109E+03  0.89761856643E+02 0.  0.
         23    2    4    4    0    0 -0.72809423876E+03 -0.47603392432E+03  0.59069801622E+03  0.10553995076E+04  0.90633640249E+02 0.  0.
         11    1    3    3    0    0  0.64888755349E+03  0.19716289024E+03  0.98794405474E+03  0.11983162010E+04  0.00000000000E+00 0.  1.
        -11    1    3    3    0    0  0.64791678510E+02  0.25806329925E+02  0.16893679520E+03  0.18276643302E+03  0.00000000000E+00 0. -1.
          2    1    5    5  502    0  0.15989108074E+02  0.74545948572E+02  0.12339034029E+03  0.14504456592E+03  0.00000000000E+00 0. -1.
          4    1    6    6  503    0 -0.86297658313E+02 -0.58940938684E+02  0.37634622320E+02  0.11107513169E+03  0.00000000000E+00 0. -1.
         -2    1    5    5    0  502 -0.15741013103E+01  0.17851875559E+03  0.10056240463E+03  0.20490051517E+03  0.00000000000E+00 0.  1.
         -4    1    6    6    0  503 -0.64179658045E+03 -0.41709298564E+03  0.55306339390E+03  0.94432437595E+03  0.00000000000E+00 0.  1.
<mgrwt>
<rscale>  0 0.19690708E+04</rscale>
<asrwt>0</asrwt>
<pdfrwt beam="1">  1        2 0.36599683E+00 0.19690708E+04</pdfrwt>
<pdfrwt beam="2">  1       -2 0.62684279E-01 0.19690708E+04</pdfrwt>
<totfact> 0.89862636E+00</totfact>
</mgrwt>
</event>
<event>
12    1  0.4672461E-008  0.1944148E+04  0.7818608E-02  0.8633188E-01
          1   -1    0    0  501    0  0.00000000000E+00  0.00000000000E+00  0.15859341201E+04  0.15859341201E+04  0.00000000000E+00 0. -1.
         -1   -1    0    0    0  501 -0.00000000000E+00 -0.00000000000E+00 -0.59581767894E+03  0.59581767894E+03  0.00000000000E+00 0.  1.
         23    2    1    2    0    0 -0.22954261623E+03 -0.12110472401E+03  0.11874255031E+04  0.12188000089E+04  0.90210695256E+02 0.  0.
        254    2    1    2    0    0  0.22954261623E+03  0.12110472401E+03 -0.19730906188E+03  0.96295179015E+03  0.90608449794E+03 0.  0.
         23    2    4    4    0    0  0.52107646115E+03  0.15616102535E+03  0.68932538178E+02  0.55585200272E+03  0.91174612161E+02 0.  0.
         23    2    4    4    0    0 -0.29153384492E+03 -0.35056301339E+02 -0.26624160006E+03  0.40709978743E+03  0.92869372389E+02 0.  0.
         11    1    3    3    0    0 -0.13149889822E+03 -0.21236929503E+02  0.64504542007E+03  0.65865511564E+03  0.00000000000E+00 0.  1.
        -11    1    3    3    0    0 -0.98043718015E+02 -0.99867794512E+02  0.54238008301E+03  0.56014489328E+03  0.00000000000E+00 0. -1.
          1    1    6    6  502    0 -0.13620607470E+03 -0.60072934350E+02 -0.15130091317E+03  0.21225649237E+03  0.00000000000E+00 0. -1.
          1    1    5    5  503    0  0.17316389406E+03  0.81306636378E+02 -0.91185231796E+01  0.19151932224E+03  0.00000000000E+00 0. -1.
         -1    1    5    5    0  503  0.34791256709E+03  0.74854388976E+02  0.78051061357E+02  0.36433268048E+03  0.00000000000E+00 0.  1.
         -1    1    6    6    0  502 -0.15532777022E+03  0.25016633010E+02 -0.11494068688E+03  0.19484329506E+03  0.00000000000E+00 0.  1.
<mgrwt>
<rscale>  0 0.19441477E+04</rscale>
<asrwt>0</asrwt>
<pdfrwt beam="1">  1        1 0.24398986E+00 0.19441477E+04</pdfrwt>
<pdfrwt beam="2">  1       -1 0.91664259E-01 0.19441477E+04</pdfrwt>
<totfact> 0.61681499E+00</totfact>
</mgrwt>
</event>
<event>
12    1  0.4672461E-008  0.1230189E+04  0.7818608E-02  0.9086835E-01
          2   -1    0    0  501    0  0.00000000000E+00  0.00000000000E+00  0.12937277988E+04  0.12937277988E+04  0.00000000000E+00 0. -1.
         -2   -1    0    0    0  501 -0.00000000000E+00 -0.00000000000E+00 -0.29244281807E+03  0.29244281807E+03  0.00000000000E+00 0.  1.
         23    2    1    2    0    0 -0.44598655407E+01  0.25922870347E+03  0.12633398409E+03  0.30277511035E+03  0.92157912356E+02 0.  0.
        254    2    1    2    0    0  0.44598655407E+01 -0.25922870347E+03  0.87495099665E+03  0.12833955065E+04  0.90241086459E+03 0.  0.
         23    2    4    4    0    0  0.29174043191E+03  0.21582912535E+03  0.30032485207E+03  0.47996672697E+03  0.92077962989E+02 0.  0.
         23    2    4    4    0    0 -0.28728056637E+03 -0.47505782882E+03  0.57462614458E+03  0.80342877956E+03  0.84217179035E+02 0.  0.
         11    1    3    3    0    0  0.19950482644E+02  0.23613934193E+03  0.90556169587E+02  0.25369318165E+03  0.00000000000E+00 0.  1.
        -11    1    3    3    0    0 -0.24410348185E+02  0.23089361540E+02  0.35777814501E+02  0.49081928704E+02  0.00000000000E+00 0. -1.
          2    1    5    5  502    0  0.20830395954E+03  0.10115344587E+03  0.16892416607E+03  0.28663205169E+03  0.00000000000E+00 0. -1.
          1    1    6    6  503    0 -0.28749229593E+03 -0.47061215078E+03  0.57718736939E+03  0.79829372794E+03  0.00000000000E+00 0. -1.
         -2    1    5    5    0  502  0.83436472370E+02  0.11467567948E+03  0.13140068600E+03  0.19333467529E+03  0.00000000000E+00 0.  1.
         -1    1    6    6    0  503  0.21172955739E+00 -0.44456780418E+01 -0.25612248058E+01  0.51350516221E+01  0.00000000000E+00 0.  1.
<mgrwt>
<rscale>  0 0.12301893E+04</rscale>
<asrwt>0</asrwt>
<pdfrwt beam="1">  1        2 0.19903504E+00 0.12301893E+04</pdfrwt>
<pdfrwt beam="2">  1       -2 0.44991204E-01 0.12301893E+04</pdfrwt>
<totfact> 0.76884192E+01</totfact>
</mgrwt>
</event>
<event>
12    1  0.4672461E-008  0.1249449E+04  0.7818608E-02  0.9070642E-01
         -1   -1    0    0    0  501 -0.00000000000E+00  0.00000000000E+00  0.23452382668E+03  0.23452382668E+03  0.00000000000E+00 0.  1.
          1   -1    0    0  501    0  0.00000000000E+00 -0.00000000000E+00 -0.16641417446E+04  0.16641417446E+04  0.00000000000E+00 0. -1.
         23    2    1    2    0    0 -0.79331763988E+02  0.10067102265E+03 -0.77426021849E+03  0.79031485061E+03  0.93222816834E+02 0.  0.
        254    2    1    2    0    0  0.79331763988E+02 -0.10067102265E+03 -0.65535769942E+03  0.11083507207E+04  0.88460127867E+03 0.  0.
         23    2    4    4    0    0  0.25915073165E+03 -0.15162432090E+03 -0.79615475646E+03  0.85572611943E+03  0.90861206440E+02 0.  0.
         23    2    4    4    0    0 -0.17981896767E+03  0.50953298250E+02  0.14079705704E+03  0.25262460123E+03  0.95206502626E+02 0.  0.
         13    1    3    3    0    0 -0.53162546198E+02  0.11616632664E+03 -0.64430782004E+03  0.65685115416E+03  0.00000000000E+00 0. -1.
        -13    1    3    3    0    0 -0.26169217790E+02 -0.15495303992E+02 -0.12995239845E+03  0.13346369644E+03  0.00000000000E+00 0.  1.
          1    1    5    5  502    0  0.38137588945E+02 -0.98628176204E+00 -0.48740725439E+02  0.61895934912E+02  0.00000000000E+00 0. -1.
          3    1    6    6  503    0 -0.86405660432E+02 -0.20166290132E+02  0.84078006433E+02  0.12223636357E+03  0.00000000000E+00 0. -1.
         -1    1    5    5    0  502  0.22101314271E+03 -0.15063803914E+03 -0.74741403102E+03  0.79383018452E+03  0.00000000000E+00 0.  1.
         -3    1    6    6    0  503 -0.93413307234E+02  0.71119588382E+02  0.56719050608E+02  0.13038823767E+03  0.00000000000E+00 0.  1.
<mgrwt>
<rscale>  0 0.12494493E+04</rscale>
<asrwt>0</asrwt>
<pdfrwt beam="1">  1        1 0.25602181E+00 0.12494493E+04</pdfrwt>
<pdfrwt beam="2">  1       -1 0.36080588E-01 0.12494493E+04</pdfrwt>
<totfact> 0.36540802E+01</totfact>
</mgrwt>
</event>
<event>
12    1  0.4672461E-008  0.1273651E+04  0.7818608E-02  0.9050725E-01
          2   -1    0    0  501    0  0.00000000000E+00  0.00000000000E+00  0.89045821441E+03  0.89045821441E+03  0.00000000000E+00 0. -1.
         -2   -1    0    0    0  501 -0.00000000000E+00 -0.00000000000E+00 -0.45543616371E+03  0.45543616371E+03  0.00000000000E+00 0.  1.
         23    2    1    2    0    0 -0.16038892454E+03 -0.19095513984E+03  0.27443764194E+03  0.38210236451E+03  0.92183106440E+02 0.  0.
        254    2    1    2    0    0  0.16038892454E+03  0.19095513984E+03  0.16058440877E+03  0.96379201360E+03  0.91701647782E+03 0.  0.
         23    2    4    4    0    0 -0.31826010479E+03 -0.12718479203E+03 -0.14785418245E+02  0.35606723091E+03  0.95392865095E+02 0.  0.
         23    2    4    4    0    0  0.47864902933E+03  0.31813993187E+03  0.17536982701E+03  0.60772478269E+03  0.90867627597E+02 0.  0.
         13    1    3    3    0    0 -0.49248160376E+00 -0.90762526156E+01 -0.65147643952E+01  0.11183159428E+02  0.00000000000E+00 0.  1.
        -13    1    3    3    0    0 -0.15989644293E+03 -0.18187888722E+03  0.28095240633E+03  0.37091920509E+03  0.00000000000E+00 0. -1.
          2    1    5    5  502    0 -0.25108464397E+03 -0.77297765896E+02 -0.46096739923E+02  0.26672711239E+03  0.00000000000E+00 0. -1.
          4    1    6    6  503    0  0.35749039153E+03  0.19657750272E+03  0.14765765150E+03  0.43387195883E+03  0.00000000000E+00 0. -1.
         -2    1    5    5    0  502 -0.67175460821E+02 -0.49887026132E+02  0.31311321679E+02  0.89340118525E+02  0.00000000000E+00 0.  1.
         -4    1    6    6    0  503  0.12115863780E+03  0.12156242914E+03  0.27712175511E+02  0.17385282386E+03  0.00000000000E+00 0.  1.
<mgrwt>
<rscale>  0 0.12736512E+04</rscale>
<asrwt>0</asrwt>
<pdfrwt beam="1">  1        2 0.13699357E+00 0.12736512E+04</pdfrwt>
<pdfrwt beam="2">  1       -2 0.70067102E-01 0.12736512E+04</pdfrwt>
<totfact> 0.54231944E+01</totfact>
</mgrwt>
</event>
<event>
12    1  0.4672461E-008  0.2544366E+04  0.7818608E-02  0.8387348E-01
          1   -1    0    0  501    0  0.00000000000E+00  0.00000000000E+00  0.15494096737E+04  0.15494096737E+04  0.00000000000E+00 0. -1.
         -1   -1    0    0    0  501 -0.00000000000E+00 -0.00000000000E+00 -0.10445591555E+04  0.10445591555E+04  0.00000000000E+00 0.  1.
         23    2    1    2    0    0  0.41987455307E+03 -0.52933913256E+03 -0.67787273405E+03  0.96146214282E+03  0.91670338292E+02 0.  0.
        254    2    1    2    0    0 -0.41987455307E+03  0.52933913256E+03  0.11827232522E+04  0.16325066864E+04  0.89986067379E+03 0.  0.
         23    2    4    4    0    0 -0.47197575772E+03  0.50731724779E+03  0.12967039880E+04  0.14729876052E+04  0.90107418893E+02 0.  0.
         23    2    4    4    0    0  0.52101204654E+02  0.22021884770E+02 -0.11398073573E+03  0.15951908120E+03  0.96204107048E+02 0.  0.
         11    1    3    3    0    0  0.53626826240E+01 -0.23151873342E+02 -0.46619223393E+02  0.52327044575E+02  0.00000000000E+00 0. -1.
        -11    1    3    3    0    0  0.41451187045E+03 -0.50618725922E+03 -0.63125351066E+03  0.90913509824E+03  0.00000000000E+00 0.  1.
          2    1    5    5  502    0 -0.50891952348E+02  0.41944304024E+02  0.77738457579E+02  0.10194402013E+03  0.00000000000E+00 0.  1.
          3    1    6    6  503    0  0.48208712403E+02  0.73133526247E+01 -0.12914152672E+03  0.13804020792E+03  0.00000000000E+00 0. -1.
         -2    1    5    5    0  502 -0.42108380538E+03  0.46537294377E+03  0.12189655304E+04  0.13710435851E+04  0.00000000000E+00 0. -1.
         -3    1    6    6    0  503  0.38924922508E+01  0.14708532145E+02  0.15160790991E+02  0.21478873277E+02  0.00000000000E+00 0.  1.
<mgrwt>
<rscale>  0 0.25443664E+04</rscale>
<asrwt>0</asrwt>
<pdfrwt beam="1">  1        1 0.23837072E+00 0.25443664E+04</pdfrwt>
<pdfrwt beam="2">  1       -1 0.16070141E+00 0.25443664E+04</pdfrwt>
<totfact> 0.15448155E+00</totfact>
</mgrwt>
</event>
<event>
12    1  0.4672461E-008  0.1714342E+04  0.7818608E-02  0.8753227E-01
          1   -1    0    0  501    0  0.00000000000E+00  0.00000000000E+00  0.14382499063E+04  0.14382499063E+04  0.00000000000E+00 0. -1.
         -1   -1    0    0    0  501 -0.00000000000E+00 -0.00000000000E+00 -0.51085819563E+03  0.51085819563E+03  0.00000000000E+00 0.  1.
         23    2    1    2    0    0  0.57122267962E+03 -0.78184349218E+02  0.58986787186E+03  0.83033414437E+03  0.95407247501E+02 0.  0.
        254    2    1    2    0    0 -0.57122267962E+03  0.78184349218E+02  0.33752383880E+03  0.11187739576E+04  0.89739884342E+03 0.  0.
         23    2    4    4    0    0 -0.29034167076E+03 -0.22119808681E+03  0.53524466741E+03  0.65412153695E+03  0.90339646452E+02 0.  0.
         23    2    4    4    0    0 -0.28088100886E+03  0.29938243603E+03 -0.19772082861E+03  0.46465242061E+03  0.91018469405E+02 0.  0.
         11    1    3    3    0    0  0.45868583169E+03 -0.37694923631E+02  0.50755733447E+03  0.68514819363E+03  0.00000000000E+00 0. -1.
        -11    1    3    3    0    0  0.11253684793E+03 -0.40489425587E+02  0.82310537398E+02  0.14518595075E+03  0.00000000000E+00 0.  1.
          2    1    5    5  502    0 -0.21049457015E+02  0.18790983914E+01  0.63358493846E+02  0.66790039630E+02  0.00000000000E+00 0. -1.
          1    1    6    6  503    0 -0.10766088051E+03  0.88292092096E+02 -0.24760598771E+02  0.14141939743E+03  0.00000000000E+00 0. -1.
         -2    1    5    5    0  502 -0.26929221375E+03 -0.22307718520E+03  0.47188617356E+03  0.58733149732E+03  0.00000000000E+00 0.  1.
         -1    1    6    6    0  503 -0.17322012835E+03  0.21109034394E+03 -0.17296022984E+03  0.32323302318E+03  0.00000000000E+00 0.  1.
<mgrwt>
<rscale>  0 0.17143416E+04</rscale>
<asrwt>0</asrwt>
<pdfrwt beam="1">  1        1 0.22126921E+00 0.17143416E+04</pdfrwt>
<pdfrwt beam="2">  1       -1 0.78593569E-01 0.17143416E+04</pdfrwt>
<totfact> 0.11120257E+01</totfact>
</mgrwt>
</event>
<event>
12    1  0.4672461E-008  0.1797227E+04  0.7818608E-02  0.8707775E-01
         -1   -1    0    0    0  501 -0.00000000000E+00  0.00000000000E+00  0.65716451035E+03  0.65716451035E+03  0.00000000000E+00 0.  1.
          1   -1    0    0  501    0  0.00000000000E+00 -0.00000000000E+00 -0.12287736163E+04  0.12287736163E+04  0.00000000000E+00 0. -1.
         23    2    1    2    0    0 -0.58686579709E+01 -0.96773831456E+02 -0.90859200760E+03  0.91817721747E+03  0.90057486144E+02 0.  0.
        254    2    1    2    0    0  0.58686579709E+01  0.96773831456E+02  0.33698290162E+03  0.96776090921E+03  0.90200004757E+03 0.  0.
         23    2    4    4    0    0  0.31256350246E+03  0.99740933146E+01  0.50087685644E+03  0.59810997738E+03  0.95197132889E+02 0.  0.
         23    2    4    4    0    0 -0.30669484449E+03  0.86799738141E+02 -0.16389395483E+03  0.36965093184E+03  0.90469115183E+02 0.  0.
         13    1    3    3    0    0  0.28841612380E+02 -0.43387519513E+02 -0.19806565707E+03  0.20480312489E+03  0.00000000000E+00 0.  1.
        -13    1    3    3    0    0 -0.34710270351E+02 -0.53386311943E+02 -0.71052635053E+03  0.71337409258E+03  0.00000000000E+00 0. -1.
          2    1    5    5  502    0  0.24834656432E+03  0.28337064162E+01  0.45661821675E+03  0.51979249877E+03  0.00000000000E+00 0.  1.
          1    1    6    6  503    0 -0.94691966966E+02  0.19097278575E+02 -0.60118964655E+01  0.96785420163E+02  0.00000000000E+00 0. -1.
         -2    1    5    5    0  502  0.64216938136E+02  0.71403868983E+01  0.44258639689E+02  0.78317478610E+02  0.00000000000E+00 0. -1.
         -1    1    6    6    0  503 -0.21200287752E+03  0.67702459566E+02 -0.15788205836E+03  0.27286551167E+03  0.00000000000E+00 0.  1.
<mgrwt>
<rscale>  0 0.17972272E+04</rscale>
<asrwt>0</asrwt>
<pdfrwt beam="1">  1        1 0.18904209E+00 0.17972272E+04</pdfrwt>
<pdfrwt beam="2">  1       -1 0.10110223E+00 0.17972272E+04</pdfrwt>
<totfact> 0.89319196E+00</totfact>
</mgrwt>
</event>
<event>
12    1  0.4672461E-008  0.1835525E+04  0.7818608E-02  0.8687633E-01
         -2   -1    0    0    0  501 -0.00000000000E+00  0.00000000000E+00  0.34741701067E+03  0.34741701067E+03  0.00000000000E+00 0.  1.
          2   -1    0    0  501    0  0.00000000000E+00 -0.00000000000E+00 -0.24244289196E+04  0.24244289196E+04  0.00000000000E+00 0. -1.
         23    2    1    2    0    0 -0.36081620113E+03  0.16394660875E+03 -0.17118393646E+04  0.17594923317E+04  0.91391650748E+02 0.  0.
        254    2    1    2    0    0  0.36081620113E+03 -0.16394660875E+03 -0.36517254437E+03  0.10123535985E+04  0.85699591587E+03 0.  0.
         23    2    4    4    0    0  0.37184741772E+01 -0.40830260074E+03 -0.38697565656E+03  0.56978925410E+03  0.90469854084E+02 0.  0.
         23    2    4    4    0    0  0.35709772695E+03  0.24435599199E+03  0.21803112188E+02  0.44256434445E+03  0.90328211881E+02 0.  0.
         11    1    3    3    0    0 -0.48319409367E+02  0.17537687357E+02 -0.11781624781E+03  0.12854183773E+03  0.00000000000E+00 0.  1.
        -11    1    3    3    0    0 -0.31249679176E+03  0.14640892139E+03 -0.15940231168E+04  0.16309504940E+04  0.00000000000E+00 0. -1.
          1    1    5    5  502    0  0.43873119123E+02 -0.26335417121E+03 -0.26455053830E+03  0.37585536765E+03  0.00000000000E+00 0. -1.
          3    1    6    6  503    0  0.11505112282E+03  0.13100504210E+03  0.17817555688E+02  0.17526136827E+03  0.00000000000E+00 0. -1.
         -1    1    5    5    0  502 -0.40154644945E+02 -0.14494842953E+03 -0.12242511826E+03  0.19393388646E+03  0.00000000000E+00 0.  1.
         -3    1    6    6    0  503  0.24204660413E+03  0.11335094989E+03  0.39855564995E+01  0.26730297617E+03  0.00000000000E+00 0.  1.
<mgrwt>
<rscale>  0 0.18355248E+04</rscale>
<asrwt>0</asrwt>
<pdfrwt beam="1">  1        2 0.37298907E+00 0.18355248E+04</pdfrwt>
<pdfrwt beam="2">  1       -2 0.53448771E-01 0.18355248E+04</pdfrwt>
<totfact> 0.11964140E+01</totfact>
</mgrwt>
</event>
<event>
12    1  0.4672461E-008  0.1752674E+04  0.7818608E-02  0.8731880E-01
         -2   -1    0    0    0  501 -0.00000000000E+00  0.00000000000E+00  0.25570530608E+03  0.25570530608E+03  0.00000000000E+00 0.  1.
          2   -1    0    0  501    0  0.00000000000E+00 -0.00000000000E+00 -0.30033277497E+04  0.30033277497E+04  0.00000000000E+00 0. -1.
         23    2    1    2    0    0  0.32548372248E+03 -0.16862526057E+03 -0.19930477323E+04  0.20285316651E+04  0.91254156404E+02 0.  0.
        254    2    1    2    0    0 -0.32548372248E+03  0.16862526057E+03 -0.75457471130E+03  0.12305013906E+04  0.90020916754E+03 0.  0.
         23    2    4    4    0    0 -0.52621833097E+03  0.12737387588E+03 -0.12605936779E+03  0.56301317171E+03  0.89235817963E+02 0.  0.
         23    2    4    4    0    0  0.20073460849E+03  0.41251384690E+02 -0.62851534351E+03  0.66748821893E+03  0.92265516791E+02 0.  0.
         11    1    3    3    0    0  0.20989417255E+03 -0.11764911185E+03 -0.10597722025E+04  0.10867446795E+04  0.00000000000E+00 0. -1.
        -11    1    3    3    0    0  0.11558954992E+03 -0.50976148714E+02 -0.93327552979E+03  0.94178698563E+03  0.00000000000E+00 0.  1.
          2    1    5    5  502    0 -0.42278306118E+03  0.13487751553E+03 -0.11682359910E+03  0.45889564645E+03  0.00000000000E+00 0.  1.
          3    1    6    6  503    0  0.10985457553E+03  0.67209219338E+02 -0.39920294222E+03  0.41946167406E+03  0.00000000000E+00 0. -1.
         -2    1    5    5    0  502 -0.10343526979E+03 -0.75036396563E+01 -0.92357686854E+01  0.10411752526E+03  0.00000000000E+00 0. -1.
         -3    1    6    6    0  503  0.90880032967E+02 -0.25957834649E+02 -0.22931240130E+03  0.24802654487E+03  0.00000000000E+00 0.  1.
<mgrwt>
<rscale>  0 0.17526743E+04</rscale>
<asrwt>0</asrwt>
<pdfrwt beam="1">  1        2 0.46205042E+00 0.17526743E+04</pdfrwt>
<pdfrwt beam="2">  1       -2 0.39339278E-01 0.17526743E+04</pdfrwt>
<totfact> 0.10076938E+01</totfact>
</mgrwt>
</event>
<event>
12    1  0.4672461E-008  0.2117026E+04  0.7818608E-02  0.8553780E-01
         -3   -1    0    0    0  501 -0.00000000000E+00  0.00000000000E+00  0.92168043290E+03  0.92168043290E+03  0.00000000000E+00 0.  1.
          3   -1    0    0  501    0  0.00000000000E+00 -0.00000000000E+00 -0.12156601959E+04  0.12156601959E+04  0.00000000000E+00 0. -1.
         23    2    1    2    0    0  0.15794818350E+03 -0.68110887285E+03 -0.63392702239E+03  0.94861861103E+03  0.95691557208E+02 0.  0.
        254    2    1    2    0    0 -0.15794818350E+03  0.68110887285E+03  0.33994725938E+03  0.11887220178E+04  0.89924355491E+03 0.  0.
         23    2    4    4    0    0  0.30932240619E+03  0.18293947708E+02  0.92171151443E+02  0.33596710598E+03  0.91451384072E+02 0.  0.
         23    2    4    4    0    0 -0.46727058969E+03  0.66281492514E+03  0.24777610794E+03  0.85275491180E+03  0.90180435562E+02 0.  0.
         13    1    3    3    0    0  0.17106480961E+03 -0.64436548210E+03 -0.59917918881E+03  0.89637366310E+03  0.00000000000E+00 0. -1.
        -13    1    3    3    0    0 -0.13116626113E+02 -0.36743390753E+02 -0.34747833586E+02  0.52244947924E+02  0.00000000000E+00 0.  1.
          4    1    5    5  502    0  0.52925729755E+02  0.13913798227E+02  0.53686327331E+02  0.76661257448E+02  0.00000000000E+00 0.  1.
          1    1    6    6  503    0 -0.37727814041E+03  0.58682996989E+03  0.22276938236E+03  0.73234855534E+03  0.00000000000E+00 0. -1.
         -4    1    5    5    0  502  0.25639667644E+03  0.43801494812E+01  0.38484824112E+02  0.25930584853E+03  0.00000000000E+00 0. -1.
         -1    1    6    6    0  503 -0.89992449282E+02  0.75984955252E+02  0.25006725574E+02  0.12040635646E+03  0.00000000000E+00 0.  1.
<mgrwt>
<rscale>  0 0.21170264E+04</rscale>
<asrwt>0</asrwt>
<pdfrwt beam="1">  1        3 0.18702465E+00 0.21170264E+04</pdfrwt>
<pdfrwt beam="2">  1       -3 0.14179699E+00 0.21170264E+04</pdfrwt>
<totfact> 0.15985949E-01</totfact>
</mgrwt>
</event>
<event>
12    1  0.4672461E-008  0.1433818E+04  0.7818608E-02  0.8929696E-01
          2   -1    0    0  501    0  0.00000000000E+00  0.00000000000E+00  0.16346959271E+04  0.16346959271E+04  0.00000000000E+00 0. -1.
         -2   -1    0    0    0  501 -0.00000000000E+00 -0.00000000000E+00 -0.31440631433E+03  0.31440631433E+03  0.00000000000E+00 0.  1.
         23    2    1    2    0    0  0.41198390443E+03  0.14372241083E+02  0.65437950084E+03  0.77711209908E+03  0.75851068512E+02 0.  0.
        254    2    1    2    0    0 -0.41198390443E+03 -0.14372241083E+02  0.66591011198E+03  0.11719901424E+04  0.87188721621E+03 0.  0.
         23    2    4    4    0    0  0.14495465564E+02  0.29908414498E+03 -0.29427786736E+01  0.31413520408E+03  0.94925350644E+02 0.  0.
         23    2    4    4    0    0 -0.42647937000E+03 -0.31345638607E+03  0.66885289065E+03  0.85785493831E+03  0.91713395137E+02 0.  0.
         13    1    3    3    0    0  0.13785355523E+03  0.27480036594E+02  0.17206329110E+03  0.22218130265E+03  0.00000000000E+00 0.  1.
        -13    1    3    3    0    0  0.27413034921E+03 -0.13107795511E+02  0.48231620974E+03  0.55493079644E+03  0.00000000000E+00 0. -1.
          4    1    5    5  502    0 -0.13386341984E+02  0.26459173878E+03  0.17064479190E+02  0.26547914952E+03  0.00000000000E+00 0. -1.
          1    1    6    6  503    0 -0.37795378574E+03 -0.23660194189E+03  0.54327624470E+03  0.70283612678E+03  0.00000000000E+00 0. -1.
         -4    1    5    5    0  502  0.27881807549E+02  0.34492406203E+02 -0.20007257863E+02  0.48656054557E+02  0.00000000000E+00 0.  1.
         -1    1    6    6    0  503 -0.48525584262E+02 -0.76854444179E+02  0.12557664595E+03  0.15501881153E+03  0.00000000000E+00 0.  1.
<mgrwt>
<rscale>  0 0.14338183E+04</rscale>
<asrwt>0</asrwt>
<pdfrwt beam="1">  1        2 0.25149168E+00 0.14338183E+04</pdfrwt>
<pdfrwt beam="2">  1       -2 0.48370203E-01 0.14338183E+04</pdfrwt>
<totfact> 0.41912964E+01</totfact>
</mgrwt>
</event>
<event>
12    1  0.4672461E-008  0.1690245E+04  0.7818608E-02  0.8766948E-01
          1   -1    0    0  501    0  0.00000000000E+00  0.00000000000E+00  0.89619127654E+03  0.89619127654E+03  0.00000000000E+00 0. -1.
         -1   -1    0    0    0  501 -0.00000000000E+00 -0.00000000000E+00 -0.79696349561E+03  0.79696349561E+03  0.00000000000E+00 0.  1.
         23    2    1    2    0    0  0.41434863303E+03  0.41437729771E+03 -0.13616772097E+03  0.60902702130E+03  0.94757215477E+02 0.  0.
        254    2    1    2    0    0 -0.41434863303E+03 -0.41437729771E+03  0.23539550191E+03  0.10841277508E+04  0.88120860373E+03 0.  0.
         23    2    4    4    0    0 -0.12904348158E+03 -0.23313846627E+03 -0.31843744478E+03  0.42726321783E+03  0.10072579844E+03 0.  0.
         23    2    4    4    0    0 -0.28530515145E+03 -0.18123883144E+03  0.55383294669E+03  0.65686453302E+03  0.10243797362E+03 0.  0.
         11    1    3    3    0    0  0.29256595443E+03  0.31808837081E+03 -0.60735320289E+02  0.43642161778E+03  0.00000000000E+00 0. -1.
        -11    1    3    3    0    0  0.12178267860E+03  0.96288926902E+02 -0.75432400682E+02  0.17260540352E+03  0.00000000000E+00 0.  1.
          4    1    6    6  502    0 -0.13744620967E+03 -0.14425967056E+03  0.28333347946E+03  0.34638154351E+03  0.00000000000E+00 0.  1.
          4    1    5    5  503    0 -0.15394728184E+02 -0.86561270319E+02 -0.50493265607E+02  0.10138747973E+03  0.00000000000E+00 0. -1.
         -4    1    5    5    0  503 -0.11364875340E+03 -0.14657719595E+03 -0.26794417918E+03  0.32587573809E+03  0.00000000000E+00 0.  1.
         -4    1    6    6    0  502 -0.14785894177E+03 -0.36979160873E+02  0.27049946723E+03  0.31048298951E+03  0.00000000000E+00 0. -1.
<mgrwt>
<rscale>  0 0.16902446E+04</rscale>
<asrwt>0</asrwt>
<pdfrwt beam="1">  1        1 0.13787558E+00 0.16902446E+04</pdfrwt>
<pdfrwt beam="2">  1       -1 0.12260977E+00 0.16902446E+04</pdfrwt>
<totfact> 0.10250658E+01</totfact>
</mgrwt>
</event>
<event>
12    1  0.4672461E-008  0.1825966E+04  0.7818608E-02  0.8692612E-01
          2   -1    0    0  501    0  0.00000000000E+00  0.00000000000E+00  0.17142953172E+04  0.17142953172E+04  0.00000000000E+00 0. -1.
         -2   -1    0    0    0  501 -0.00000000000E+00 -0.00000000000E+00 -0.48622762273E+03  0.48622762273E+03  0.00000000000E+00 0.  1.
         23    2    1    2    0    0 -0.61656716794E+03  0.25235714506E+03  0.25447187409E+03  0.71931267716E+03  0.93891381809E+02 0.  0.
        254    2    1    2    0    0  0.61656716794E+03 -0.25235714506E+03  0.97359582037E+03  0.14812102627E+04  0.89568734489E+03 0.  0.
         23    2    4    4    0    0  0.81735365658E+02  0.33164611044E+02 -0.15282810838E+03  0.19842763181E+03  0.90755346566E+02 0.  0.
         23    2    4    4    0    0  0.53483180228E+03 -0.28552175610E+03  0.11264239288E+04  0.12827826309E+04  0.95565061754E+02 0.  0.
         11    1    3    3    0    0 -0.46980536875E+03  0.22616210995E+03  0.22219329179E+03  0.56677706676E+03  0.00000000000E+00 0.  1.
        -11    1    3    3    0    0 -0.14676179919E+03  0.26195035102E+02  0.32278582299E+02  0.15253561041E+03  0.00000000000E+00 0. -1.
          1    1    5    5  502    0 -0.77369247415E+01 -0.16128615973E+02 -0.47071561572E+01  0.18497285659E+02  0.00000000000E+00 0. -1.
          3    1    6    6  503    0  0.29296071219E+03 -0.10617009814E+03  0.53548475090E+03  0.61954982614E+03  0.00000000000E+00 0. -1.
         -1    1    5    5    0  502  0.89472290399E+02  0.49293227017E+02 -0.14812095223E+03  0.17993034615E+03  0.00000000000E+00 0.  1.
         -3    1    6    6    0  503  0.24187109010E+03 -0.17935165796E+03  0.59093917785E+03  0.66323280480E+03  0.00000000000E+00 0.  1.
<mgrwt>
<rscale>  0 0.18259658E+04</rscale>
<asrwt>0</asrwt>
<pdfrwt beam="1">  1        2 0.26373774E+00 0.18259658E+04</pdfrwt>
<pdfrwt beam="2">  1       -2 0.74804251E-01 0.18259658E+04</pdfrwt>
<totfact> 0.14568308E+01</totfact>
</mgrwt>
</event>
<event>
12    1  0.4672461E-008  0.1619429E+04  0.7818608E-02  0.8808700E-01
         -1   -1    0    0    0  501 -0.00000000000E+00  0.00000000000E+00  0.65501817469E+03  0.65501817469E+03  0.00000000000E+00 0.  1.
          1   -1    0    0  501    0  0.00000000000E+00 -0.00000000000E+00 -0.10009454848E+04  0.10009454848E+04  0.00000000000E+00 0. -1.
         23    2    1    2    0    0 -0.12427756683E+03 -0.36176661873E+03  0.28216459216E+03  0.48516736571E+03  0.97213762626E+02 0.  0.
        254    2    1    2    0    0  0.12427756683E+03  0.36176661873E+03 -0.62809190223E+03  0.11707962937E+04  0.91101291085E+03 0.  0.
         23    2    4    4    0    0 -0.27467103612E+03 -0.12329643522E+03 -0.36956507221E+03  0.48557739014E+03  0.92524970668E+02 0.  0.
         23    2    4    4    0    0  0.39894860294E+03  0.48506305395E+03 -0.25852683001E+03  0.68521890359E+03  0.90789150780E+02 0.  0.
         13    1    3    3    0    0 -0.41259343786E+02 -0.19370012103E+03  0.92784320376E+02  0.21870299596E+03  0.00000000000E+00 0. -1.
        -13    1    3    3    0    0 -0.83018223042E+02 -0.16806649770E+03  0.18938027178E+03  0.26646436975E+03  0.00000000000E+00 0.  1.
          3    1    6    6  502    0  0.35509999043E+03  0.45142651741E+03 -0.25876732696E+03  0.62995431051E+03  0.00000000000E+00 0. -1.
          3    1    5    5  503    0 -0.25123339974E+03 -0.13813596059E+03 -0.34443788470E+03  0.44814865967E+03  0.00000000000E+00 0. -1.
         -3    1    5    5    0  503 -0.23437636378E+02  0.14839525365E+02 -0.25127187513E+02  0.37428730467E+02  0.00000000000E+00 0.  1.
         -3    1    6    6    0  502  0.43848612511E+02  0.33636536540E+02  0.24049694464E+00  0.55264593080E+02  0.00000000000E+00 0.  1.
<mgrwt>
<rscale>  0 0.16194289E+04</rscale>
<asrwt>0</asrwt>
<pdfrwt beam="1">  1        1 0.15399161E+00 0.16194289E+04</pdfrwt>
<pdfrwt beam="2">  1       -1 0.10077203E+00 0.16194289E+04</pdfrwt>
<totfact> 0.13554043E+01</totfact>
</mgrwt>
</event>
<event>
12    1  0.4672461E-008  0.1154511E+04  0.7818608E-02  0.9153632E-01
         -1   -1    0    0    0  501 -0.00000000000E+00  0.00000000000E+00  0.72034519010E+03  0.72034519010E+03  0.00000000000E+00 0.  1.
          1   -1    0    0  501    0  0.00000000000E+00 -0.00000000000E+00 -0.46258887117E+03  0.46258887117E+03  0.00000000000E+00 0. -1.
         23    2    1    2    0    0 -0.16472034673E+02 -0.20988302341E+03  0.69806136053E+01  0.22993703950E+03  0.92195996255E+02 0.  0.
        254    2    1    2    0    0  0.16472034673E+02  0.20988302341E+03  0.25077570532E+03  0.95299702176E+03  0.89498193148E+03 0.  0.
         23    2    4    4    0    0 -0.20350902913E+03  0.47678417924E+03  0.27483184708E+03  0.59386866480E+03  0.91697155636E+02 0.  0.
         23    2    4    4    0    0  0.21998106380E+03 -0.26690115583E+03 -0.24056141767E+02  0.35912835696E+03  0.93630034723E+02 0.  0.
         11    1    3    3    0    0  0.14840952245E+02 -0.13983753316E+03 -0.31491595058E+02  0.14410589892E+03  0.00000000000E+00 0. -1.
        -11    1    3    3    0    0 -0.31312986918E+02 -0.70045490256E+02  0.38472208663E+02  0.85831140586E+02  0.00000000000E+00 0.  1.
          2    1    5    5  502    0 -0.16358053401E+03  0.29949650001E+03  0.21118194453E+03  0.40131603297E+03  0.00000000000E+00 0. -1.
          4    1    6    6  503    0  0.57363617465E+02 -0.14066150184E+03 -0.20023721220E+02  0.15322268801E+03  0.00000000000E+00 0.  1.
         -2    1    5    5    0  502 -0.39928495112E+02  0.17728767923E+03  0.63649902559E+02  0.19255263183E+03  0.00000000000E+00 0.  1.
         -4    1    6    6    0  503  0.16261744633E+03 -0.12623965399E+03 -0.40324205477E+01  0.20590566895E+03  0.00000000000E+00 0. -1.
<mgrwt>
<rscale>  0 0.11545106E+04</rscale>
<asrwt>0</asrwt>
<pdfrwt beam="1">  1        1 0.71167519E-01 0.11545106E+04</pdfrwt>
<pdfrwt beam="2">  1       -1 0.11082234E+00 0.11545106E+04</pdfrwt>
<totfact> 0.36733879E+01</totfact>
</mgrwt>
</event>
<event>
12    1  0.4672461E-008  0.1990997E+04  0.7818608E-02  0.8610841E-01
         -1   -1    0    0    0  501 -0.00000000000E+00  0.00000000000E+00  0.19463908979E+04  0.19463908979E+04  0.00000000000E+00 0.  1.
          1   -1    0    0  501    0  0.00000000000E+00 -0.00000000000E+00 -0.50915633218E+03  0.50915633218E+03  0.00000000000E+00 0. -1.
         23    2    1    2    0    0  0.12819621671E+03  0.51202479232E+03 -0.15586381258E+03  0.55755640722E+03  0.89285840040E+02 0.  0.
        254    2    1    2    0    0 -0.12819621671E+03 -0.51202479232E+03  0.15930983783E+04  0.18979908229E+04  0.88645533606E+03 0.  0.
         23    2    4    4    0    0 -0.16607855329E+03 -0.46166090522E+02  0.13480562003E+04  0.13625627401E+04  0.98021976552E+02 0.  0.
         23    2    4    4    0    0  0.37882336575E+02 -0.46585870180E+03  0.24504217807E+03  0.53542808279E+03  0.90433187169E+02 0.  0.
         11    1    3    3    0    0  0.29474578001E+02  0.10111748849E+03  0.48279628044E+01  0.10543626725E+03  0.00000000000E+00 0.  1.
        -11    1    3    3    0    0  0.98721638710E+02  0.41090730383E+03 -0.16069177539E+03  0.45212013997E+03  0.00000000000E+00 0. -1.
          3    1    6    6  502    0  0.28814046116E+02 -0.44822834534E+03  0.25125288783E+03  0.51465222477E+03  0.00000000000E+00 0. -1.
          3    1    5    5  503    0 -0.17266750380E+03 -0.23884748233E+02  0.12239561867E+04  0.12363063112E+04  0.00000000000E+00 0. -1.
         -3    1    5    5    0  503  0.65889505097E+01 -0.22281342289E+02  0.12410001354E+03  0.12625642892E+03  0.00000000000E+00 0.  1.
         -3    1    6    6    0  502  0.90682904595E+01 -0.17630356458E+02 -0.62107097589E+01  0.20775858019E+02  0.00000000000E+00 0.  1.
<mgrwt>
<rscale>  0 0.19909970E+04</rscale>
<asrwt>0</asrwt>
<pdfrwt beam="1">  1        1 0.78331744E-01 0.19909970E+04</pdfrwt>
<pdfrwt beam="2">  1       -1 0.29944475E+00 0.19909970E+04</pdfrwt>
<totfact> 0.13370919E+00</totfact>
</mgrwt>
</event>
<event>
12    1  0.4672461E-008  0.1163456E+04  0.7818608E-02  0.9145459E-01
          2   -1    0    0  501    0  0.00000000000E+00  0.00000000000E+00  0.23459377411E+04  0.23459377411E+04  0.00000000000E+00 0. -1.
         -2   -1    0    0    0  501 -0.00000000000E+00 -0.00000000000E+00 -0.14425246725E+03  0.14425246725E+03  0.00000000000E+00 0.  1.
         23    2    1    2    0    0 -0.84500444706E+02  0.14017084516E+03  0.14286681948E+03  0.23494397581E+03  0.89440218422E+02 0.  0.
        254    2    1    2    0    0  0.84500444706E+02 -0.14017084516E+03  0.20588184544E+04  0.22552462325E+04  0.90587744774E+03 0.  0.
         23    2    4    4    0    0  0.63850643617E+01 -0.27923039617E+03  0.13532217209E+03  0.32303216315E+03  0.89595228534E+02 0.  0.
         23    2    4    4    0    0  0.78115380344E+02  0.13905955101E+03  0.19234962823E+04  0.19322140694E+04  0.90408465465E+02 0.  0.
         11    1    3    3    0    0 -0.64730910368E+02  0.11519257729E+03  0.58014244667E+02  0.14430895054E+03  0.00000000000E+00 0.  1.
        -11    1    3    3    0    0 -0.19769534338E+02  0.24978267867E+02  0.84852574812E+02  0.90635025270E+02  0.00000000000E+00 0. -1.
          1    1    5    5  502    0 -0.20594035172E+02 -0.72311089509E+02  0.74103571253E+02  0.10556679034E+03  0.00000000000E+00 0. -1.
          3    1    6    6  503    0  0.46946050827E+00  0.61545679493E+02  0.39299081863E+03  0.39778118933E+03  0.00000000000E+00 0. -1.
         -1    1    5    5    0  502  0.26979099533E+02 -0.20691930666E+03  0.61218600838E+02  0.21746537281E+03  0.00000000000E+00 0.  1.
         -3    1    6    6    0  503  0.77645919836E+02  0.77513871520E+02  0.15305054636E+04  0.15344328800E+04  0.00000000000E+00 0.  1.
<mgrwt>
<rscale>  0 0.11634557E+04</rscale>
<asrwt>0</asrwt>
<pdfrwt beam="1">  1        2 0.36091347E+00 0.11634557E+04</pdfrwt>
<pdfrwt beam="2">  1       -2 0.22192689E-01 0.11634557E+04</pdfrwt>
<totfact> 0.75438555E+01</totfact>
</mgrwt>
</event>
<event>
12    1  0.4672461E-008  0.2282848E+04  0.7818608E-02  0.8484715E-01
          2   -1    0    0  501    0  0.00000000000E+00  0.00000000000E+00  0.30813712050E+04  0.30813712050E+04  0.00000000000E+00 0. -1.
         -2   -1    0    0    0  501 -0.00000000000E+00 -0.00000000000E+00 -0.42281447268E+03  0.42281447268E+03  0.00000000000E+00 0.  1.
         23    2    1    2    0    0  0.36887459922E+02  0.62371567988E+03  0.27486122702E+01  0.63146047320E+03  0.91393874567E+02 0.  0.
        254    2    1    2    0    0 -0.36887459922E+02 -0.62371567988E+03  0.26558081200E+04  0.28727252045E+04  0.89936166026E+03 0.  0.
         23    2    4    4    0    0  0.40885338302E+03 -0.42263107542E+03  0.15408037489E+04  0.16518084521E+04  0.92827016299E+02 0.  0.
         23    2    4    4    0    0 -0.44574084294E+03 -0.20108460446E+03  0.11150043711E+04  0.12209167524E+04  0.91011271056E+02 0.  0.
         13    1    3    3    0    0  0.27657178959E+02  0.16279907482E+03 -0.35373622061E+02  0.16887791877E+03  0.00000000000E+00 0. -1.
        -13    1    3    3    0    0  0.92302809630E+01  0.46091660506E+03  0.38122234331E+02  0.46258255443E+03  0.00000000000E+00 0.  1.
          2    1    5    5  502    0  0.62794376833E+02 -0.56366317026E+02  0.14408832005E+03  0.16697826035E+03  0.00000000000E+00 0. -1.
          3    1    6    6  503    0 -0.97383528320E+02 -0.11477059691E+02  0.27572001162E+03  0.29263765871E+03  0.00000000000E+00 0. -1.
         -2    1    5    5    0  502  0.34605900618E+03 -0.36626475840E+03  0.13967154289E+04  0.14848301917E+04  0.00000000000E+00 0.  1.
         -3    1    6    6    0  503 -0.34835731462E+03 -0.18960754477E+03  0.83928435951E+03  0.92827909370E+03  0.00000000000E+00 0.  1.
<mgrwt>
<rscale>  0 0.22828476E+04</rscale>
<asrwt>0</asrwt>
<pdfrwt beam="1">  1        2 0.47405709E+00 0.22828476E+04</pdfrwt>
<pdfrwt beam="2">  1       -2 0.65048382E-01 0.22828476E+04</pdfrwt>
<totfact> 0.30640093E+00</totfact>
</mgrwt>
</event>
<event>
12    1  0.4672461E-008  0.2741269E+04  0.7818608E-02  0.8321738E-01
         -2   -1    0    0    0  501 -0.00000000000E+00  0.00000000000E+00  0.19072006059E+04  0.19072006059E+04  0.00000000000E+00 0.  1.
          2   -1    0    0  501    0  0.00000000000E+00 -0.00000000000E+00 -0.98502427246E+03  0.98502427246E+03  0.00000000000E+00 0. -1.
         23    2    1    2    0    0  0.10796292061E+04  0.16440830751E+03 -0.15194657129E+03  0.11065007300E+04  0.92880518618E+02 0.  0.
        254    2    1    2    0    0 -0.10796292061E+04 -0.16440830751E+03  0.10741229047E+04  0.17857241483E+04  0.91784606833E+03 0.  0.
         23    2    4    4    0    0 -0.78925628766E+03  0.27552311785E+03  0.41889549951E+03  0.93926456672E+03  0.88915750544E+02 0.  0.
         23    2    4    4    0    0 -0.29037291845E+03 -0.43993142537E+03  0.65522740520E+03  0.84645958159E+03  0.96513107640E+02 0.  0.
         11    1    3    3    0    0  0.79379693288E+03  0.79150754105E+02 -0.10866782061E+03  0.80510068175E+03  0.00000000000E+00 0. -1.
        -11    1    3    3    0    0  0.28583227323E+03  0.85257553409E+02 -0.43278750685E+02  0.30140004827E+03  0.00000000000E+00 0.  1.
          1    1    6    6  502    0 -0.16870781909E+03 -0.18017018692E+03  0.34157838514E+03  0.42142545921E+03  0.00000000000E+00 0. -1.
          1    1    5    5  503    0 -0.49871286397E+02  0.10886284264E+02  0.43007600955E+01  0.51226486600E+02  0.00000000000E+00 0. -1.
         -1    1    5    5    0  503 -0.73938500126E+03  0.26463683359E+03  0.41459473942E+03  0.88803808012E+03  0.00000000000E+00 0.  1.
         -1    1    6    6    0  502 -0.12166509936E+03 -0.25976123845E+03  0.31364902006E+03  0.42503412238E+03  0.00000000000E+00 0.  1.
<mgrwt>
<rscale>  0 0.27412690E+04</rscale>
<asrwt>0</asrwt>
<pdfrwt beam="1">  1        2 0.15154220E+00 0.27412690E+04</pdfrwt>
<pdfrwt beam="2">  1       -2 0.29341548E+00 0.27412690E+04</pdfrwt>
<totfact> 0.78530900E-01</totfact>
</mgrwt>
</event>
<event>
12    1  0.4672461E-008  0.1110281E+04  0.7818608E-02  0.9195229E-01
         -2   -1    0    0    0  501 -0.00000000000E+00  0.00000000000E+00  0.22365306643E+03  0.22365306643E+03  0.00000000000E+00 0.  1.
          2   -1    0    0  501    0  0.00000000000E+00 -0.00000000000E+00 -0.13779411364E+04  0.13779411364E+04  0.00000000000E+00 0. -1.
         23    2    1    2    0    0 -0.10276263446E+03 -0.13583429107E+03 -0.26727223987E+03  0.32977267766E+03  0.91128782810E+02 0.  0.
        254    2    1    2    0    0  0.10276263446E+03  0.13583429107E+03 -0.88701583014E+03  0.12718215252E+04  0.89538918654E+03 0.  0.
         23    2    4    4    0    0 -0.61113302496E+02 -0.21545011227E+03  0.55628810595E+02  0.24859850662E+03  0.92482789258E+02 0.  0.
         23    2    4    4    0    0  0.16387593696E+03  0.35128440333E+03 -0.94264464074E+03  0.10232230186E+04  0.90279412366E+02 0.  0.
         11    1    3    3    0    0 -0.66072565473E+02 -0.13077350246E+03 -0.24793415933E+03  0.28799069467E+03  0.00000000000E+00 0. -1.
        -11    1    3    3    0    0 -0.36690068988E+02 -0.50607886012E+01 -0.19338080540E+02  0.41781982990E+02  0.00000000000E+00 0.  1.
          1    1    6    6  502    0  0.10990012156E+03  0.19461629188E+03 -0.43243094633E+03  0.48677516486E+03  0.00000000000E+00 0. -1.
          1    1    5    5  503    0 -0.44314417748E+02 -0.20357597480E+03  0.22436170233E+02  0.20954791068E+03  0.00000000000E+00 0. -1.
         -1    1    5    5    0  503 -0.16798884748E+02 -0.11874137471E+02  0.33192640362E+02  0.39050595945E+02  0.00000000000E+00 0.  1.
         -1    1    6    6    0  502  0.53975815399E+02  0.15666811146E+03 -0.51021369441E+03  0.53644785371E+03  0.00000000000E+00 0.  1.
<mgrwt>
<rscale>  0 0.11102806E+04</rscale>
<asrwt>0</asrwt>
<pdfrwt beam="1">  1        2 0.21199095E+00 0.11102806E+04</pdfrwt>
<pdfrwt beam="2">  1       -2 0.34408163E-01 0.11102806E+04</pdfrwt>
<totfact> 0.11690378E+02</totfact>
</mgrwt>
</event>
<event>
12    1  0.4672461E-008  0.1398587E+04  0.7818608E-02  0.8954842E-01
         -2   -1    0    0    0  501 -0.00000000000E+00  0.00000000000E+00  0.24996783357E+04  0.24996783357E+04  0.00000000000E+00 0.  1.
          2   -1    0    0  501    0  0.00000000000E+00 -0.00000000000E+00 -0.19562962554E+03  0.19562962554E+03  0.00000000000E+00 0. -1.
         23    2    1    2    0    0  0.11267453860E+03  0.37786313088E+03  0.53905110420E+03  0.67382057459E+03  0.89341907699E+02 0.  0.
        254    2    1    2    0    0 -0.11267453860E+03 -0.37786313088E+03  0.17649976060E+04  0.20214873867E+04  0.90317141676E+03 0.  0.
         23    2    4    4    0    0 -0.49944347516E+03 -0.15581334951E+03  0.96897202568E+03  0.11048161965E+04  0.89389354694E+02 0.  0.
         23    2    4    4    0    0  0.38676893656E+03 -0.22204978137E+03  0.79602558029E+03  0.91667119017E+03  0.87937652453E+02 0.  0.
         13    1    3    3    0    0  0.28749459821E+02  0.37934066098E+02  0.30999465260E+02  0.56802215249E+02  0.00000000000E+00 0. -1.
        -13    1    3    3    0    0  0.83925078774E+02  0.33992906478E+03  0.50805163894E+03  0.61701835934E+03  0.00000000000E+00 0.  1.
          4    1    5    5  502    0 -0.46137353238E+03 -0.12002524790E+03  0.89782539399E+03  0.10165441626E+04  0.00000000000E+00 0. -1.
          3    1    6    6  503    0  0.35250878260E+03 -0.20799485607E+03  0.66821595670E+03  0.78360504512E+03  0.00000000000E+00 0. -1.
         -4    1    5    5    0  502 -0.38069942776E+02 -0.35788101608E+02  0.71146631689E+02  0.88272033852E+02  0.00000000000E+00 0.  1.
         -3    1    6    6    0  503  0.34260153963E+02 -0.14054925305E+02  0.12780962359E+03  0.13306614505E+03  0.00000000000E+00 0.  1.
<mgrwt>
<rscale>  0 0.13985866E+04</rscale>
<asrwt>0</asrwt>
<pdfrwt beam="1">  1        2 0.30096867E-01 0.13985866E+04</pdfrwt>
<pdfrwt beam="2">  1       -2 0.38456588E+00 0.13985866E+04</pdfrwt>
<totfact> 0.16340691E+00</totfact>
</mgrwt>
</event>
<event>
12    1  0.4672461E-008  0.1557583E+04  0.7818608E-02  0.8847039E-01
          2   -1    0    0  501    0  0.00000000000E+00  0.00000000000E+00  0.31149992929E+04  0.31149992929E+04  0.00000000000E+00 0. -1.
         -2   -1    0    0    0  501 -0.00000000000E+00 -0.00000000000E+00 -0.19470833679E+03  0.19470833679E+03  0.00000000000E+00 0.  1.
         23    2    1    2    0    0 -0.48357247503E+03 -0.17121274097E+03  0.85615167248E+03  0.10022058951E+04  0.90911103254E+02 0.  0.
        254    2    1    2    0    0  0.48357247503E+03  0.17121274097E+03  0.20641392837E+04  0.23075017346E+04  0.89483916512E+03 0.  0.
         23    2    4    4    0    0  0.45384532370E+03  0.12526056790E+03  0.21233508649E+04  0.21767770350E+04  0.89853086418E+02 0.  0.
         23    2    4    4    0    0  0.29727151325E+02  0.45952173074E+02 -0.59211581223E+02  0.13072469954E+03  0.10289620976E+03 0.  0.
         11    1    3    3    0    0 -0.46842346899E+03 -0.17026448115E+03  0.78805686222E+03  0.93243989508E+03  0.00000000000E+00 0.  1.
        -11    1    3    3    0    0 -0.15149006035E+02 -0.94825982453E+00  0.68094810263E+02  0.69766000067E+02  0.00000000000E+00 0. -1.
          4    1    5    5  502    0  0.38392520826E+03  0.76426518732E+02  0.16496530992E+04  0.16954630418E+04  0.00000000000E+00 0. -1.
          1    1    6    6  503    0 -0.26260879444E+02  0.52989995224E+02 -0.21845837976E+02  0.63046126129E+02  0.00000000000E+00 0. -1.
         -4    1    5    5    0  502  0.69920115446E+02  0.48834049168E+02  0.47369776564E+03  0.48131399323E+03  0.00000000000E+00 0.  1.
         -1    1    6    6    0  503  0.55988030770E+02 -0.70378221507E+01 -0.37365743247E+02  0.67678573408E+02  0.00000000000E+00 0.  1.
<mgrwt>
<rscale>  0 0.15575832E+04</rscale>
<asrwt>0</asrwt>
<pdfrwt beam="1">  1        2 0.47923063E+00 0.15575832E+04</pdfrwt>
<pdfrwt beam="2">  1       -2 0.29955131E-01 0.15575832E+04</pdfrwt>
<totfact> 0.14674497E+01</totfact>
</mgrwt>
</event>
<event>
12    1  0.4672461E-008  0.1868845E+04  0.7818608E-02  0.8670521E-01
         -2   -1    0    0    0  501 -0.00000000000E+00  0.00000000000E+00  0.22369170452E+04  0.22369170452E+04  0.00000000000E+00 0.  1.
          2   -1    0    0  501    0  0.00000000000E+00 -0.00000000000E+00 -0.39033430248E+03  0.39033430248E+03  0.00000000000E+00 0. -1.
         23    2    1    2    0    0  0.30598022625E+03 -0.60658179490E+03  0.43723179640E+03  0.81079076473E+03  0.68151651807E+02 0.  0.
        254    2    1    2    0    0 -0.30598022625E+03  0.60658179490E+03  0.14093509463E+04  0.18164605829E+04  0.92287246504E+03 0.  0.
         23    2    4    4    0    0 -0.42000498467E+02  0.17640431179E+03  0.12688949107E+04  0.12850265391E+04  0.91194235856E+02 0.  0.
         23    2    4    4    0    0 -0.26397972778E+03  0.43017748311E+03  0.14045603565E+03  0.53143404389E+03  0.89197989890E+02 0.  0.
         13    1    3    3    0    0  0.21378008166E+03 -0.48114118707E+03  0.32274174421E+03  0.61754432931E+03  0.00000000000E+00 0. -1.
        -13    1    3    3    0    0  0.92200144583E+02 -0.12544060782E+03  0.11449005219E+03  0.19324643542E+03  0.00000000000E+00 0.  1.
          4    1    5    5  502    0 -0.34755449522E+02  0.17822531827E+03  0.10211481552E+04  0.10371671805E+04  0.00000000000E+00 0. -1.
          3    1    6    6  503    0 -0.20165622520E+03  0.33818255816E+03  0.14659531017E+03  0.42014623736E+03  0.00000000000E+00 0. -1.
         -4    1    5    5    0  502 -0.72450489457E+01 -0.18210064756E+01  0.24774675544E+03  0.24785935857E+03  0.00000000000E+00 0.  1.
         -3    1    6    6    0  503 -0.62323502578E+02  0.91994924948E+02 -0.61392745165E+01  0.11128780653E+03  0.00000000000E+00 0.  1.
<mgrwt>
<rscale>  0 0.18688450E+04</rscale>
<asrwt>0</asrwt>
<pdfrwt beam="1">  1        2 0.60051432E-01 0.18688450E+04</pdfrwt>
<pdfrwt beam="2">  1       -2 0.34414108E+00 0.18688450E+04</pdfrwt>
<totfact> 0.13038399E+00</totfact>
</mgrwt>
</event>
<event>
12    1  0.4672461E-008  0.3762496E+04  0.7818608E-02  0.8054251E-01
         -2   -1    0    0    0  501 -0.00000000000E+00  0.00000000000E+00  0.92688731910E+03  0.92688731910E+03  0.00000000000E+00 0.  1.
          2   -1    0    0  501    0  0.00000000000E+00 -0.00000000000E+00 -0.38182567097E+04  0.38182567097E+04  0.00000000000E+00 0. -1.
         23    2    1    2    0    0 -0.14208324612E+04  0.98370475355E+03 -0.18711808154E+04  0.25486982436E+04  0.90028708168E+02 0.  0.
        254    2    1    2    0    0  0.14208324612E+04 -0.98370475355E+03 -0.10201885752E+04  0.21964457851E+04  0.89283225377E+03 0.  0.
         23    2    4    4    0    0  0.11238400257E+04 -0.28323303572E+03 -0.75118927249E+03  0.13843018297E+04  0.93642280995E+02 0.  0.
         23    2    4    4    0    0  0.29699243547E+03 -0.70047171783E+03 -0.26899930267E+03  0.81214395544E+03  0.91389525138E+02 0.  0.
         11    1    3    3    0    0 -0.93697316764E+03  0.61269498061E+03 -0.12569675440E+04  0.16832353558E+04  0.00000000000E+00 0. -1.
        -11    1    3    3    0    0 -0.48385929351E+03  0.37100977294E+03 -0.61421327140E+03  0.86546288788E+03  0.00000000000E+00 0.  1.
          2    1    5    5  502    0  0.72983590041E+03 -0.22964360528E+03 -0.49107154708E+03  0.90914679306E+03  0.00000000000E+00 0. -1.
          1    1    6    6  503    0  0.16288366668E+03 -0.47849635577E+03 -0.15357137893E+03  0.52827456856E+03  0.00000000000E+00 0. -1.
         -2    1    5    5    0  502  0.39400412527E+03 -0.53589430439E+02 -0.26011772540E+03  0.47515503665E+03  0.00000000000E+00 0.  1.
         -1    1    6    6    0  503  0.13410876879E+03 -0.22197536206E+03 -0.11542792373E+03  0.28386938688E+03  0.00000000000E+00 0.  1.
<mgrwt>
<rscale>  0 0.37624958E+04</rscale>
<asrwt>0</asrwt>
<pdfrwt beam="1">  1        2 0.58742410E+00 0.37624958E+04</pdfrwt>
<pdfrwt beam="2">  1       -2 0.14259805E+00 0.37624958E+04</pdfrwt>
<totfact> 0.13060663E-01</totfact>
</mgrwt>
</event>
<event>
12    1  0.4672461E-008  0.1568103E+04  0.7818608E-02  0.8840387E-01
         -2   -1    0    0    0  501 -0.00000000000E+00  0.00000000000E+00  0.70321460261E+03  0.70321460261E+03  0.00000000000E+00 0.  1.
          2   -1    0    0  501    0  0.00000000000E+00 -0.00000000000E+00 -0.87418044849E+03  0.87418044849E+03  0.00000000000E+00 0. -1.
         23    2    1    2    0    0 -0.37299421980E+03 -0.32808121218E+03 -0.22544504103E+03  0.55294315879E+03  0.90325525432E+02 0.  0.
        254    2    1    2    0    0  0.37299421980E+03  0.32808121218E+03  0.54479195139E+02  0.10244518923E+04  0.89429957351E+03 0.  0.
         23    2    4    4    0    0  0.42250206664E+03  0.58038683027E+03 -0.64427277451E+02  0.72667957565E+03  0.92495743304E+02 0.  0.
         23    2    4    4    0    0 -0.49507846842E+02 -0.25230561809E+03  0.11890647259E+03  0.29777231666E+03  0.91763018292E+02 0.  0.
         11    1    3    3    0    0 -0.36665555123E+03 -0.29330946128E+03 -0.21067250533E+03  0.51463544167E+03  0.00000000000E+00 0. -1.
        -11    1    3    3    0    0 -0.63386685622E+01 -0.34771750898E+02 -0.14772535702E+02  0.38307717117E+02  0.00000000000E+00 0.  1.
          2    1    5    5  502    0  0.71933721849E+02  0.75197492270E+02  0.20101560519E+02  0.10598677237E+03  0.00000000000E+00 0. -1.
          3    1    6    6  503    0 -0.48547312476E+02 -0.13891234778E+03  0.22356284408E+02  0.14883979766E+03  0.00000000000E+00 0. -1.
         -2    1    5    5    0  502  0.35056834479E+03  0.50518933800E+03 -0.84528837970E+02  0.62069280328E+03  0.00000000000E+00 0.  1.
         -3    1    6    6    0  503 -0.96053436582E+00 -0.11339327031E+03  0.96550188182E+02  0.14893251900E+03  0.00000000000E+00 0.  1.
<mgrwt>
<rscale>  0 0.15681026E+04</rscale>
<asrwt>0</asrwt>
<pdfrwt beam="1">  1        2 0.13448930E+00 0.15681026E+04</pdfrwt>
<pdfrwt beam="2">  1       -2 0.10818686E+00 0.15681026E+04</pdfrwt>
<totfact> 0.20079981E+01</totfact>
</mgrwt>
</event>
<event>
12    1  0.4672461E-008  0.1333637E+04  0.7818608E-02  0.9003308E-01
          1   -1    0    0  501    0  0.00000000000E+00  0.00000000000E+00  0.10776954436E+04  0.10776954436E+04  0.00000000000E+00 0. -1.
         -1   -1    0    0    0  501 -0.00000000000E+00 -0.00000000000E+00 -0.41259020126E+03  0.41259020126E+03  0.00000000000E+00 0.  1.
         23    2    1    2    0    0  0.17582362364E+02  0.17776319450E+03  0.50615124677E+03  0.54557436060E+03  0.97741524159E+02 0.  0.
        254    2    1    2    0    0 -0.17582362364E+02 -0.17776319450E+03  0.15895399559E+03  0.94471128429E+03  0.91394974980E+03 0.  0.
         23    2    4    4    0    0  0.13573036004E+03 -0.10799838171E+03 -0.34978592147E+03  0.40125228130E+03  0.92557124523E+02 0.  0.
         23    2    4    4    0    0 -0.15331272240E+03 -0.69764812796E+02  0.50873991706E+03  0.54345900299E+03  0.90329755707E+02 0.  0.
         13    1    3    3    0    0  0.19360790667E+02  0.17702919492E+02  0.17914259802E+02  0.31767188702E+02  0.00000000000E+00 0.  1.
        -13    1    3    3    0    0 -0.17784283036E+01  0.16006027501E+03  0.48823698697E+03  0.51380717190E+03  0.00000000000E+00 0. -1.
          1    1    5    5  502    0  0.12542118675E+03 -0.72968087706E+02 -0.20008114529E+03  0.24715841198E+03  0.00000000000E+00 0. -1.
          3    1    6    6  503    0 -0.24654898773E+02 -0.37062783862E+01  0.15279675790E+02  0.29241563317E+02  0.00000000000E+00 0. -1.
         -1    1    5    5    0  502  0.10309173287E+02 -0.35030294001E+02 -0.14970477618E+03  0.15409386932E+03  0.00000000000E+00 0.  1.
         -3    1    6    6    0  503 -0.12865782363E+03 -0.66058534410E+02  0.49346024127E+03  0.51421743968E+03  0.00000000000E+00 0.  1.
<mgrwt>
<rscale>  0 0.13336365E+04</rscale>
<asrwt>0</asrwt>
<pdfrwt beam="1">  1        1 0.16579930E+00 0.13336365E+04</pdfrwt>
<pdfrwt beam="2">  1       -1 0.63475416E-01 0.13336365E+04</pdfrwt>
<totfact> 0.32519404E+01</totfact>
</mgrwt>
</event>
<event>
12    1  0.4672461E-008  0.1136035E+04  0.7818608E-02  0.9170764E-01
          2   -1    0    0  501    0  0.00000000000E+00  0.00000000000E+00  0.23971456797E+04  0.23971456797E+04  0.00000000000E+00 0. -1.
         -2   -1    0    0    0  501 -0.00000000000E+00 -0.00000000000E+00 -0.13459507494E+03  0.13459507494E+03  0.00000000000E+00 0.  1.
         23    2    1    2    0    0  0.75155359212E+02 -0.18259632158E+03  0.28414422699E+03  0.35777946038E+03  0.90986020161E+02 0.  0.
        254    2    1    2    0    0 -0.75155359212E+02  0.18259632158E+03  0.19784063777E+04  0.21739612942E+04  0.87921906751E+03 0.  0.
         23    2    4    4    0    0  0.98242345249E+02  0.21302839481E+03  0.19576367563E+04  0.19738622520E+04  0.93583465480E+02 0.  0.
         23    2    4    4    0    0 -0.17339770446E+03 -0.30432073226E+02  0.20769621436E+02  0.20009904219E+03  0.92819041789E+02 0.  0.
         11    1    3    3    0    0  0.37166687699E+02 -0.14390532288E+03  0.25761410293E+03  0.29741407273E+03  0.00000000000E+00 0. -1.
        -11    1    3    3    0    0  0.37988671513E+02 -0.38690998702E+02  0.26530124061E+02  0.60365387654E+02  0.00000000000E+00 0.  1.
          4    1    5    5  502    0  0.46936621048E+02  0.42874875964E+02  0.81631185447E+03  0.81878345436E+03  0.00000000000E+00 0.  1.
          3    1    6    6  503    0 -0.70284325418E+02 -0.55117490527E+02  0.28593078948E+02  0.93783731666E+02  0.00000000000E+00 0. -1.
         -4    1    5    5    0  502  0.51305724201E+02  0.17015351884E+03  0.11413249018E+04  0.11550787977E+04  0.00000000000E+00 0. -1.
         -3    1    6    6    0  503 -0.10311337904E+03  0.24685417301E+02 -0.78234575119E+01  0.10631531053E+03  0.00000000000E+00 0.  1.
<mgrwt>
<rscale>  0 0.11360352E+04</rscale>
<asrwt>0</asrwt>
<pdfrwt beam="1">  1        2 0.36879161E+00 0.11360352E+04</pdfrwt>
<pdfrwt beam="2">  1       -2 0.20706936E-01 0.11360352E+04</pdfrwt>
<totfact> 0.79988673E+01</totfact>
</mgrwt>
</event>
<event>
12    1  0.4672461E-008  0.2051383E+04  0.7818608E-02  0.8582967E-01
         -2   -1    0    0    0  501 -0.00000000000E+00  0.00000000000E+00  0.35771210246E+03  0.35771210246E+03  0.00000000000E+00 0.  1.
          2   -1    0    0  501    0  0.00000000000E+00 -0.00000000000E+00 -0.29410331530E+04  0.29410331530E+04  0.00000000000E+00 0. -1.
         23    2    1    2    0    0 -0.51009020963E+03 -0.59659471146E+03 -0.63360574716E+03  0.10128716461E+04  0.91298723347E+02 0.  0.
        254    2    1    2    0    0  0.51009020963E+03  0.59659471146E+03 -0.19497153034E+04  0.22858736094E+04  0.89872750159E+03 0.  0.
         23    2    4    4    0    0  0.69011108859E+03  0.54682419175E+03 -0.18598311051E+04  0.20596274222E+04  0.88449802649E+02 0.  0.
         23    2    4    4    0    0 -0.18002087896E+03  0.49770519712E+02 -0.89884198304E+02  0.22624618718E+03  0.90683772622E+02 0.  0.
         11    1    3    3    0    0 -0.14168895385E+03 -0.15552675319E+03 -0.12048700874E+03  0.24244886033E+03  0.00000000000E+00 0.  1.
        -11    1    3    3    0    0 -0.36840125578E+03 -0.44106795827E+03 -0.51311873842E+03  0.77042278574E+03  0.00000000000E+00 0. -1.
          4    1    6    6  502    0 -0.62473966661E+02 -0.16817295152E+02 -0.13278061810E+01  0.64711521353E+02  0.00000000000E+00 0. -1.
          4    1    5    5  503    0  0.22711465660E+03  0.21061841915E+03 -0.73588093511E+03  0.79841213442E+03  0.00000000000E+00 0. -1.
         -4    1    5    5    0  503  0.46299643199E+03  0.33620577261E+03 -0.11239501700E+04  0.12612152878E+04  0.00000000000E+00 0.  1.
         -4    1    6    6    0  502 -0.11754691229E+03  0.66587814864E+02 -0.88556392123E+02  0.16153466583E+03  0.00000000000E+00 0.  1.
<mgrwt>
<rscale>  0 0.20513831E+04</rscale>
<asrwt>0</asrwt>
<pdfrwt beam="1">  1        2 0.45246662E+00 0.20513831E+04</pdfrwt>
<pdfrwt beam="2">  1       -2 0.55032633E-01 0.20513831E+04</pdfrwt>
<totfact> 0.54542151E+00</totfact>
</mgrwt>
</event>
<event>
12    1  0.4672461E-008  0.2035981E+04  0.7818608E-02  0.8589981E-01
         -2   -1    0    0    0  501 -0.00000000000E+00  0.00000000000E+00  0.60468243441E+03  0.60468243441E+03  0.00000000000E+00 0.  1.
          2   -1    0    0  501    0  0.00000000000E+00 -0.00000000000E+00 -0.17137995069E+04  0.17137995069E+04  0.00000000000E+00 0. -1.
         23    2    1    2    0    0 -0.13631512577E+03  0.59048303098E+03  0.18710959274E+03  0.64066139441E+03  0.90470985405E+02 0.  0.
        254    2    1    2    0    0  0.13631512577E+03 -0.59048303098E+03 -0.12962266652E+04  0.16778205469E+04  0.87614279461E+03 0.  0.
         23    2    4    4    0    0  0.28580856585E+03  0.66818941902E+02 -0.14589260927E+03  0.34055367852E+03  0.92416704140E+02 0.  0.
         23    2    4    4    0    0 -0.14949344008E+03 -0.65730197289E+03 -0.11503340560E+04  0.13372668684E+04  0.10305369854E+03 0.  0.
         13    1    3    3    0    0 -0.14023057890E+03  0.47474305672E+03  0.17108628651E+03  0.52375194758E+03  0.00000000000E+00 0.  1.
        -13    1    3    3    0    0  0.39154531284E+01  0.11573997426E+03  0.16023306229E+02  0.11690944683E+03  0.00000000000E+00 0. -1.
          1    1    6    6  502    0 -0.27707000537E+02 -0.22941029633E+02 -0.59937645546E+02  0.69903433914E+02  0.00000000000E+00 0. -1.
          1    1    5    5  503    0  0.27810556820E+03  0.49114140601E+02 -0.15145791585E+03  0.32045967944E+03  0.00000000000E+00 0. -1.
         -1    1    5    5    0  503  0.77029976477E+01  0.17704801301E+02  0.55653065764E+01  0.20093999084E+02  0.00000000000E+00 0.  1.
         -1    1    6    6    0  502 -0.12178643954E+03 -0.63436094325E+03 -0.10903964104E+04  0.12673634345E+04  0.00000000000E+00 0.  1.
<mgrwt>
<rscale>  0 0.20359808E+04</rscale>
<asrwt>0</asrwt>
<pdfrwt beam="1">  1        2 0.26366146E+00 0.20359808E+04</pdfrwt>
<pdfrwt beam="2">  1       -2 0.93028069E-01 0.20359808E+04</pdfrwt>
<totfact> 0.87359158E+00</totfact>
</mgrwt>
</event>
<event>
12    1  0.4672461E-008  0.2144988E+04  0.7818608E-02  0.8541681E-01
         -1   -1    0    0    0  501 -0.00000000000E+00  0.00000000000E+00  0.87456669628E+03  0.87456669628E+03  0.00000000000E+00 0.  1.
          1   -1    0    0  501    0  0.00000000000E+00 -0.00000000000E+00 -0.13152151855E+04  0.13152151855E+04  0.00000000000E+00 0. -1.
         23    2    1    2    0    0 -0.63383574075E+03  0.28989517712E+03  0.36641589422E+03  0.79672581070E+03  0.12134434446E+03 0.  0.
        254    2    1    2    0    0  0.63383574075E+03 -0.28989517712E+03 -0.80706438346E+03  0.13930560711E+04  0.89636228067E+03 0.  0.
         23    2    4    4    0    0  0.18119070819E+03  0.30205795416E+02 -0.80554721424E+03  0.83126566094E+03  0.91399244330E+02 0.  0.
         23    2    4    4    0    0  0.45264503256E+03 -0.32010097254E+03 -0.15171692184E+01  0.56179041016E+03  0.90851554903E+02 0.  0.
         11    1    3    3    0    0 -0.14653984526E+03  0.13388184307E+02  0.72859604735E+02  0.16420015752E+03  0.00000000000E+00 0. -1.
        -11    1    3    3    0    0 -0.48729589549E+03  0.27650699281E+03  0.29355628949E+03  0.63252565318E+03  0.00000000000E+00 0.  1.
          2    1    5    5  502    0  0.94005588199E+02  0.37905396694E+02 -0.58970845203E+03  0.59835602120E+03  0.00000000000E+00 0. -1.
          1    1    6    6  503    0  0.19641540637E+03 -0.19381679697E+03  0.64998299335E+01  0.27601849655E+03  0.00000000000E+00 0. -1.
         -2    1    5    5    0  502  0.87185119991E+02 -0.76996012777E+01 -0.21583876221E+03  0.23290963973E+03  0.00000000000E+00 0.  1.
         -1    1    6    6    0  503  0.25622962619E+03 -0.12628417557E+03 -0.80169991519E+01  0.28577191361E+03  0.00000000000E+00 0.  1.
<mgrwt>
<rscale>  0 0.21449880E+04</rscale>
<asrwt>0</asrwt>
<pdfrwt beam="1">  1        1 0.20234080E+00 0.21449880E+04</pdfrwt>
<pdfrwt beam="2">  1       -1 0.13454872E+00 0.21449880E+04</pdfrwt>
<totfact> 0.37551741E+00</totfact>
</mgrwt>
</event>
<event>
12    1  0.4672461E-008  0.2141955E+04  0.7818608E-02  0.8542984E-01
         -1   -1    0    0    0  501 -0.00000000000E+00  0.00000000000E+00  0.68996826645E+03  0.68996826645E+03  0.00000000000E+00 0.  1.
          1   -1    0    0  501    0  0.00000000000E+00 -0.00000000000E+00 -0.16623854963E+04  0.16623854963E+04  0.00000000000E+00 0. -1.
         23    2    1    2    0    0 -0.42170667479E+03  0.61200059479E+03 -0.92480079310E+03  0.11901214411E+04  0.93548329721E+02 0.  0.
        254    2    1    2    0    0  0.42170667479E+03 -0.61200059479E+03 -0.47616436724E+02  0.11622323217E+04  0.89226419679E+03 0.  0.
         23    2    4    4    0    0  0.16641678520E+03  0.55716476632E+02  0.30235389227E+03  0.36137257327E+03  0.91506220416E+02 0.  0.
         23    2    4    4    0    0  0.25528988959E+03 -0.66771707143E+03 -0.34997032900E+03  0.80085974839E+03  0.88758606421E+02 0.  0.
         13    1    3    3    0    0 -0.21734893553E+03  0.39222463246E+03 -0.53130135583E+03  0.69524229790E+03  0.00000000000E+00 0. -1.
        -13    1    3    3    0    0 -0.20435773926E+03  0.21977596234E+03 -0.39349943726E+03  0.49487914317E+03  0.00000000000E+00 0.  1.
          2    1    5    5  502    0  0.12168863058E+03  0.34074710394E+02  0.27937810180E+03  0.30662898178E+03  0.00000000000E+00 0. -1.
          2    1    6    6  503    0  0.17844412637E+03 -0.55811983678E+03 -0.27266726889E+03  0.64628747316E+03  0.00000000000E+00 0. -1.
         -2    1    5    5    0  502  0.44728154615E+02  0.21641766238E+02  0.22975790468E+02  0.54743591486E+02  0.00000000000E+00 0.  1.
         -2    1    6    6    0  503  0.76845763222E+02 -0.10959723464E+03 -0.77303060107E+02  0.15457227523E+03  0.00000000000E+00 0.  1.
<mgrwt>
<rscale>  0 0.21419554E+04</rscale>
<asrwt>0</asrwt>
<pdfrwt beam="1">  1        1 0.25575161E+00 0.21419554E+04</pdfrwt>
<pdfrwt beam="2">  1       -1 0.10614896E+00 0.21419554E+04</pdfrwt>
<totfact> 0.38454758E+00</totfact>
</mgrwt>
</event>
<event>
12    1  0.4672461E-008  0.2193334E+04  0.7818608E-02  0.8521208E-01
         -1   -1    0    0    0  501 -0.00000000000E+00  0.00000000000E+00  0.93912415399E+03  0.93912415399E+03  0.00000000000E+00 0.  1.
          1   -1    0    0  501    0  0.00000000000E+00 -0.00000000000E+00 -0.12806379840E+04  0.12806379840E+04  0.00000000000E+00 0. -1.
         23    2    1    2    0    0  0.29318170872E+03 -0.81982849001E+03  0.12533705644E+03  0.88439798817E+03  0.91521343966E+02 0.  0.
        254    2    1    2    0    0 -0.29318170872E+03  0.81982849001E+03 -0.46685088646E+03  0.13353641498E+04  0.89842829155E+03 0.  0.
         23    2    4    4    0    0 -0.17901262295E+03  0.15854904334E+03  0.24367831156E+03  0.35363625168E+03  0.92174620462E+02 0.  0.
         23    2    4    4    0    0 -0.11416908578E+03  0.66127944668E+03 -0.71052919802E+03  0.98172789814E+03  0.92805377025E+02 0.  0.
         13    1    3    3    0    0  0.29076226347E+03 -0.81417246821E+03  0.13285620290E+03  0.87468295541E+03  0.00000000000E+00 0.  1.
        -13    1    3    3    0    0  0.24194452545E+01 -0.56560218080E+01 -0.75191464613E+01  0.97150327606E+01  0.00000000000E+00 0. -1.
          1    1    5    5  502    0 -0.43412554834E+02  0.54413574031E+02  0.20636993476E+02  0.72604217892E+02  0.00000000000E+00 0. -1.
          3    1    6    6  503    0 -0.93837216869E+02  0.34154300341E+03 -0.41798851948E+03  0.54787904583E+03  0.00000000000E+00 0. -1.
         -1    1    5    5    0  502 -0.13560006811E+03  0.10413546931E+03  0.22304131809E+03  0.28103203379E+03  0.00000000000E+00 0.  1.
         -3    1    6    6    0  503 -0.20331868908E+02  0.31973644327E+03 -0.29254067854E+03  0.43384885231E+03  0.00000000000E+00 0.  1.
<mgrwt>
<rscale>  0 0.21933336E+04</rscale>
<asrwt>0</asrwt>
<pdfrwt beam="1">  1        1 0.19702123E+00 0.21933336E+04</pdfrwt>
<pdfrwt beam="2">  1       -1 0.14448064E+00 0.21933336E+04</pdfrwt>
<totfact> 0.32867656E+00</totfact>
</mgrwt>
</event>
<event>
12    1  0.4672461E-008  0.1982185E+04  0.7818608E-02  0.8614995E-01
         -1   -1    0    0    0  501 -0.00000000000E+00  0.00000000000E+00  0.76991932420E+03  0.76991932420E+03  0.00000000000E+00 0.  1.
          1   -1    0    0  501    0  0.00000000000E+00 -0.00000000000E+00 -0.12758022028E+04  0.12758022028E+04  0.00000000000E+00 0. -1.
         23    2    1    2    0    0  0.32704820439E+03  0.25826406994E+03  0.48313833284E+03  0.64464134867E+03  0.92081278992E+02 0.  0.
        254    2    1    2    0    0 -0.32704820439E+03 -0.25826406994E+03 -0.98902121143E+03  0.14010801783E+04  0.90066744784E+03 0.  0.
         23    2    4    4    0    0 -0.55023979828E+03  0.88190316875E+02 -0.48867264393E+03  0.74664974470E+03  0.90241457924E+02 0.  0.
         23    2    4    4    0    0  0.22319159389E+03 -0.34645438682E+03 -0.50034856750E+03  0.65443043362E+03  0.89918706143E+02 0.  0.
         13    1    3    3    0    0  0.31530739109E+03  0.21712631967E+03  0.41915633918E+03  0.56767475392E+03  0.00000000000E+00 0.  1.
        -13    1    3    3    0    0  0.11740813302E+02  0.41137750271E+02  0.63981993661E+02  0.76966594748E+02  0.00000000000E+00 0. -1.
          4    1    5    5  502    0 -0.41352328022E+03  0.79737064194E+02 -0.31748367056E+03  0.52740438353E+03  0.00000000000E+00 0. -1.
          3    1    6    6  503    0  0.20243775210E+03 -0.24345525121E+03 -0.36875353617E+03  0.48603567076E+03  0.00000000000E+00 0. -1.
         -4    1    5    5    0  502 -0.13671651806E+03  0.84532526806E+01 -0.17118897337E+03  0.21924536118E+03  0.00000000000E+00 0.  1.
         -3    1    6    6    0  503  0.20753841791E+02 -0.10299913561E+03 -0.13159503133E+03  0.16839476285E+03  0.00000000000E+00 0.  1.
<mgrwt>
<rscale>  0 0.19821854E+04</rscale>
<asrwt>0</asrwt>
<pdfrwt beam="1">  1        1 0.19627726E+00 0.19821854E+04</pdfrwt>
<pdfrwt beam="2">  1       -1 0.11844913E+00 0.19821854E+04</pdfrwt>
<totfact> 0.55906012E+00</totfact>
</mgrwt>
</event>
<event>
12    1  0.4672461E-008  0.1310811E+04  0.7818608E-02  0.9021036E-01
          1   -1    0    0  501    0  0.00000000000E+00  0.00000000000E+00  0.17806750384E+04  0.17806750384E+04  0.00000000000E+00 0. -1.
         -1   -1    0    0    0  501 -0.00000000000E+00 -0.00000000000E+00 -0.24123218518E+03  0.24123218518E+03  0.00000000000E+00 0.  1.
         23    2    1    2    0    0  0.10225514345E+03  0.32456369323E+03  0.50157762524E+03  0.61558460938E+03  0.10754809081E+03 0.  0.
        254    2    1    2    0    0 -0.10225514345E+03 -0.32456369323E+03  0.10378652280E+04  0.14063226142E+04  0.88587886218E+03 0.  0.
         23    2    4    4    0    0 -0.99726277736E+01 -0.59888719333E+03  0.86935425804E+03  0.10596704489E+04  0.91429265952E+02 0.  0.
         23    2    4    4    0    0 -0.92282515677E+02  0.27432350009E+03  0.16851096995E+03  0.34665216531E+03  0.89455750629E+02 0.  0.
         13    1    3    3    0    0  0.13866585961E+02  0.73872896860E+01  0.14626695692E+00  0.15712277020E+02  0.00000000000E+00 0.  1.
        -13    1    3    3    0    0  0.88388557490E+02  0.31717640355E+03  0.50143135829E+03  0.59987233236E+03  0.00000000000E+00 0. -1.
          4    1    5    5  502    0  0.12651145627E+02 -0.44980359913E+03  0.70736006919E+03  0.83835648549E+03  0.00000000000E+00 0. -1.
          1    1    6    6  503    0 -0.13425436058E+02  0.11615007070E+03  0.26406416317E+02  0.11986817792E+03  0.00000000000E+00 0. -1.
         -4    1    5    5    0  502 -0.22623773400E+02 -0.14908359420E+03  0.16199418885E+03  0.22131396342E+03  0.00000000000E+00 0.  1.
         -1    1    6    6    0  503 -0.78857079620E+02  0.15817342939E+03  0.14210455363E+03  0.22678398739E+03  0.00000000000E+00 0.  1.
<mgrwt>
<rscale>  0 0.13108106E+04</rscale>
<asrwt>0</asrwt>
<pdfrwt beam="1">  1        1 0.27395000E+00 0.13108106E+04</pdfrwt>
<pdfrwt beam="2">  1       -1 0.37112645E-01 0.13108106E+04</pdfrwt>
<totfact> 0.28793620E+01</totfact>
</mgrwt>
</event>
<event>
12    1  0.4672461E-008  0.1347298E+04  0.7818608E-02  0.8992876E-01
         -2   -1    0    0    0  501 -0.00000000000E+00  0.00000000000E+00  0.53119559277E+03  0.53119559277E+03  0.00000000000E+00 0.  1.
          2   -1    0    0  501    0  0.00000000000E+00 -0.00000000000E+00 -0.85430529775E+03  0.85430529775E+03  0.00000000000E+00 0. -1.
         23    2    1    2    0    0  0.30725601688E+03  0.11051479995E+03 -0.26849294662E+03  0.43307646585E+03  0.94058396600E+02 0.  0.
        254    2    1    2    0    0 -0.30725601688E+03 -0.11051479995E+03 -0.54616758360E+02  0.95242442467E+03  0.89303388149E+03 0.  0.
         23    2    4    4    0    0 -0.56392588819E+03  0.11328700910E+03 -0.12019409749E+03  0.59422404827E+03  0.88369930822E+02 0.  0.
         23    2    4    4    0    0  0.25666987130E+03 -0.22380180905E+03  0.65577339130E+02  0.35820037640E+03  0.89668554539E+02 0.  0.
         11    1    3    3    0    0  0.13623111743E+03  0.94549796225E+02 -0.15655897910E+03  0.22805546531E+03  0.00000000000E+00 0. -1.
        -11    1    3    3    0    0  0.17102489945E+03  0.15965003728E+02 -0.11193396752E+03  0.20502100054E+03  0.00000000000E+00 0.  1.
          3    1    5    5  502    0 -0.16173672701E+03 -0.53042856764E+01 -0.47584399705E+02  0.16867477406E+03  0.00000000000E+00 0. -1.
          3    1    6    6  503    0  0.47923670727E+02 -0.18631262957E+02 -0.16871735021E+02  0.54115225380E+02  0.00000000000E+00 0. -1.
         -3    1    5    5    0  502 -0.40218916118E+03  0.11859129478E+03 -0.72609697786E+02  0.42554927421E+03  0.00000000000E+00 0.  1.
         -3    1    6    6    0  503  0.20874620058E+03 -0.20517054610E+03  0.82449074151E+02  0.30408515102E+03  0.00000000000E+00 0.  1.
<mgrwt>
<rscale>  0 0.13472983E+04</rscale>
<asrwt>0</asrwt>
<pdfrwt beam="1">  1        2 0.13143158E+00 0.13472983E+04</pdfrwt>
<pdfrwt beam="2">  1       -2 0.81722399E-01 0.13472983E+04</pdfrwt>
<totfact> 0.40583282E+01</totfact>
</mgrwt>
</event>
<event>
12    1  0.4672461E-008  0.1417157E+04  0.7818608E-02  0.8941492E-01
         -2   -1    0    0    0  501 -0.00000000000E+00  0.00000000000E+00  0.11880906514E+04  0.11880906514E+04  0.00000000000E+00 0.  1.
          2   -1    0    0  501    0  0.00000000000E+00 -0.00000000000E+00 -0.42259721568E+03  0.42259721568E+03  0.00000000000E+00 0. -1.
         23    2    1    2    0    0 -0.90599196337E+02 -0.21199698781E+03  0.61696706796E+03  0.66509162353E+03  0.92453055817E+02 0.  0.
        254    2    1    2    0    0  0.90599196337E+02  0.21199698781E+03  0.14852636772E+03  0.94559624351E+03  0.90495372070E+03 0.  0.
         23    2    4    4    0    0 -0.12883658674E+03  0.41381610816E+02  0.47797584494E+03  0.50509049369E+03  0.91346563503E+02 0.  0.
         23    2    4    4    0    0  0.21943578308E+03  0.17061537700E+03 -0.32944947723E+03  0.44050574982E+03  0.90811275810E+02 0.  0.
         11    1    3    3    0    0 -0.47214053694E+02 -0.13060278129E+03  0.48208148442E+03  0.50168596848E+03  0.00000000000E+00 0.  1.
        -11    1    3    3    0    0 -0.43385142643E+02 -0.81394206522E+02  0.13488558354E+03  0.16340565506E+03  0.00000000000E+00 0. -1.
          3    1    6    6  502    0  0.40628365592E+02  0.70357456717E+02 -0.13728134755E+03  0.15952117161E+03  0.00000000000E+00 0. -1.
          3    1    5    5  503    0 -0.50780342563E+02 -0.18563752936E+02  0.26520212258E+03  0.27065738848E+03  0.00000000000E+00 0. -1.
         -3    1    5    5    0  503 -0.78056244180E+02  0.59945363752E+02  0.21277372236E+03  0.23443310521E+03  0.00000000000E+00 0.  1.
         -3    1    6    6    0  502  0.17880741749E+03  0.10025792028E+03 -0.19216812967E+03  0.28098457821E+03  0.00000000000E+00 0.  1.
<mgrwt>
<rscale>  0 0.14171574E+04</rscale>
<asrwt>0</asrwt>
<pdfrwt beam="1">  1        2 0.65014957E-01 0.14171574E+04</pdfrwt>
<pdfrwt beam="2">  1       -2 0.18278318E+00 0.14171574E+04</pdfrwt>
<totfact> 0.12587217E+01</totfact>
</mgrwt>
</event>
<event>
12    1  0.4672461E-008  0.2121222E+04  0.7818608E-02  0.8551952E-01
          1   -1    0    0  501    0  0.00000000000E+00  0.00000000000E+00  0.22446700705E+04  0.22446700705E+04  0.00000000000E+00 0. -1.
         -1   -1    0    0    0  501 -0.00000000000E+00 -0.00000000000E+00 -0.50114056917E+03  0.50114056917E+03  0.00000000000E+00 0.  1.
         23    2    1    2    0    0  0.73369579516E+03 -0.27830362482E+03  0.63261797868E+03  0.10121467984E+04  0.92050025584E+02 0.  0.
        254    2    1    2    0    0 -0.73369579516E+03  0.27830362482E+03  0.11109115226E+04  0.17336638412E+04  0.10750364998E+04 0.  0.
         23    2    4    4    0    0 -0.12784106710E+02  0.54205223538E+03  0.36484846070E+03  0.65943260803E+03  0.88050587668E+02 0.  0.
         23    2    4    4    0    0 -0.72091168845E+03 -0.26374861056E+03  0.74606306195E+03  0.10742312332E+04  0.89920286238E+02 0.  0.
         13    1    3    3    0    0  0.49284797014E+02 -0.17440782888E+02  0.15896395796E+02  0.54643092187E+02  0.00000000000E+00 0. -1.
        -13    1    3    3    0    0  0.68441099815E+03 -0.26086284194E+03  0.61672158288E+03  0.95750370625E+03  0.00000000000E+00 0.  1.
          4    1    5    5  502    0 -0.81682389544E+01  0.40475931677E+03  0.22397116608E+03  0.46266608680E+03  0.00000000000E+00 0. -1.
          3    1    6    6  503    0 -0.50115304680E+03 -0.20356888079E+03  0.57398054180E+03  0.78870040440E+03  0.00000000000E+00 0. -1.
         -4    1    5    5    0  502 -0.46158677561E+01  0.13729291861E+03  0.14087729462E+03  0.19676652123E+03  0.00000000000E+00 0.  1.
         -3    1    6    6    0  503 -0.21975864166E+03 -0.60179729766E+02  0.17208252015E+03  0.28553082880E+03  0.00000000000E+00 0.  1.
<mgrwt>
<rscale>  0 0.21212216E+04</rscale>
<asrwt>0</asrwt>
<pdfrwt beam="1">  1        1 0.34533385E+00 0.21212216E+04</pdfrwt>
<pdfrwt beam="2">  1       -1 0.77098550E-01 0.21212216E+04</pdfrwt>
<totfact> 0.31449404E+00</totfact>
</mgrwt>
</event>
<event>
12    1  0.4672461E-008  0.2819745E+04  0.7818608E-02  0.8297164E-01
         -2   -1    0    0    0  501 -0.00000000000E+00  0.00000000000E+00  0.98265232187E+03  0.98265232187E+03  0.00000000000E+00 0.  1.
          2   -1    0    0  501    0  0.00000000000E+00 -0.00000000000E+00 -0.20228319919E+04  0.20228319919E+04  0.00000000000E+00 0. -1.
         23    2    1    2    0    0 -0.56713898413E+03 -0.43230140239E+03  0.64537897407E+03  0.96579359458E+03  0.87818661638E+02 0.  0.
        254    2    1    2    0    0  0.56713898413E+03  0.43230140239E+03 -0.16855586441E+04  0.20396907192E+04  0.90038833702E+03 0.  0.
         23    2    4    4    0    0  0.27266751276E+02 -0.65357319058E+02  0.69656579254E+02  0.13494989366E+03  0.91347577343E+02 0.  0.
         23    2    4    4    0    0  0.53987223285E+03  0.49765872145E+03 -0.17552152234E+04  0.19047408255E+04  0.90171510514E+02 0.  0.
         13    1    3    3    0    0 -0.48495983589E+03 -0.34697449508E+03  0.57288754175E+03  0.82690838559E+03  0.00000000000E+00 0.  1.
        -13    1    3    3    0    0 -0.82179148240E+02 -0.85326907315E+02  0.72491432313E+02  0.13888520899E+03  0.00000000000E+00 0. -1.
          1    1    5    5  502    0 -0.11769004959E+01 -0.32229759655E+02  0.83201854121E+02  0.89233911891E+02  0.00000000000E+00 0. -1.
          3    1    6    6  503    0  0.51388695625E+03  0.46322742140E+03 -0.16941754764E+04  0.18299972658E+04  0.00000000000E+00 0. -1.
         -1    1    5    5    0  502  0.28443651772E+02 -0.33127559403E+02 -0.13545274867E+02  0.45715981771E+02  0.00000000000E+00 0.  1.
         -3    1    6    6    0  503  0.25985276604E+02  0.34431300052E+02 -0.61039746939E+02  0.74743559788E+02  0.00000000000E+00 0.  1.
<mgrwt>
<rscale>  0 0.28197451E+04</rscale>
<asrwt>0</asrwt>
<pdfrwt beam="1">  1        2 0.31120492E+00 0.28197451E+04</pdfrwt>
<pdfrwt beam="2">  1       -2 0.15117728E+00 0.28197451E+04</pdfrwt>
<totfact> 0.16542863E+00</totfact>
</mgrwt>
</event>
<event>
12    1  0.4672461E-008  0.2360161E+04  0.7818608E-02  0.8454571E-01
          2   -1    0    0  501    0  0.00000000000E+00  0.00000000000E+00  0.18189149664E+04  0.18189149664E+04  0.00000000000E+00 0. -1.
         -2   -1    0    0    0  501 -0.00000000000E+00 -0.00000000000E+00 -0.76561600615E+03  0.76561600615E+03  0.00000000000E+00 0.  1.
         23    2    1    2    0    0  0.63694205556E+03 -0.54661647834E+03  0.10970113929E+04  0.13840805882E+04  0.88092689103E+02 0.  0.
        254    2    1    2    0    0 -0.63694205556E+03  0.54661647834E+03 -0.43712432677E+02  0.12004503844E+04  0.85713802390E+03 0.  0.
         23    2    4    4    0    0 -0.63794586168E+02 -0.14386146490E+03 -0.21582519303E+03  0.28213751457E+03  0.90858091980E+02 0.  0.
         23    2    4    4    0    0 -0.57314746939E+03  0.69047794324E+03  0.17211276035E+03  0.91831286979E+03  0.91749184060E+02 0.  0.
         13    1    3    3    0    0  0.10621407283E+03 -0.13307161217E+03  0.19712305678E+03  0.26047453378E+03  0.00000000000E+00 0.  1.
        -13    1    3    3    0    0  0.53072798273E+03 -0.41354486617E+03  0.89988833617E+03  0.11236060544E+04  0.00000000000E+00 0. -1.
          2    1    5    5  502    0 -0.55722331136E+02 -0.13210792517E+03 -0.12505147640E+03  0.19025076565E+03  0.00000000000E+00 0. -1.
          1    1    6    6  503    0 -0.42888118493E+03  0.52019971084E+03  0.16924266931E+03  0.69511861653E+03  0.00000000000E+00 0. -1.
         -2    1    5    5    0  502 -0.80722550318E+01 -0.11753539723E+02 -0.90773716628E+02  0.91886748923E+02  0.00000000000E+00 0.  1.
         -1    1    6    6    0  503 -0.14426628447E+03  0.17027823240E+03  0.28700910434E+01  0.22319425325E+03  0.00000000000E+00 0.  1.
<mgrwt>
<rscale>  0 0.23601614E+04</rscale>
<asrwt>0</asrwt>
<pdfrwt beam="1">  1        2 0.27983307E+00 0.23601614E+04</pdfrwt>
<pdfrwt beam="2">  1       -2 0.11778708E+00 0.23601614E+04</pdfrwt>
<totfact> 0.42255494E+00</totfact>
</mgrwt>
</event>
<event>
12    1  0.4672461E-008  0.1712066E+04  0.7818608E-02  0.8754512E-01
          1   -1    0    0  501    0  0.00000000000E+00  0.00000000000E+00  0.13940581429E+04  0.13940581429E+04  0.00000000000E+00 0. -1.
         -1   -1    0    0    0  501 -0.00000000000E+00 -0.00000000000E+00 -0.52565436160E+03  0.52565436160E+03  0.00000000000E+00 0.  1.
         23    2    1    2    0    0 -0.37456284818E+03  0.27906348885E+03 -0.13180439636E+03  0.49424397359E+03  0.93439544540E+02 0.  0.
        254    2    1    2    0    0  0.37456284818E+03 -0.27906348885E+03  0.10002081777E+04  0.14254685309E+04  0.90187048732E+03 0.  0.
         23    2    4    4    0    0  0.50301080690E+03 -0.18941021390E+03  0.16333539610E+03  0.56933450059E+03  0.92559283471E+02 0.  0.
         23    2    4    4    0    0 -0.12844795873E+03 -0.89653274953E+02  0.83687278158E+03  0.85613403033E+03  0.89848970656E+02 0.  0.
         13    1    3    3    0    0 -0.21762766854E+03  0.20210036028E+03 -0.11561174406E+03  0.31870430355E+03  0.00000000000E+00 0.  1.
        -13    1    3    3    0    0 -0.15693517964E+03  0.76963128573E+02 -0.16192652301E+02  0.17553967003E+03  0.00000000000E+00 0. -1.
          1    1    5    5  502    0  0.15415211094E+03 -0.10487904550E+03  0.56370231580E+02  0.19478216166E+03  0.00000000000E+00 0. -1.
          3    1    6    6  503    0 -0.30552147202E+02  0.15030707098E+02  0.23364566232E+03  0.23611364081E+03  0.00000000000E+00 0. -1.
         -1    1    5    5    0  502  0.34885869596E+03 -0.84531168396E+02  0.10696516452E+03  0.37455233893E+03  0.00000000000E+00 0.  1.
         -3    1    6    6    0  503 -0.97895811523E+02 -0.10468398205E+03  0.60322711926E+03  0.62002038952E+03  0.00000000000E+00 0.  1.
<mgrwt>
<rscale>  0 0.17120663E+04</rscale>
<asrwt>0</asrwt>
<pdfrwt beam="1">  1        1 0.21447048E+00 0.17120663E+04</pdfrwt>
<pdfrwt beam="2">  1       -1 0.80869902E-01 0.17120663E+04</pdfrwt>
<totfact> 0.11240470E+01</totfact>
</mgrwt>
</event>
<event>
12    1  0.4672461E-008  0.1814949E+04  0.7818608E-02  0.8698390E-01
          2   -1    0    0  501    0  0.00000000000E+00  0.00000000000E+00  0.16723559515E+04  0.16723559515E+04  0.00000000000E+00 0. -1.
         -2   -1    0    0    0  501 -0.00000000000E+00 -0.00000000000E+00 -0.49242518002E+03  0.49242518002E+03  0.00000000000E+00 0.  1.
         23    2    1    2    0    0 -0.46373958270E+03 -0.33160762630E+03  0.88200302471E+03  0.10540972595E+04  0.90408398069E+02 0.  0.
        254    2    1    2    0    0  0.46373958270E+03  0.33160762630E+03  0.29792774672E+03  0.11106838720E+04  0.90545000021E+03 0.  0.
         23    2    4    4    0    0 -0.13239050185E+03  0.42866988086E+03  0.10076690331E+03  0.46881327830E+03  0.91360874406E+02 0.  0.
         23    2    4    4    0    0  0.59613008455E+03 -0.97062254562E+02  0.19716084341E+03  0.64187059370E+03  0.91286920866E+02 0.  0.
         11    1    3    3    0    0 -0.37353280341E+03 -0.22564302070E+03  0.63308290028E+03  0.76891838750E+03  0.00000000000E+00 0.  1.
        -11    1    3    3    0    0 -0.90206779293E+02 -0.10596460561E+03  0.24892012444E+03  0.28517887197E+03  0.00000000000E+00 0. -1.
          4    1    5    5  502    0 -0.40907269371E+02  0.66423206132E+02  0.47716944807E+02  0.91445906535E+02  0.00000000000E+00 0. -1.
          1    1    6    6  503    0  0.21449213688E+03 -0.10688809704E+02  0.31906629468E+02  0.21711554629E+03  0.00000000000E+00 0. -1.
         -4    1    5    5    0  502 -0.91483232474E+02  0.36224667473E+03  0.53049958499E+02  0.37736737177E+03  0.00000000000E+00 0.  1.
         -1    1    6    6    0  503  0.38163794766E+03 -0.86373444859E+02  0.16525421395E+03  0.42475504741E+03  0.00000000000E+00 0.  1.
<mgrwt>
<rscale>  0 0.18149492E+04</rscale>
<asrwt>0</asrwt>
<pdfrwt beam="1">  1        2 0.25728553E+00 0.18149492E+04</pdfrwt>
<pdfrwt beam="2">  1       -2 0.75757721E-01 0.18149492E+04</pdfrwt>
<totfact> 0.14960069E+01</totfact>
</mgrwt>
</event>
<event>
12    1  0.4672461E-008  0.1398536E+04  0.7818608E-02  0.8954879E-01
          2   -1    0    0  501    0  0.00000000000E+00  0.00000000000E+00  0.10439002847E+04  0.10439002847E+04  0.00000000000E+00 0. -1.
         -2   -1    0    0    0  501 -0.00000000000E+00 -0.00000000000E+00 -0.46841225428E+03  0.46841225428E+03  0.00000000000E+00 0.  1.
         23    2    1    2    0    0 -0.53098901017E+02  0.15102514037E+03  0.59660140070E+03  0.62468857375E+03  0.93136977297E+02 0.  0.
        254    2    1    2    0    0  0.53098901017E+02 -0.15102514037E+03 -0.21113370239E+02  0.88762396527E+03  0.87281294846E+03 0.  0.
         23    2    4    4    0    0 -0.11414524519E+03  0.33194121861E+03 -0.57123163496E+02  0.36719316085E+03  0.91398314847E+02 0.  0.
         23    2    4    4    0    0  0.16724414621E+03 -0.48296635898E+03  0.36009793256E+02  0.52043080442E+03  0.91238197200E+02 0.  0.
         11    1    3    3    0    0 -0.46669624298E+02  0.10664961255E+03  0.54037513452E+03  0.55277253884E+03  0.00000000000E+00 0. -1.
        -11    1    3    3    0    0 -0.64292767188E+01  0.44375527816E+02  0.56226266184E+02  0.71916034909E+02  0.00000000000E+00 0.  1.
          2    1    5    5  502    0 -0.22089970523E+01 -0.47125607438E+01  0.47696429635E+01  0.70595602371E+01  0.00000000000E+00 0. -1.
          1    1    6    6  503    0  0.94962182791E+01 -0.15272948282E+03  0.16868390099E+02  0.15395134188E+03  0.00000000000E+00 0. -1.
         -2    1    5    5    0  502 -0.11193624814E+03  0.33665377935E+03 -0.61892806459E+02  0.36013360062E+03  0.00000000000E+00 0.  1.
         -1    1    6    6    0  503  0.15774792793E+03 -0.33023687616E+03  0.19141403158E+02  0.36647946253E+03  0.00000000000E+00 0.  1.
<mgrwt>
<rscale>  0 0.13985359E+04</rscale>
<asrwt>0</asrwt>
<pdfrwt beam="1">  1        2 0.16060004E+00 0.13985359E+04</pdfrwt>
<pdfrwt beam="2">  1       -2 0.72063424E-01 0.13985359E+04</pdfrwt>
<totfact> 0.40104384E+01</totfact>
</mgrwt>
</event>
<event>
12    1  0.4672461E-008  0.1517774E+04  0.7818608E-02  0.8872718E-01
         -1   -1    0    0    0  501 -0.00000000000E+00  0.00000000000E+00  0.18242676941E+04  0.18242676941E+04  0.00000000000E+00 0.  1.
          1   -1    0    0  501    0  0.00000000000E+00 -0.00000000000E+00 -0.31569368855E+03  0.31569368855E+03  0.00000000000E+00 0. -1.
         23    2    1    2    0    0  0.26251529397E+03 -0.40817792746E+03  0.55149314087E+03  0.73932527023E+03  0.83268665977E+02 0.  0.
        254    2    1    2    0    0 -0.26251529397E+03  0.40817792746E+03  0.95708086463E+03  0.14006361124E+04  0.90014123217E+03 0.  0.
         23    2    4    4    0    0 -0.50680328143E+03  0.12951306379E+02  0.32138895405E+03  0.60778502284E+03  0.95364940105E+02 0.  0.
         23    2    4    4    0    0  0.24428798746E+03  0.39522662108E+03  0.63569191058E+03  0.79285108955E+03  0.92886716984E+02 0.  0.
         11    1    3    3    0    0  0.38907392575E+02 -0.10853391941E+03  0.95959648683E+02  0.15000550335E+03  0.00000000000E+00 0. -1.
        -11    1    3    3    0    0  0.22360790140E+03 -0.29964400804E+03  0.45553349219E+03  0.58931976688E+03  0.00000000000E+00 0.  1.
          1    1    5    5  502    0 -0.28351446626E+02  0.19437154286E+02  0.39769640558E+02  0.52566451304E+02  0.00000000000E+00 0. -1.
          3    1    6    6  503    0  0.21581160121E+03  0.28302987176E+03  0.51071918916E+03  0.62250674350E+03  0.00000000000E+00 0.  1.
         -1    1    5    5    0  502 -0.47845183480E+03 -0.64858479068E+01  0.28161931349E+03  0.55521857154E+03  0.00000000000E+00 0.  1.
         -3    1    6    6    0  503  0.28476386246E+02  0.11219674931E+03  0.12497272142E+03  0.17034434605E+03  0.00000000000E+00 0. -1.
<mgrwt>
<rscale>  0 0.15177744E+04</rscale>
<asrwt>0</asrwt>
<pdfrwt beam="1">  1        1 0.48568261E-01 0.15177744E+04</pdfrwt>
<pdfrwt beam="2">  1       -1 0.28065656E+00 0.15177744E+04</pdfrwt>
<totfact> 0.34973415E+00</totfact>
</mgrwt>
</event>
<event>
12    1  0.4672461E-008  0.2022120E+04  0.7818608E-02  0.8596348E-01
          1   -1    0    0  501    0  0.00000000000E+00  0.00000000000E+00  0.10138581014E+04  0.10138581014E+04  0.00000000000E+00 0. -1.
         -1   -1    0    0    0  501 -0.00000000000E+00 -0.00000000000E+00 -0.10082696396E+04  0.10082696396E+04  0.00000000000E+00 0.  1.
         23    2    1    2    0    0  0.71454420367E+03 -0.30609011544E+03 -0.21687373725E+03  0.81223313862E+03  0.91781674611E+02 0.  0.
        254    2    1    2    0    0 -0.71454420367E+03  0.30609011544E+03  0.22246219902E+03  0.12098946023E+04  0.90005052134E+03 0.  0.
         23    2    4    4    0    0  0.15096519407E+03  0.20128271782E+03 -0.84670521791E+02  0.28106941331E+03  0.92334692970E+02 0.  0.
         23    2    4    4    0    0 -0.86550939774E+03  0.10480739762E+03  0.30713272081E+03  0.92882518901E+03  0.91074779054E+02 0.  0.
         13    1    3    3    0    0  0.19124469938E+03 -0.88659218708E+02 -0.17545753447E+02  0.21152504714E+03  0.00000000000E+00 0. -1.
        -13    1    3    3    0    0  0.52329950428E+03 -0.21743089674E+03 -0.19932798380E+03  0.60070809148E+03  0.00000000000E+00 0.  1.
          4    1    5    5  502    0  0.14211601133E+03  0.14605761865E+03 -0.93903512659E+02  0.22438283876E+03  0.00000000000E+00 0. -1.
          1    1    6    6  503    0 -0.66165166318E+03  0.10604876121E+03  0.20462850623E+03  0.70064405278E+03  0.00000000000E+00 0. -1.
         -4    1    5    5    0  502  0.88491827394E+01  0.55225099176E+02  0.92329908675E+01  0.56686574552E+02  0.00000000000E+00 0.  1.
         -1    1    6    6    0  503 -0.20385773456E+03 -0.12413635840E+01  0.10250421457E+03  0.22818113623E+03  0.00000000000E+00 0.  1.
<mgrwt>
<rscale>  0 0.20221200E+04</rscale>
<asrwt>0</asrwt>
<pdfrwt beam="1">  1        1 0.15597817E+00 0.20221200E+04</pdfrwt>
<pdfrwt beam="2">  1       -1 0.15511841E+00 0.20221200E+04</pdfrwt>
<totfact> 0.43519991E+00</totfact>
</mgrwt>
</event>
<event>
12    1  0.4672461E-008  0.2064441E+04  0.7818608E-02  0.8577071E-01
          2   -1    0    0  501    0  0.00000000000E+00  0.00000000000E+00  0.19484503541E+04  0.19484503541E+04  0.00000000000E+00 0. -1.
         -2   -1    0    0    0  501 -0.00000000000E+00 -0.00000000000E+00 -0.54683391412E+03  0.54683391412E+03  0.00000000000E+00 0.  1.
         23    2    1    2    0    0  0.36616988699E+03  0.24274513215E+03 -0.28557232557E+03  0.53191921492E+03  0.91547325154E+02 0.  0.
        254    2    1    2    0    0 -0.36616988699E+03 -0.24274513215E+03  0.16871887655E+04  0.19633650533E+04  0.90287918162E+03 0.  0.
         23    2    4    4    0    0  0.26625750856E+03 -0.19830755233E+03  0.78682173871E+03  0.85881462663E+03  0.90857956346E+02 0.  0.
         23    2    4    4    0    0 -0.63242739555E+03 -0.44437579822E+02  0.90036702680E+03  0.11045504266E+04  0.86207615034E+02 0.  0.
         11    1    3    3    0    0  0.34000075040E+03  0.22330118872E+03 -0.28922352679E+03  0.49911339353E+03  0.00000000000E+00 0.  1.
        -11    1    3    3    0    0  0.26169136593E+02  0.19443943432E+02  0.36512012217E+01  0.32805821383E+02  0.00000000000E+00 0. -1.
          2    1    5    5  502    0  0.15743880560E+03 -0.14793775976E+03  0.59038883131E+03  0.62867442321E+03  0.00000000000E+00 0. -1.
          3    1    6    6  503    0 -0.29786984617E+03 -0.47402142686E+02  0.36844290259E+03  0.47615499668E+03  0.00000000000E+00 0. -1.
         -2    1    5    5    0  502  0.10881870296E+03 -0.50369792567E+02  0.19643290741E+03  0.23014020342E+03  0.00000000000E+00 0.  1.
         -3    1    6    6    0  503 -0.33455754938E+03  0.29645628633E+01  0.53192412420E+03  0.62839542996E+03  0.00000000000E+00 0.  1.
<mgrwt>
<rscale>  0 0.20644406E+04</rscale>
<asrwt>0</asrwt>
<pdfrwt beam="1">  1        2 0.29976159E+00 0.20644406E+04</pdfrwt>
<pdfrwt beam="2">  1       -2 0.84128295E-01 0.20644406E+04</pdfrwt>
<totfact> 0.81360281E+00</totfact>
</mgrwt>
</event>
<event>
12    1  0.4672461E-008  0.1094746E+04  0.7818608E-02  0.9210328E-01
          1   -1    0    0  501    0  0.00000000000E+00  0.00000000000E+00  0.24863493190E+04  0.24863493190E+04  0.00000000000E+00 0. -1.
         -1   -1    0    0    0  501 -0.00000000000E+00 -0.00000000000E+00 -0.12050478818E+03  0.12050478818E+03  0.00000000000E+00 0.  1.
         23    2    1    2    0    0  0.12011113052E+03 -0.21149088537E+02  0.71151242252E+03  0.72783578240E+03  0.92849507885E+02 0.  0.
        254    2    1    2    0    0 -0.12011113052E+03  0.21149088537E+02  0.16543321083E+04  0.18790183248E+04  0.88262176083E+03 0.  0.
         23    2    4    4    0    0  0.14175726972E+03 -0.21618402827E+03  0.11466306298E+03  0.29674499655E+03  0.89885023046E+02 0.  0.
         23    2    4    4    0    0 -0.26186840024E+03  0.23733311681E+03  0.15396690453E+04  0.15822733282E+04  0.90033597830E+02 0.  0.
         11    1    3    3    0    0  0.13093509380E+03 -0.17174204158E+02  0.53911185236E+03  0.55505003507E+03  0.00000000000E+00 0. -1.
        -11    1    3    3    0    0 -0.10823963283E+02 -0.39748843791E+01  0.17240057017E+03  0.17278574733E+03  0.00000000000E+00 0.  1.
          2    1    6    6  502    0 -0.16791202012E+03  0.95099800431E+02  0.75145021232E+03  0.77583235311E+03  0.00000000000E+00 0. -1.
          2    1    5    5  503    0  0.26039484187E+02 -0.28817638282E+02  0.57219959180E+02  0.69156595791E+02  0.00000000000E+00 0. -1.
         -2    1    5    5    0  503  0.11571778554E+03 -0.18736638999E+03  0.57443103800E+02  0.22758840076E+03  0.00000000000E+00 0.  1.
         -2    1    6    6    0  502 -0.93956380122E+02  0.14223331638E+03  0.78821883297E+03  0.80644097509E+03  0.00000000000E+00 0.  1.
<mgrwt>
<rscale>  0 0.10947456E+04</rscale>
<asrwt>0</asrwt>
<pdfrwt beam="1">  1        1 0.38251524E+00 0.10947456E+04</pdfrwt>
<pdfrwt beam="2">  1       -1 0.18539200E-01 0.10947456E+04</pdfrwt>
<totfact> 0.32328362E+01</totfact>
</mgrwt>
</event>
<event>
12    1  0.4672461E-008  0.1902981E+04  0.7818608E-02  0.8653374E-01
         -1   -1    0    0    0  501 -0.00000000000E+00  0.00000000000E+00  0.38090258945E+03  0.38090258945E+03  0.00000000000E+00 0. -1.
          1   -1    0    0  501    0  0.00000000000E+00 -0.00000000000E+00 -0.23768136896E+04  0.23768136896E+04  0.00000000000E+00 0.  1.
         23    2    1    2    0    0 -0.45078533979E+03 -0.15029299914E+03  0.37996660638E+02  0.48644559457E+03  0.96902848764E+02 0.  0.
        254    2    1    2    0    0  0.45078533979E+03  0.15029299914E+03 -0.20339077608E+04  0.22712706845E+04  0.89224118636E+03 0.  0.
         23    2    4    4    0    0  0.47113962624E+03 -0.22906586548E+03 -0.68645784685E+03  0.86829116171E+03  0.90892507225E+02 0.  0.
         23    2    4    4    0    0 -0.20354286449E+02  0.37935886462E+03 -0.13474499139E+04  0.14029795228E+04  0.91666927510E+02 0.  0.
         11    1    3    3    0    0 -0.39392429817E+03 -0.11057634562E+03  0.39208611517E+01  0.40916849103E+03  0.00000000000E+00 0. -1.
        -11    1    3    3    0    0 -0.56861041616E+02 -0.39716653524E+02  0.34075799486E+02  0.77277103539E+02  0.00000000000E+00 0.  1.
          4    1    5    5  502    0  0.44525485683E+03 -0.21378448617E+03 -0.67435078526E+03  0.83588556372E+03  0.00000000000E+00 0.  1.
          3    1    6    6  503    0 -0.34463834593E+02  0.12685672171E+03 -0.34713090099E+03  0.37118761585E+03  0.00000000000E+00 0. -1.
         -4    1    5    5    0  502  0.25884769406E+02 -0.15281379308E+02 -0.12107061588E+02  0.32405597990E+02  0.00000000000E+00 0. -1.
         -3    1    6    6    0  503  0.14109548144E+02  0.25250214291E+03 -0.10003190129E+04  0.10317919069E+04  0.00000000000E+00 0.  1.
<mgrwt>
<rscale>  0 0.19029813E+04</rscale>
<asrwt>0</asrwt>
<pdfrwt beam="1">  1        1 0.36566364E+00 0.19029813E+04</pdfrwt>
<pdfrwt beam="2">  1       -1 0.58600398E-01 0.19029813E+04</pdfrwt>
<totfact> 0.45519542E+00</totfact>
</mgrwt>
</event>
<event>
12    1  0.4672461E-008  0.1150560E+04  0.7818608E-02  0.9157267E-01
         -1   -1    0    0    0  501 -0.00000000000E+00  0.00000000000E+00  0.48956945642E+03  0.48956945642E+03  0.00000000000E+00 0.  1.
          1   -1    0    0  501    0  0.00000000000E+00 -0.00000000000E+00 -0.67599587895E+03  0.67599587895E+03  0.00000000000E+00 0. -1.
         23    2    1    2    0    0 -0.20611721166E+03  0.35171794132E+01  0.23275660902E+02  0.22340885220E+03  0.82904061166E+02 0.  0.
        254    2    1    2    0    0  0.20611721166E+03 -0.35171794132E+01 -0.20970208343E+03  0.94215648317E+03  0.89509060966E+03 0.  0.
         23    2    4    4    0    0  0.93097664041E+02 -0.70262356869E+02  0.33946530947E+03  0.37018066515E+03  0.90515494114E+02 0.  0.
         23    2    4    4    0    0  0.11301954762E+03  0.66745177456E+02 -0.54916739291E+03  0.57197581802E+03  0.91340977166E+02 0.  0.
         11    1    3    3    0    0 -0.90204475329E+02 -0.21619975994E+02 -0.23860200143E+02  0.95778807062E+02  0.00000000000E+00 0. -1.
        -11    1    3    3    0    0 -0.11591273633E+03  0.25137155407E+02  0.47135861046E+02  0.12763004514E+03  0.00000000000E+00 0.  1.
          2    1    5    5  502    0  0.56934125116E+02 -0.13275781792E+02  0.64493537647E+02  0.87046868887E+02  0.00000000000E+00 0. -1.
          3    1    6    6  503    0  0.23489611995E+02  0.50757743932E+02 -0.32970900592E+03  0.33441910685E+03  0.00000000000E+00 0. -1.
         -2    1    5    5    0  502  0.36163538925E+02 -0.56986575076E+02  0.27497177183E+03  0.28313379627E+03  0.00000000000E+00 0.  1.
         -3    1    6    6    0  503  0.89529935624E+02  0.15987433524E+02 -0.21945838699E+03  0.23755671117E+03  0.00000000000E+00 0.  1.
<mgrwt>
<rscale>  0 0.11505598E+04</rscale>
<asrwt>0</asrwt>
<pdfrwt beam="1">  1        1 0.10399936E+00 0.11505598E+04</pdfrwt>
<pdfrwt beam="2">  1       -1 0.75318379E-01 0.11505598E+04</pdfrwt>
<totfact> 0.50572251E+01</totfact>
</mgrwt>
</event>
<event>
12    1  0.4672461E-008  0.1362776E+04  0.7818608E-02  0.8981213E-01
          2   -1    0    0  501    0  0.00000000000E+00  0.00000000000E+00  0.28075792939E+04  0.28075792939E+04  0.00000000000E+00 0. -1.
         -2   -1    0    0    0  501 -0.00000000000E+00 -0.00000000000E+00 -0.16537006849E+03  0.16537006849E+03  0.00000000000E+00 0.  1.
         23    2    1    2    0    0  0.34662320166E+03  0.13878082333E+03  0.74830522777E+03  0.84127104368E+03  0.91479473973E+02 0.  0.
        254    2    1    2    0    0 -0.34662320166E+03 -0.13878082333E+03  0.18939039977E+04  0.21316783187E+04  0.90430765857E+03 0.  0.
         23    2    4    4    0    0 -0.19747809805E+03 -0.51152935251E+03  0.12317296826E+04  0.13516988049E+04  0.96290032877E+02 0.  0.
         23    2    4    4    0    0 -0.14914510362E+03  0.37274852918E+03  0.66217431503E+03  0.77997951383E+03  0.93313935520E+02 0.  0.
         11    1    3    3    0    0  0.34196494397E+03  0.14326992129E+03  0.69625389322E+03  0.78881922965E+03  0.00000000000E+00 0.  1.
        -11    1    3    3    0    0  0.46582576929E+01 -0.44890979559E+01  0.52051334556E+02  0.52451814022E+02  0.00000000000E+00 0. -1.
          2    1    5    5  502    0 -0.82091623205E+02 -0.11422519794E+03  0.36889414963E+03  0.39480289269E+03  0.00000000000E+00 0.  1.
          4    1    6    6  503    0 -0.60174405207E+01 -0.35819432613E+01  0.27413217419E+02  0.28293539849E+02  0.00000000000E+00 0.  1.
         -2    1    5    5    0  502 -0.11538647484E+03 -0.39730415456E+03  0.86283553301E+03  0.95689591223E+03  0.00000000000E+00 0. -1.
         -4    1    6    6    0  503 -0.14312766310E+03  0.37633047244E+03  0.63476109761E+03  0.75168597398E+03  0.00000000000E+00 0. -1.
<mgrwt>
<rscale>  0 0.13627760E+04</rscale>
<asrwt>0</asrwt>
<pdfrwt beam="1">  1        2 0.43193524E+00 0.13627760E+04</pdfrwt>
<pdfrwt beam="2">  1       -2 0.25441551E-01 0.13627760E+04</pdfrwt>
<totfact> 0.31259746E+01</totfact>
</mgrwt>
</event>
<event>
12    1  0.4672461E-008  0.2389428E+04  0.7818608E-02  0.8443472E-01
          1   -1    0    0  501    0  0.00000000000E+00  0.00000000000E+00  0.24656858646E+04  0.24656858646E+04  0.00000000000E+00 0. -1.
         -1   -1    0    0    0  501 -0.00000000000E+00 -0.00000000000E+00 -0.57888216327E+03  0.57888216327E+03  0.00000000000E+00 0.  1.
         23    2    1    2    0    0  0.49649515433E+03  0.18947327909E+03 -0.30949301182E+03  0.62165051992E+03  0.90861888531E+02 0.  0.
        254    2    1    2    0    0 -0.49649515433E+03 -0.18947327909E+03  0.21962967131E+04  0.24229175079E+04  0.87430111312E+03 0.  0.
         23    2    4    4    0    0 -0.11344006661E+02  0.21806887208E+03  0.15280899019E+03  0.28147379869E+03  0.90521778646E+02 0.  0.
         23    2    4    4    0    0 -0.48515114767E+03 -0.40754215117E+03  0.20434877230E+04  0.21414437093E+04  0.92069783291E+02 0.  0.
         11    1    3    3    0    0  0.40895495472E+03  0.18991125556E+03 -0.24728297736E+03  0.51425607519E+03  0.00000000000E+00 0.  1.
        -11    1    3    3    0    0  0.87540199607E+02 -0.43797646799E+00 -0.62210034458E+02  0.10739444473E+03  0.00000000000E+00 0. -1.
          4    1    5    5  502    0  0.33588000802E+02  0.37702714415E+02  0.33728190469E+02  0.60722642436E+02  0.00000000000E+00 0.  1.
          3    1    6    6  503    0 -0.47404568970E+03 -0.37348386306E+03  0.18994312276E+04  0.19929998746E+04  0.00000000000E+00 0. -1.
         -4    1    5    5    0  502 -0.44932007463E+02  0.18036615767E+03  0.11908079972E+03  0.22075115625E+03  0.00000000000E+00 0. -1.
         -3    1    6    6    0  503 -0.11105457966E+02 -0.34058288112E+02  0.14405649536E+03  0.14844383463E+03  0.00000000000E+00 0.  1.
<mgrwt>
<rscale>  0 0.23894280E+04</rscale>
<asrwt>0</asrwt>
<pdfrwt beam="1">  1        1 0.37933628E+00 0.23894280E+04</pdfrwt>
<pdfrwt beam="2">  1       -1 0.89058796E-01 0.23894280E+04</pdfrwt>
<totfact> 0.15864930E+00</totfact>
</mgrwt>
</event>
<event>
12    1  0.4672461E-008  0.1680078E+04  0.7818608E-02  0.8772809E-01
          2   -1    0    0  501    0  0.00000000000E+00  0.00000000000E+00  0.97042610715E+03  0.97042610715E+03  0.00000000000E+00 0. -1.
         -2   -1    0    0    0  501 -0.00000000000E+00 -0.00000000000E+00 -0.72717058124E+03  0.72717058124E+03  0.00000000000E+00 0.  1.
         23    2    1    2    0    0  0.40907273437E+03 -0.16398456161E+03  0.46397996736E+03  0.64690838625E+03  0.94771365110E+02 0.  0.
        254    2    1    2    0    0 -0.40907273437E+03  0.16398456161E+03 -0.22072444144E+03  0.10506883021E+04  0.92789826530E+03 0.  0.
         23    2    4    4    0    0  0.24550416297E+03  0.24360785581E+03 -0.41211266627E+02  0.36005413473E+03  0.91233381982E+02 0.  0.
         23    2    4    4    0    0 -0.65457689734E+03 -0.79623294206E+02 -0.17951317482E+03  0.69063416741E+03  0.99698494187E+02 0.  0.
         13    1    3    3    0    0  0.29280149974E+03 -0.69415630951E+02  0.30964330708E+03  0.43177566592E+03  0.00000000000E+00 0.  1.
        -13    1    3    3    0    0  0.11627123463E+03 -0.94568930657E+02  0.15433666028E+03  0.21513272033E+03  0.00000000000E+00 0. -1.
          1    1    5    5  502    0  0.28962951083E+02  0.61126533603E+02  0.19594272783E+02  0.70421879921E+02  0.00000000000E+00 0. -1.
          3    1    6    6  503    0 -0.56697395243E+03 -0.78907520646E+02 -0.18824046251E+03  0.60259466582E+03  0.00000000000E+00 0. -1.
         -1    1    5    5    0  502  0.21654121189E+03  0.18248132221E+03 -0.60805539410E+02  0.28963225481E+03  0.00000000000E+00 0.  1.
         -3    1    6    6    0  503 -0.87602944911E+02 -0.71577356029E+00  0.87272876960E+01  0.88039501585E+02  0.00000000000E+00 0.  1.
<mgrwt>
<rscale>  0 0.16800778E+04</rscale>
<asrwt>0</asrwt>
<pdfrwt beam="1">  1        2 0.14929632E+00 0.16800778E+04</pdfrwt>
<pdfrwt beam="2">  1       -2 0.11187240E+00 0.16800778E+04</pdfrwt>
<totfact> 0.15823633E+01</totfact>
</mgrwt>
</event>
<event>
12    1  0.4672461E-008  0.2206157E+04  0.7818608E-02  0.8515870E-01
         -1   -1    0    0    0  501 -0.00000000000E+00  0.00000000000E+00  0.58733382841E+03  0.58733382841E+03  0.00000000000E+00 0. -1.
          1   -1    0    0  501    0  0.00000000000E+00 -0.00000000000E+00 -0.20717044210E+04  0.20717044210E+04  0.00000000000E+00 0.  1.
         23    2    1    2    0    0 -0.11502050719E+03  0.47855851023E+03 -0.15035056343E+04  0.15844494357E+04  0.87765922184E+02 0.  0.
        254    2    1    2    0    0  0.11502050719E+03 -0.47855851023E+03  0.19135041679E+02  0.10745888138E+04  0.95505340377E+03 0.  0.
         23    2    4    4    0    0  0.43315056555E+03 -0.38033621705E+03 -0.25213153688E+03  0.63583477775E+03  0.91872206171E+02 0.  0.
         23    2    4    4    0    0 -0.31813005836E+03 -0.98222293177E+02  0.27126657856E+03  0.43875403601E+03  0.89806428290E+02 0.  0.
         13    1    3    3    0    0 -0.81988313510E+02  0.16312780401E+03 -0.52671008664E+03  0.55745518148E+03  0.00000000000E+00 0. -1.
        -13    1    3    3    0    0 -0.33032193682E+02  0.31543070622E+03 -0.97679554765E+03  0.10269942542E+04  0.00000000000E+00 0.  1.
          3    1    6    6  502    0 -0.33276729494E+02  0.12059874311E+02  0.99370281734E+01  0.36763104101E+02  0.00000000000E+00 0. -1.
          3    1    5    5  503    0  0.20334571283E+03 -0.20113620461E+03 -0.78416291858E+02  0.29657101437E+03  0.00000000000E+00 0. -1.
         -3    1    5    5    0  503  0.22980485272E+03 -0.17920001244E+03 -0.17371524502E+03  0.33926376338E+03  0.00000000000E+00 0.  1.
         -3    1    6    6    0  502 -0.28485332887E+03 -0.11028216749E+03  0.26132955039E+03  0.40199093191E+03  0.00000000000E+00 0.  1.
<mgrwt>
<rscale>  0 0.22061569E+04</rscale>
<asrwt>0</asrwt>
<pdfrwt beam="1">  1        1 0.31872376E+00 0.22061569E+04</pdfrwt>
<pdfrwt beam="2">  1       -1 0.90359051E-01 0.22061569E+04</pdfrwt>
<totfact> 0.29059490E+00</totfact>
</mgrwt>
</event>
<event>
12    1  0.4672461E-008  0.2287048E+04  0.7818608E-02  0.8483045E-01
         -2   -1    0    0    0  501 -0.00000000000E+00  0.00000000000E+00  0.53253441167E+03  0.53253441167E+03  0.00000000000E+00 0.  1.
          2   -1    0    0  501    0  0.00000000000E+00 -0.00000000000E+00 -0.24555175282E+04  0.24555175282E+04  0.00000000000E+00 0. -1.
         23    2    1    2    0    0  0.51765433789E+03  0.20480731460E+03  0.21401492864E+03  0.60326915993E+03  0.90660024182E+02 0.  0.
        254    2    1    2    0    0 -0.51765433789E+03 -0.20480731460E+03 -0.21369980452E+04  0.23847827800E+04  0.90028673922E+03 0.  0.
         23    2    4    4    0    0 -0.69841796745E+03 -0.81470385027E+02 -0.10183698189E+04  0.12409017311E+04  0.91295877557E+02 0.  0.
         23    2    4    4    0    0  0.18076362956E+03 -0.12333692958E+03 -0.11186282263E+04  0.11438810489E+04  0.96162661104E+02 0.  0.
         11    1    3    3    0    0  0.80961927004E+02  0.47841717208E+02  0.70516921005E+02  0.11754275681E+03  0.00000000000E+00 0.  1.
        -11    1    3    3    0    0  0.43669241089E+03  0.15696559739E+03  0.14349800763E+03  0.48572640312E+03  0.00000000000E+00 0. -1.
          1    1    5    5  502    0 -0.15394902327E+03  0.19802071724E+02 -0.22776651625E+03  0.27562657662E+03  0.00000000000E+00 0. -1.
          3    1    6    6  503    0  0.19147684822E+03 -0.10841743430E+03 -0.10078754284E+04  0.10316155304E+04  0.00000000000E+00 0.  1.
         -1    1    5    5    0  502 -0.54446894418E+03 -0.10127245675E+03 -0.79060330270E+03  0.96527515451E+03  0.00000000000E+00 0.  1.
         -3    1    6    6    0  503 -0.10713218664E+02 -0.14919495278E+02 -0.11075279785E+03  0.11226551841E+03  0.00000000000E+00 0. -1.
<mgrwt>
<rscale>  0 0.22870484E+04</rscale>
<asrwt>0</asrwt>
<pdfrwt beam="1">  1        2 0.37777191E+00 0.22870484E+04</pdfrwt>
<pdfrwt beam="2">  1       -2 0.81928374E-01 0.22870484E+04</pdfrwt>
<totfact> 0.43910576E+00</totfact>
</mgrwt>
</event>
<event>
12    1  0.4672461E-008  0.2743088E+04  0.7818608E-02  0.8321158E-01
          2   -1    0    0  501    0  0.00000000000E+00  0.00000000000E+00  0.93952067828E+03  0.93952067828E+03  0.00000000000E+00 0. -1.
         -2   -1    0    0    0  501 -0.00000000000E+00 -0.00000000000E+00 -0.20022260677E+04  0.20022260677E+04  0.00000000000E+00 0.  1.
         23    2    1    2    0    0  0.32810991320E+02 -0.71703630027E+03 -0.15342301917E+04  0.16966335620E+04  0.97393765792E+02 0.  0.
        254    2    1    2    0    0 -0.32810991320E+02  0.71703630027E+03  0.47152480232E+03  0.12451131839E+04  0.90152847126E+03 0.  0.
         23    2    4    4    0    0  0.89988636823E+02  0.60981595062E+03 -0.11148199165E+03  0.63308108909E+03  0.91596847740E+02 0.  0.
         23    2    4    4    0    0 -0.12279962814E+03  0.10722034964E+03  0.58300679397E+03  0.61203209482E+03  0.90057821545E+02 0.  0.
         13    1    3    3    0    0 -0.12331638677E+02 -0.57464632008E+03 -0.12009323032E+04  0.13313935779E+04  0.00000000000E+00 0.  1.
        -13    1    3    3    0    0  0.45142629996E+02 -0.14238998019E+03 -0.33329788850E+03  0.36523998409E+03  0.00000000000E+00 0. -1.
          1    1    5    5  502    0  0.35266727958E+02  0.53056619988E+02 -0.92917406850E+01  0.64382322654E+02  0.00000000000E+00 0. -1.
          1    1    6    6  503    0 -0.84095402536E+01 -0.48850945445E+01  0.27940537584E+01  0.10118856279E+02  0.00000000000E+00 0. -1.
         -1    1    5    5    0  502  0.54721908865E+02  0.55675933063E+03 -0.10219025096E+03  0.56869876644E+03  0.00000000000E+00 0.  1.
         -1    1    6    6    0  503 -0.11439008789E+03  0.11210544419E+03  0.58021274021E+03  0.60191323854E+03  0.00000000000E+00 0.  1.
<mgrwt>
<rscale>  0 0.27430879E+04</rscale>
<asrwt>0</asrwt>
<pdfrwt beam="1">  1        2 0.14454165E+00 0.27430879E+04</pdfrwt>
<pdfrwt beam="2">  1       -2 0.30803477E+00 0.27430879E+04</pdfrwt>
<totfact> 0.68429002E-01</totfact>
</mgrwt>
</event>
<event>
12    1  0.4672461E-008  0.1176934E+04  0.7818608E-02  0.9133289E-01
          3   -1    0    0  501    0  0.00000000000E+00  0.00000000000E+00  0.47118349710E+03  0.47118349710E+03  0.00000000000E+00 0. -1.
         -3   -1    0    0    0  501 -0.00000000000E+00 -0.00000000000E+00 -0.73494423621E+03  0.73494423621E+03  0.00000000000E+00 0.  1.
         23    2    1    2    0    0  0.88031890176E+02 -0.20081156559E+02  0.16449943375E+03  0.20817012793E+03  0.90121428758E+02 0.  0.
        254    2    1    2    0    0 -0.88031890176E+02  0.20081156559E+02 -0.42826017286E+03  0.99795760538E+03  0.89686104830E+03 0.  0.
         23    2    4    4    0    0  0.22399541433E+03  0.33799661812E+03 -0.76947405943E+02  0.42360733567E+03  0.95428570407E+02 0.  0.
         23    2    4    4    0    0 -0.31202730450E+03 -0.31791546156E+03 -0.35131276691E+03  0.57435026972E+03  0.89589579041E+02 0.  0.
         11    1    3    3    0    0  0.63476049951E+02 -0.28242199688E+02  0.38275609020E+02  0.79321201494E+02  0.00000000000E+00 0. -1.
        -11    1    3    3    0    0  0.24555840225E+02  0.81610431296E+01  0.12622382473E+03  0.12884892643E+03  0.00000000000E+00 0.  1.
          1    1    5    5  502    0  0.15042975545E+03  0.23094569849E+03 -0.61751860857E+01  0.27568670606E+03  0.00000000000E+00 0. -1.
          3    1    6    6  503    0 -0.17184290336E+03 -0.21323543815E+03 -0.25713764944E+03  0.37565823069E+03  0.00000000000E+00 0. -1.
         -1    1    5    5    0  502  0.73565658881E+02  0.10705091963E+03 -0.70772219858E+02  0.14792062961E+03  0.00000000000E+00 0.  1.
         -3    1    6    6    0  503 -0.14018440114E+03 -0.10468002341E+03 -0.94175117469E+02  0.19869203903E+03  0.00000000000E+00 0.  1.
<mgrwt>
<rscale>  0 0.11769343E+04</rscale>
<asrwt>0</asrwt>
<pdfrwt beam="1">  1        3 0.72489768E-01 0.11769343E+04</pdfrwt>
<pdfrwt beam="2">  1       -3 0.11306834E+00 0.11769343E+04</pdfrwt>
<totfact> 0.30585328E+00</totfact>
</mgrwt>
</event>
<event>
12    1  0.4672461E-008  0.2023626E+04  0.7818608E-02  0.8595654E-01
         -2   -1    0    0    0  501 -0.00000000000E+00  0.00000000000E+00  0.85864713610E+03  0.85864713610E+03  0.00000000000E+00 0.  1.
          2   -1    0    0  501    0  0.00000000000E+00 -0.00000000000E+00 -0.11923005063E+04  0.11923005063E+04  0.00000000000E+00 0. -1.
         23    2    1    2    0    0  0.33715659302E+03  0.61280481629E+03 -0.55124578351E+03  0.89516354587E+03  0.90782977035E+02 0.  0.
        254    2    1    2    0    0 -0.33715659302E+03 -0.61280481629E+03  0.21759241329E+03  0.11557840966E+04  0.89402802441E+03 0.  0.
         23    2    4    4    0    0  0.23803429409E+03 -0.37982885607E+03  0.26142244408E+03  0.52711901395E+03  0.92641651134E+02 0.  0.
         23    2    4    4    0    0 -0.57519088711E+03 -0.23297596022E+03 -0.43830030794E+02  0.62866508261E+03  0.90423226167E+02 0.  0.
         13    1    3    3    0    0  0.20683829326E+03  0.42262158668E+03 -0.41485480925E+03  0.62729227465E+03  0.00000000000E+00 0. -1.
        -13    1    3    3    0    0  0.13031829977E+03  0.19018322962E+03 -0.13639097426E+03  0.26787127121E+03  0.00000000000E+00 0.  1.
          4    1    5    5  502    0  0.22296564300E+03 -0.37187059149E+03  0.22866216135E+03  0.49019159398E+03  0.00000000000E+00 0. -1.
          1    1    6    6  503    0 -0.49657773574E+03 -0.16519099073E+03 -0.36828639603E+02  0.52462735322E+03  0.00000000000E+00 0. -1.
         -4    1    5    5    0  502  0.15068651091E+02 -0.79582645816E+01  0.32760282729E+02  0.36927419966E+02  0.00000000000E+00 0.  1.
         -1    1    6    6    0  503 -0.78613151374E+02 -0.67784969488E+02 -0.70013911906E+01  0.10403772939E+03  0.00000000000E+00 0.  1.
<mgrwt>
<rscale>  0 0.20236259E+04</rscale>
<asrwt>0</asrwt>
<pdfrwt beam="1">  1        2 0.18343084E+00 0.20236259E+04</pdfrwt>
<pdfrwt beam="2">  1       -2 0.13209956E+00 0.20236259E+04</pdfrwt>
<totfact> 0.74029606E+00</totfact>
</mgrwt>
</event>
<event>
12    1  0.4672461E-008  0.1077018E+04  0.7818608E-02  0.9227885E-01
          2   -1    0    0  501    0  0.00000000000E+00  0.00000000000E+00  0.39757973901E+03  0.39757973901E+03  0.00000000000E+00 0. -1.
         -2   -1    0    0    0  501 -0.00000000000E+00 -0.00000000000E+00 -0.72939375806E+03  0.72939375806E+03  0.00000000000E+00 0.  1.
         23    2    1    2    0    0  0.18293420481E+02 -0.11045837214E+03  0.34723438342E+02  0.14168521217E+03  0.79581913584E+02 0.  0.
        254    2    1    2    0    0 -0.18293420481E+02  0.11045837214E+03 -0.36653745739E+03  0.98528828490E+03  0.90769355814E+03 0.  0.
         23    2    4    4    0    0  0.22248515848E+03  0.11079515921E+03  0.22069038942E+03  0.34430214300E+03  0.89802587033E+02 0.  0.
         23    2    4    4    0    0 -0.24077857897E+03 -0.33678707546E+00 -0.58722784681E+03  0.64098614191E+03  0.89734344182E+02 0.  0.
         11    1    3    3    0    0  0.19155992377E+02 -0.24759087690E+02  0.45582125832E+02  0.55296425404E+02  0.00000000000E+00 0.  1.
        -11    1    3    3    0    0 -0.86257189552E+00 -0.85699284449E+02 -0.10858687490E+02  0.86388786769E+02  0.00000000000E+00 0. -1.
          4    1    5    5  502    0  0.21500248543E+03  0.75151042010E+02  0.18706032806E+03  0.29472922182E+03  0.00000000000E+00 0. -1.
          3    1    6    6  503    0 -0.16807014200E+03  0.40062958758E+02 -0.42206081907E+03  0.45605695729E+03  0.00000000000E+00 0. -1.
         -4    1    5    5    0  502  0.74826730500E+01  0.35644117204E+02  0.33630061362E+02  0.49572921181E+02  0.00000000000E+00 0.  1.
         -3    1    6    6    0  503 -0.72708436966E+02 -0.40399745834E+02 -0.16516702775E+03  0.18492918462E+03  0.00000000000E+00 0.  1.
<mgrwt>
<rscale>  0 0.10770184E+04</rscale>
<asrwt>0</asrwt>
<pdfrwt beam="1">  1        2 0.61166113E-01 0.10770184E+04</pdfrwt>
<pdfrwt beam="2">  1       -2 0.11221442E+00 0.10770184E+04</pdfrwt>
<totfact> 0.49822137E+01</totfact>
</mgrwt>
</event>
<event>
12    1  0.4672461E-008  0.2971098E+04  0.7818608E-02  0.8252033E-01
         -1   -1    0    0    0  501 -0.00000000000E+00  0.00000000000E+00  0.19945038242E+04  0.19945038242E+04  0.00000000000E+00 0.  1.
          1   -1    0    0  501    0  0.00000000000E+00 -0.00000000000E+00 -0.11064685412E+04  0.11064685412E+04  0.00000000000E+00 0. -1.
         23    2    1    2    0    0  0.64443921920E+03 -0.69257088309E+03  0.14056721668E+04  0.16977460108E+04  0.10710247978E+03 0.  0.
        254    2    1    2    0    0 -0.64443921920E+03  0.69257088309E+03 -0.51763688381E+03  0.14032263546E+04  0.89785295192E+03 0.  0.
         23    2    4    4    0    0 -0.83474782684E+03  0.68060390240E+03 -0.35666824933E+03  0.11381152980E+04  0.89825302635E+02 0.  0.
         23    2    4    4    0    0  0.19030860764E+03  0.11966980694E+02 -0.16096863448E+03  0.26511105659E+03  0.89511989554E+02 0.  0.
         11    1    3    3    0    0  0.22257934061E+02 -0.47854259855E+02  0.49677236322E+02  0.72479470359E+02  0.00000000000E+00 0. -1.
        -11    1    3    3    0    0  0.62218128514E+03 -0.64471662324E+03  0.13559949305E+04  0.16252665404E+04  0.00000000000E+00 0.  1.
          4    1    5    5  502    0 -0.79572291780E+03  0.66221510114E+03 -0.35674380935E+03  0.10949748616E+04  0.00000000000E+00 0. -1.
          3    1    6    6  503    0  0.14551665686E+03  0.15022950322E+02 -0.16442438416E+03  0.22008217685E+03  0.00000000000E+00 0. -1.
         -4    1    5    5    0  502 -0.39024909046E+02  0.18388801259E+02  0.75560020502E-01  0.43140436334E+02  0.00000000000E+00 0.  1.
         -3    1    6    6    0  503  0.44791950782E+02 -0.30559696280E+01  0.34557496840E+01  0.45028879746E+02  0.00000000000E+00 0.  1.
<mgrwt>
<rscale>  0 0.29710979E+04</rscale>
<asrwt>0</asrwt>
<pdfrwt beam="1">  1        1 0.17022593E+00 0.29710979E+04</pdfrwt>
<pdfrwt beam="2">  1       -1 0.30684674E+00 0.29710979E+04</pdfrwt>
<totfact> 0.31883247E-01</totfact>
</mgrwt>
</event>
<event>
12    1  0.4672461E-008  0.2032771E+04  0.7818608E-02  0.8591451E-01
          1   -1    0    0  501    0  0.00000000000E+00  0.00000000000E+00  0.24116595988E+04  0.24116595988E+04  0.00000000000E+00 0. -1.
         -1   -1    0    0    0  501 -0.00000000000E+00 -0.00000000000E+00 -0.42835212964E+03  0.42835212964E+03  0.00000000000E+00 0.  1.
         23    2    1    2    0    0 -0.55456846762E+03 -0.49080446816E+03  0.32630910720E+03  0.81431952462E+03  0.90572862842E+02 0.  0.
        254    2    1    2    0    0  0.55456846762E+03  0.49080446816E+03  0.16569983620E+04  0.20256922039E+04  0.89963888416E+03 0.  0.
         23    2    4    4    0    0 -0.20011449039E+03  0.83630097902E+02  0.69215156645E+03  0.73171560851E+03  0.96406111090E+02 0.  0.
         23    2    4    4    0    0  0.75468295801E+03  0.40717437026E+03  0.96484679556E+03  0.12939765954E+04  0.90048628771E+02 0.  0.
         13    1    3    3    0    0 -0.49992756501E+03 -0.41986551094E+03  0.25921846152E+03  0.70243065731E+03  0.00000000000E+00 0.  1.
        -13    1    3    3    0    0 -0.54640902613E+02 -0.70938957223E+02  0.67090645681E+02  0.11188886731E+03  0.00000000000E+00 0. -1.
          2    1    5    5  502    0 -0.21401676633E+02 -0.50760503428E+01  0.19171758616E+03  0.19297520798E+03  0.00000000000E+00 0. -1.
          3    1    6    6  503    0  0.40881201630E+03  0.22960962869E+03  0.59320596451E+03  0.75613567737E+03  0.00000000000E+00 0. -1.
         -2    1    5    5    0  502 -0.17871281376E+03  0.88706148245E+02  0.50043398029E+03  0.53874040053E+03  0.00000000000E+00 0.  1.
         -3    1    6    6    0  503  0.34587094171E+03  0.17756474157E+03  0.37164083105E+03  0.53784091800E+03  0.00000000000E+00 0.  1.
<mgrwt>
<rscale>  0 0.20327710E+04</rscale>
<asrwt>0</asrwt>
<pdfrwt beam="1">  1        1 0.37102454E+00 0.20327710E+04</pdfrwt>
<pdfrwt beam="2">  1       -1 0.65900329E-01 0.20327710E+04</pdfrwt>
<totfact> 0.33677324E+00</totfact>
</mgrwt>
</event>
<event>
12    1  0.4672461E-008  0.1803477E+04  0.7818608E-02  0.8704453E-01
          4   -1    0    0  501    0  0.00000000000E+00  0.00000000000E+00  0.21313182105E+04  0.21313182105E+04  0.00000000000E+00 0. -1.
         -4   -1    0    0    0  501 -0.00000000000E+00 -0.00000000000E+00 -0.38151602443E+03  0.38151602443E+03  0.00000000000E+00 0.  1.
         23    2    1    2    0    0 -0.13325440488E+03 -0.41886919369E+02 -0.25705976859E+03  0.30673967533E+03  0.92185971588E+02 0.  0.
        254    2    1    2    0    0  0.13325440488E+03  0.41886919369E+02  0.20068619546E+04  0.22060945596E+04  0.90545405758E+03 0.  0.
         23    2    4    4    0    0  0.50484113349E+02  0.40432012183E+03  0.15727537329E+04  0.16271671247E+04  0.89973000364E+02 0.  0.
         23    2    4    4    0    0  0.82770291531E+02 -0.36243320246E+03  0.43410822173E+03  0.57892743485E+03  0.92186112000E+02 0.  0.
         11    1    3    3    0    0 -0.27853844942E+02  0.26491904028E+02 -0.88674426055E+02  0.96647873713E+02  0.00000000000E+00 0. -1.
        -11    1    3    3    0    0 -0.10540055994E+03 -0.68378823397E+02 -0.16838534253E+03  0.21009180161E+03  0.00000000000E+00 0.  1.
          1    1    5    5  502    0  0.52588340464E+02  0.21197801832E+03  0.97765953018E+03  0.10017576407E+04  0.00000000000E+00 0. -1.
          3    1    6    6  503    0  0.92771449320E+01 -0.20734034339E+02  0.14899767821E+01  0.22763691020E+02  0.00000000000E+00 0. -1.
         -1    1    5    5    0  502 -0.21042271159E+01  0.19234210351E+03  0.59509420273E+03  0.62540948400E+03  0.00000000000E+00 0.  1.
         -3    1    6    6    0  503  0.73493146599E+02 -0.34169916812E+03  0.43261824495E+03  0.55616374383E+03  0.00000000000E+00 0.  1.
<mgrwt>
<rscale>  0 0.18034767E+04</rscale>
<asrwt>0</asrwt>
<pdfrwt beam="1">  1        4 0.32789510E+00 0.18034767E+04</pdfrwt>
<pdfrwt beam="2">  1       -4 0.58694774E-01 0.18034767E+04</pdfrwt>
<totfact> 0.10738995E-01</totfact>
</mgrwt>
</event>
<event>
12    1  0.4672461E-008  0.2043846E+04  0.7818608E-02  0.8586391E-01
          1   -1    0    0  501    0  0.00000000000E+00  0.00000000000E+00  0.57789888554E+03  0.57789888554E+03  0.00000000000E+00 0. -1.
         -1   -1    0    0    0  501 -0.00000000000E+00 -0.00000000000E+00 -0.18071092697E+04  0.18071092697E+04  0.00000000000E+00 0.  1.
         23    2    1    2    0    0  0.16230522389E+03  0.70257211790E+03 -0.95373322152E+03  0.11995669652E+04  0.96970508493E+02 0.  0.
        254    2    1    2    0    0 -0.16230522389E+03 -0.70257211790E+03 -0.27547716261E+03  0.11854411901E+04  0.89968471222E+03 0.  0.
         23    2    4    4    0    0 -0.45611384012E+03 -0.14085183271E+03  0.57022227481E+01  0.48597340908E+03  0.90876647518E+02 0.  0.
         23    2    4    4    0    0  0.29380861622E+03 -0.56172028519E+03 -0.28117938536E+03  0.69946778097E+03  0.91324411319E+02 0.  0.
         13    1    3    3    0    0  0.47637379965E+02  0.33340922323E+03 -0.50871667765E+03  0.61010137536E+03  0.00000000000E+00 0.  1.
        -13    1    3    3    0    0  0.11466784393E+03  0.36916289467E+03 -0.44501654387E+03  0.58946558979E+03  0.00000000000E+00 0. -1.
          4    1    5    5  502    0 -0.17880023257E+02 -0.21778965346E+02  0.14657644421E+02  0.31762636905E+02  0.00000000000E+00 0. -1.
          4    1    6    6  503    0  0.10415541935E+03 -0.11689236092E+03 -0.59200674466E+02  0.16738248200E+03  0.00000000000E+00 0.  1.
         -4    1    5    5    0  502 -0.43823381686E+03 -0.11907286736E+03 -0.89554216727E+01  0.45421077218E+03  0.00000000000E+00 0.  1.
         -4    1    6    6    0  503  0.18965319687E+03 -0.44482792427E+03 -0.22197871089E+03  0.53208529898E+03  0.00000000000E+00 0. -1.
<mgrwt>
<rscale>  0 0.20438458E+04</rscale>
<asrwt>0</asrwt>
<pdfrwt beam="1">  1        1 0.88907523E-01 0.20438458E+04</pdfrwt>
<pdfrwt beam="2">  1       -1 0.27801680E+00 0.20438458E+04</pdfrwt>
<totfact> 0.15320022E+00</totfact>
</mgrwt>
</event>
<event>
12    1  0.4672461E-008  0.1781768E+04  0.7818608E-02  0.8716056E-01
         -1   -1    0    0    0  501 -0.00000000000E+00  0.00000000000E+00  0.24427189228E+03  0.24427189228E+03  0.00000000000E+00 0.  1.
          1   -1    0    0  501    0  0.00000000000E+00 -0.00000000000E+00 -0.32491427893E+04  0.32491427893E+04  0.00000000000E+00 0. -1.
         23    2    1    2    0    0  0.24717652245E+03  0.24079666079E+03 -0.22098026154E+04  0.22384308737E+04  0.90917062579E+02 0.  0.
        254    2    1    2    0    0 -0.24717652245E+03 -0.24079666079E+03 -0.79506828163E+03  0.12549838079E+04  0.90761859858E+03 0.  0.
         23    2    4    4    0    0 -0.46654052947E+03  0.13274219580E+03 -0.58439531990E+03  0.76493203048E+03  0.91228094069E+02 0.  0.
         23    2    4    4    0    0  0.21936400702E+03 -0.37353885659E+03 -0.21067296172E+03  0.49005177740E+03  0.90087750424E+02 0.  0.
         11    1    3    3    0    0  0.15990316303E+03  0.20410747571E+03 -0.14841567544E+04  0.15066353755E+04  0.00000000000E+00 0.  1.
        -11    1    3    3    0    0  0.87273359414E+02  0.36689185083E+02 -0.72564586097E+03  0.73179549815E+03  0.00000000000E+00 0. -1.
          4    1    5    5  502    0 -0.10168583751E+03  0.66807247058E+02 -0.12274888365E+03  0.17283086023E+03  0.00000000000E+00 0.  1.
          1    1    6    6  503    0  0.20042200897E+03 -0.34900899175E+03 -0.21868790255E+03  0.45804001651E+03  0.00000000000E+00 0. -1.
         -4    1    5    5    0  502 -0.36485469196E+03  0.65934948740E+02 -0.46164643625E+03  0.59210117025E+03  0.00000000000E+00 0. -1.
         -1    1    6    6    0  503  0.18941998049E+02 -0.24529864839E+02  0.80149408247E+01  0.32011760894E+02  0.00000000000E+00 0.  1.
<mgrwt>
<rscale>  0 0.17817680E+04</rscale>
<asrwt>0</asrwt>
<pdfrwt beam="1">  1        1 0.49986815E+00 0.17817680E+04</pdfrwt>
<pdfrwt beam="2">  1       -1 0.37580289E-01 0.17817680E+04</pdfrwt>
<totfact> 0.25299628E+00</totfact>
</mgrwt>
</event>
<event>
12    1  0.4672461E-008  0.2077866E+04  0.7818608E-02  0.8571057E-01
         -2   -1    0    0    0  501 -0.00000000000E+00  0.00000000000E+00  0.73586961795E+03  0.73586961795E+03  0.00000000000E+00 0.  1.
          2   -1    0    0  501    0  0.00000000000E+00 -0.00000000000E+00 -0.14668110755E+04  0.14668110755E+04  0.00000000000E+00 0. -1.
         23    2    1    2    0    0 -0.23972180587E+02 -0.79854044312E+03 -0.17868048882E+02  0.80437709973E+03  0.91987752760E+02 0.  0.
        254    2    1    2    0    0  0.23972180587E+02  0.79854044312E+03 -0.71307340872E+03  0.13983035938E+04  0.89918727158E+03 0.  0.
         23    2    4    4    0    0 -0.14856350096E+03  0.69236475811E+03 -0.69620912809E+02  0.71732134815E+03  0.90899796008E+02 0.  0.
         23    2    4    4    0    0  0.17253568155E+03  0.10617568501E+03 -0.64345249591E+03  0.68098224562E+03  0.93079895067E+02 0.  0.
         11    1    3    3    0    0 -0.22102664377E+02 -0.80075600485E+03 -0.16653648659E+02  0.80123408008E+03  0.00000000000E+00 0.  1.
        -11    1    3    3    0    0 -0.18695162108E+01  0.22155617247E+01 -0.12144002222E+01  0.31430196497E+01  0.00000000000E+00 0. -1.
          2    1    5    5  502    0 -0.94653848903E+02  0.53439638377E+03 -0.86467777784E+02  0.54955938959E+03  0.00000000000E+00 0. -1.
          3    1    6    6  503    0  0.88638784405E+02  0.17270584137E+02 -0.37951924440E+03  0.39011532148E+03  0.00000000000E+00 0. -1.
         -2    1    5    5    0  502 -0.53909652060E+02  0.15796837434E+03  0.16846864975E+02  0.16776195855E+03  0.00000000000E+00 0.  1.
         -3    1    6    6    0  503  0.83896897146E+02  0.88905100877E+02 -0.26393325150E+03  0.29086692415E+03  0.00000000000E+00 0.  1.
<mgrwt>
<rscale>  0 0.20778659E+04</rscale>
<asrwt>0</asrwt>
<pdfrwt beam="1">  1        2 0.22566324E+00 0.20778659E+04</pdfrwt>
<pdfrwt beam="2">  1       -2 0.11321071E+00 0.20778659E+04</pdfrwt>
<totfact> 0.74984791E+00</totfact>
</mgrwt>
</event>
<event>
12    1  0.4672461E-008  0.2826299E+04  0.7818608E-02  0.8295150E-01
          2   -1    0    0  501    0  0.00000000000E+00  0.00000000000E+00  0.12120125167E+04  0.12120125167E+04  0.00000000000E+00 0. -1.
         -2   -1    0    0    0  501 -0.00000000000E+00 -0.00000000000E+00 -0.16476656866E+04  0.16476656866E+04  0.00000000000E+00 0.  1.
         23    2    1    2    0    0  0.53422780977E+03 -0.70093842918E+03 -0.11197734137E+04  0.14279350236E+04  0.91607309990E+02 0.  0.
        254    2    1    2    0    0 -0.53422780977E+03  0.70093842918E+03  0.68412024385E+03  0.14317431798E+04  0.89730373374E+03 0.  0.
         23    2    4    4    0    0 -0.58803144537E+03  0.56293285271E+03  0.85732330034E+03  0.11857403219E+04  0.91118012949E+02 0.  0.
         23    2    4    4    0    0  0.53803635600E+02  0.13800557646E+03 -0.17320305649E+03  0.24600285788E+03  0.92616072936E+02 0.  0.
         13    1    3    3    0    0  0.47500418318E+03 -0.66216075582E+03 -0.10409125463E+04  0.13219624691E+04  0.00000000000E+00 0.  1.
        -13    1    3    3    0    0  0.59223626583E+02 -0.38777673356E+02 -0.78860867383E+02  0.10597255447E+03  0.00000000000E+00 0. -1.
          1    1    5    5  502    0 -0.46790546008E+02  0.16476669327E+02  0.61144620552E+02  0.78736906532E+02  0.00000000000E+00 0. -1.
          3    1    6    6  503    0 -0.26037352738E+01 -0.11821722715E+02 -0.32785443575E+01  0.12541188876E+02  0.00000000000E+00 0. -1.
         -1    1    5    5    0  502 -0.54124089936E+03  0.54645618338E+03  0.79617867979E+03  0.11070034154E+04  0.00000000000E+00 0.  1.
         -3    1    6    6    0  503  0.56407370874E+02  0.14982729918E+03 -0.16992451213E+03  0.23346166900E+03  0.00000000000E+00 0.  1.
<mgrwt>
<rscale>  0 0.28262989E+04</rscale>
<asrwt>0</asrwt>
<pdfrwt beam="1">  1        2 0.18646347E+00 0.28262989E+04</pdfrwt>
<pdfrwt beam="2">  1       -2 0.25348703E+00 0.28262989E+04</pdfrwt>
<totfact> 0.98943559E-01</totfact>
</mgrwt>
</event>
<event>
12    1  0.4672461E-008  0.4339262E+04  0.7818608E-02  0.7939398E-01
          2   -1    0    0  501    0  0.00000000000E+00  0.00000000000E+00  0.18147117642E+04  0.18147117642E+04  0.00000000000E+00 0. -1.
         -2   -1    0    0    0  501 -0.00000000000E+00 -0.00000000000E+00 -0.25939651264E+04  0.25939651264E+04  0.00000000000E+00 0.  1.
         23    2    1    2    0    0  0.89204074403E+03  0.26697934776E+03 -0.22560169098E+04  0.24422318947E+04  0.88711154401E+02 0.  0.
        254    2    1    2    0    0 -0.89204074403E+03 -0.26697934776E+03  0.14767635476E+04  0.19664449959E+04  0.90501971527E+03 0.  0.
         23    2    4    4    0    0 -0.34067411330E+03 -0.56029594239E+03  0.67154416475E+03  0.94330888712E+03  0.94179067559E+02 0.  0.
         23    2    4    4    0    0 -0.55136663073E+03  0.29331659463E+03  0.80521938288E+03  0.10231361088E+04  0.91593975309E+02 0.  0.
         13    1    3    3    0    0  0.31145829438E+03  0.10512153600E+03 -0.69230105383E+03  0.76637951147E+03  0.00000000000E+00 0. -1.
        -13    1    3    3    0    0  0.58058244965E+03  0.16185781176E+03 -0.15637158560E+04  0.16758523832E+04  0.00000000000E+00 0.  1.
          4    1    5    5  502    0 -0.73928912115E+01 -0.50563385912E+02  0.75372988362E+02  0.91062605992E+02  0.00000000000E+00 0.  1.
          4    1    6    6  503    0 -0.48054969918E+03  0.23925511795E+03  0.63913726338E+03  0.83466608072E+03  0.00000000000E+00 0. -1.
         -4    1    5    5    0  502 -0.33328122209E+03 -0.50973255648E+03  0.59617117639E+03  0.85224628113E+03  0.00000000000E+00 0. -1.
         -4    1    6    6    0  503 -0.70816931543E+02  0.54061476677E+02  0.16608211949E+03  0.18847002804E+03  0.00000000000E+00 0.  1.
<mgrwt>
<rscale>  0 0.43392622E+04</rscale>
<asrwt>0</asrwt>
<pdfrwt beam="1">  1        2 0.27918643E+00 0.43392622E+04</pdfrwt>
<pdfrwt beam="2">  1       -2 0.39907156E+00 0.43392622E+04</pdfrwt>
<totfact> 0.48920959E-02</totfact>
</mgrwt>
</event>
<event>
12    1  0.4672461E-008  0.1911795E+04  0.7818608E-02  0.8649007E-01
          2   -1    0    0  501    0  0.00000000000E+00  0.00000000000E+00  0.25520192919E+04  0.25520192919E+04  0.00000000000E+00 0. -1.
         -2   -1    0    0    0  501 -0.00000000000E+00 -0.00000000000E+00 -0.35804593456E+03  0.35804593456E+03  0.00000000000E+00 0.  1.
         23    2    1    2    0    0  0.42685890461E+03 -0.43301363842E+03  0.21061910310E+03  0.64960073426E+03  0.88945892865E+02 0.  0.
        254    2    1    2    0    0 -0.42685890461E+03  0.43301363842E+03  0.19833542542E+04  0.22604644922E+04  0.89794002427E+03 0.  0.
         23    2    4    4    0    0 -0.17300008494E+03 -0.10231734869E+03  0.14238156190E+04  0.14406988070E+04  0.89242737520E+02 0.  0.
         23    2    4    4    0    0 -0.25385881966E+03  0.53533098711E+03  0.55953863521E+03  0.81976568522E+03  0.88931031119E+02 0.  0.
         13    1    3    3    0    0  0.23641598435E+03 -0.25409692084E+03  0.74529742251E+02  0.35498231691E+03  0.00000000000E+00 0. -1.
        -13    1    3    3    0    0  0.19044292026E+03 -0.17891671758E+03  0.13608936085E+03  0.29461841735E+03  0.00000000000E+00 0.  1.
          1    1    6    6  502    0 -0.90811956433E+02  0.11587684528E+03  0.16664342779E+03  0.22236071309E+03  0.00000000000E+00 0. -1.
          1    1    5    5  503    0 -0.75425449810E+02  0.22340726355E+01  0.57313982258E+03  0.57808584638E+03  0.00000000000E+00 0. -1.
         -1    1    5    5    0  503 -0.97574635134E+02 -0.10455142133E+03  0.85067579644E+03  0.86261296059E+03  0.00000000000E+00 0.  1.
         -1    1    6    6    0  502 -0.16304686323E+03  0.41945414183E+03  0.39289520742E+03  0.59740497213E+03  0.00000000000E+00 0.  1.
<mgrwt>
<rscale>  0 0.19117951E+04</rscale>
<asrwt>0</asrwt>
<pdfrwt beam="1">  1        2 0.39261834E+00 0.19117951E+04</pdfrwt>
<pdfrwt beam="2">  1       -2 0.55083992E-01 0.19117951E+04</pdfrwt>
<totfact> 0.94237581E+00</totfact>
</mgrwt>
</event>
<event>
12    1  0.4672461E-008  0.2282346E+04  0.7818608E-02  0.8484914E-01
         -2   -1    0    0    0  501 -0.00000000000E+00  0.00000000000E+00  0.37642883673E+03  0.37642883673E+03  0.00000000000E+00 0. -1.
          2   -1    0    0  501    0  0.00000000000E+00 -0.00000000000E+00 -0.34595548774E+04  0.34595548774E+04  0.00000000000E+00 0.  1.
         23    2    1    2    0    0  0.43141508545E+03  0.74709393508E+03 -0.60253180523E+03  0.10555811954E+04  0.83299220232E+02 0.  0.
        254    2    1    2    0    0 -0.43141508545E+03 -0.74709393508E+03 -0.24805942355E+04  0.27804025187E+04  0.91270043344E+03 0.  0.
         23    2    4    4    0    0 -0.48321465478E+03 -0.14827621484E+02 -0.73211769848E+03  0.88210935858E+03  0.91675160845E+02 0.  0.
         23    2    4    4    0    0  0.51799569327E+02 -0.73226631359E+03 -0.17484765370E+04  0.18982931601E+04  0.86310902986E+02 0.  0.
         11    1    3    3    0    0  0.35133396070E+03  0.53555033471E+03 -0.44206724380E+03  0.77825006328E+03  0.00000000000E+00 0. -1.
        -11    1    3    3    0    0  0.80081124746E+02  0.21154360037E+03 -0.16046456142E+03  0.27733113217E+03  0.00000000000E+00 0.  1.
          2    1    5    5  502    0 -0.81931040581E+00 -0.94528412161E+01 -0.11382487940E+02  0.14818519100E+02  0.00000000000E+00 0. -1.
          3    1    6    6  503    0 -0.91585709755E+01 -0.53414647850E+02 -0.87673028753E+02  0.10307067477E+03  0.00000000000E+00 0. -1.
         -2    1    5    5    0  502 -0.48239534437E+03 -0.53747802682E+01 -0.72073521054E+03  0.86729083948E+03  0.00000000000E+00 0.  1.
         -3    1    6    6    0  503  0.60958140302E+02 -0.67885166574E+03 -0.16608035082E+04  0.17952224853E+04  0.00000000000E+00 0.  1.
<mgrwt>
<rscale>  0 0.22823464E+04</rscale>
<asrwt>0</asrwt>
<pdfrwt beam="1">  1        2 0.53223920E+00 0.22823464E+04</pdfrwt>
<pdfrwt beam="2">  1       -2 0.57912130E-01 0.22823464E+04</pdfrwt>
<totfact> 0.22039341E+00</totfact>
</mgrwt>
</event>
<event>
12    1  0.4672461E-008  0.1129128E+04  0.7818608E-02  0.9177258E-01
         -1   -1    0    0    0  501 -0.00000000000E+00  0.00000000000E+00  0.46329128653E+03  0.46329128653E+03  0.00000000000E+00 0.  1.
          1   -1    0    0  501    0  0.00000000000E+00 -0.00000000000E+00 -0.68797452979E+03  0.68797452979E+03  0.00000000000E+00 0. -1.
         23    2    1    2    0    0 -0.62456890059E+02 -0.16134095129E+03 -0.12616983025E+03  0.23360371141E+03  0.93381487687E+02 0.  0.
        254    2    1    2    0    0  0.62456890059E+02  0.16134095129E+03 -0.98513413019E+02  0.91766210491E+03  0.89580526933E+03 0.  0.
         23    2    4    4    0    0 -0.13132954858E+03  0.21642237703E+02 -0.45263340110E+03  0.48060547543E+03  0.91590340325E+02 0.  0.
         23    2    4    4    0    0  0.19378643864E+03  0.13969871359E+03  0.35411998808E+03  0.43705662948E+03  0.92458731508E+02 0.  0.
         13    1    3    3    0    0 -0.71751576113E+01  0.12212497367E+02 -0.59611248608E+01  0.15367595397E+02  0.00000000000E+00 0.  1.
        -13    1    3    3    0    0 -0.55281732448E+02 -0.17355344866E+03 -0.12020870539E+03  0.21823611602E+03  0.00000000000E+00 0. -1.
          3    1    5    5  502    0 -0.14412733840E+03  0.25018733255E+02 -0.43196962305E+03  0.45606620344E+03  0.00000000000E+00 0. -1.
          3    1    6    6  503    0  0.14207892950E+03  0.10887099274E+03  0.18445023212E+03  0.25702374092E+03  0.00000000000E+00 0. -1.
         -3    1    5    5    0  502  0.12797789815E+02 -0.33764955526E+01 -0.20663778053E+02  0.24539271990E+02  0.00000000000E+00 0.  1.
         -3    1    6    6    0  503  0.51707509146E+02  0.30827720845E+02  0.16966975596E+03  0.18003288856E+03  0.00000000000E+00 0.  1.
<mgrwt>
<rscale>  0 0.11291282E+04</rscale>
<asrwt>0</asrwt>
<pdfrwt beam="1">  1        1 0.10584224E+00 0.11291282E+04</pdfrwt>
<pdfrwt beam="2">  1       -1 0.71275582E-01 0.11291282E+04</pdfrwt>
<totfact> 0.55320536E+01</totfact>
</mgrwt>
</event>
<event>
12    1  0.4672461E-008  0.1463264E+04  0.7818608E-02  0.8909256E-01
          2   -1    0    0  501    0  0.00000000000E+00  0.00000000000E+00  0.11361402458E+04  0.11361402458E+04  0.00000000000E+00 0. -1.
         -2   -1    0    0    0  501 -0.00000000000E+00 -0.00000000000E+00 -0.47114371767E+03  0.47114371767E+03  0.00000000000E+00 0.  1.
         23    2    1    2    0    0 -0.32862388241E+03 -0.23674245773E+03  0.43471450591E+03  0.60110926190E+03  0.91186598286E+02 0.  0.
        254    2    1    2    0    0  0.32862388241E+03  0.23674245773E+03  0.23028202220E+03  0.10061747016E+04  0.89180551295E+03 0.  0.
         23    2    4    4    0    0 -0.18117475793E+02  0.15191727875E+03 -0.30620620019E+03  0.35455199483E+03  0.92400094646E+02 0.  0.
         23    2    4    4    0    0  0.34674135820E+03  0.84825178979E+02  0.53648822239E+03  0.65162270673E+03  0.96786665875E+02 0.  0.
         13    1    3    3    0    0  0.22239301829E+01  0.72784571845E+00 -0.26243006319E+01  0.35160458835E+01  0.00000000000E+00 0.  1.
        -13    1    3    3    0    0 -0.33084781259E+03 -0.23747030345E+03  0.43733880654E+03  0.59759321601E+03  0.00000000000E+00 0. -1.
          1    1    5    5  502    0  0.46731214608E+01  0.51408182689E+02 -0.20002829517E+03  0.20658160175E+03  0.00000000000E+00 0. -1.
          3    1    6    6  503    0  0.21665698517E+03  0.63815513155E+02  0.25388742519E+03  0.33981096747E+03  0.00000000000E+00 0. -1.
         -1    1    5    5    0  502 -0.22790597254E+02  0.10050909606E+03 -0.10617790502E+03  0.14797039308E+03  0.00000000000E+00 0.  1.
         -3    1    6    6    0  503  0.13008437303E+03  0.21009665824E+02  0.28260079720E+03  0.31181173926E+03  0.00000000000E+00 0.  1.
<mgrwt>
<rscale>  0 0.14632639E+04</rscale>
<asrwt>0</asrwt>
<pdfrwt beam="1">  1        2 0.17479081E+00 0.14632639E+04</pdfrwt>
<pdfrwt beam="2">  1       -2 0.72483649E-01 0.14632639E+04</pdfrwt>
<totfact> 0.34540194E+01</totfact>
</mgrwt>
</event>
<event>
12    1  0.4672461E-008  0.1779607E+04  0.7818608E-02  0.8717220E-01
          1   -1    0    0  501    0  0.00000000000E+00  0.00000000000E+00  0.16274990820E+04  0.16274990820E+04  0.00000000000E+00 0. -1.
         -1   -1    0    0    0  501 -0.00000000000E+00 -0.00000000000E+00 -0.48648294155E+03  0.48648294155E+03  0.00000000000E+00 0.  1.
         23    2    1    2    0    0 -0.48453356099E+03 -0.42879764025E+03  0.58130095440E+03  0.87480441551E+03  0.93443982169E+02 0.  0.
        254    2    1    2    0    0  0.48453356099E+03  0.42879764025E+03  0.55971518607E+03  0.12391776081E+04  0.89645962920E+03 0.  0.
         23    2    4    4    0    0  0.27185171099E+03  0.69190963841E+03  0.44234402998E+03  0.86983532558E+03  0.91120537093E+02 0.  0.
         23    2    4    4    0    0  0.21268185001E+03 -0.26311199817E+03  0.11737115608E+03  0.36934228247E+03  0.90422565978E+02 0.  0.
         11    1    3    3    0    0 -0.11279278707E+02 -0.34201414366E+02  0.19467163588E+02  0.40938115869E+02  0.00000000000E+00 0.  1.
        -11    1    3    3    0    0 -0.47325428229E+03 -0.39459622588E+03  0.56183379081E+03  0.83386629964E+03  0.00000000000E+00 0. -1.
          1    1    5    5  502    0  0.22926722693E+03  0.63741868658E+03  0.37987137086E+03  0.77663910650E+03  0.00000000000E+00 0. -1.
          3    1    6    6  503    0  0.16203430135E+03 -0.13596482190E+03  0.52804770135E+02  0.21801351187E+03  0.00000000000E+00 0. -1.
         -1    1    5    5    0  502  0.42584484055E+02  0.54490951829E+02  0.62472659120E+02  0.93196219081E+02  0.00000000000E+00 0.  1.
         -3    1    6    6    0  503  0.50647548660E+02 -0.12714717627E+03  0.64566385949E+02  0.15132877060E+03  0.00000000000E+00 0.  1.
<mgrwt>
<rscale>  0 0.17796073E+04</rscale>
<asrwt>0</asrwt>
<pdfrwt beam="1">  1        1 0.25038447E+00 0.17796073E+04</pdfrwt>
<pdfrwt beam="2">  1       -1 0.74843530E-01 0.17796073E+04</pdfrwt>
<totfact> 0.90682517E+00</totfact>
</mgrwt>
</event>
<event>
12    1  0.4672461E-008  0.1758584E+04  0.7818608E-02  0.8728640E-01
         -3   -1    0    0    0  501 -0.00000000000E+00  0.00000000000E+00  0.22631070858E+03  0.22631070858E+03  0.00000000000E+00 0. -1.
          3   -1    0    0  501    0  0.00000000000E+00 -0.00000000000E+00 -0.34163399489E+04  0.34163399489E+04  0.00000000000E+00 0.  1.
         23    2    1    2    0    0 -0.56772910456E+03  0.32678846292E+02 -0.60338172674E+03  0.83415489729E+03  0.91436542674E+02 0.  0.
        254    2    1    2    0    0  0.56772910456E+03 -0.32678846292E+02 -0.25866475136E+04  0.28084957602E+04  0.93462229394E+03 0.  0.
         23    2    4    4    0    0  0.42264451519E+03  0.36369176536E+03 -0.20113892427E+04  0.20891074633E+04  0.88222565174E+02 0.  0.
         23    2    4    4    0    0  0.14508458937E+03 -0.39637061165E+03 -0.57525827090E+03  0.71938829694E+03  0.91859913361E+02 0.  0.
         11    1    3    3    0    0 -0.56053687460E+03  0.25813864514E+02 -0.60369667575E+03  0.82420726744E+03  0.00000000000E+00 0. -1.
        -11    1    3    3    0    0 -0.71922299600E+01  0.68649817774E+01  0.31494901076E+00  0.99476298424E+01  0.00000000000E+00 0.  1.
          1    1    5    5  502    0  0.15326834472E+03  0.16473149305E+03 -0.94247892254E+03  0.96896551524E+03  0.00000000000E+00 0. -1.
          3    1    6    6  503    0  0.11787153036E+03 -0.18928526601E+03 -0.30542601031E+03  0.37816353258E+03  0.00000000000E+00 0. -1.
         -1    1    5    5    0  502  0.26937617047E+03  0.19896027231E+03 -0.10689103202E+04  0.11201419480E+04  0.00000000000E+00 0.  1.
         -3    1    6    6    0  503  0.27213059016E+02 -0.20708534564E+03 -0.26983226059E+03  0.34122476436E+03  0.00000000000E+00 0.  1.
<mgrwt>
<rscale>  0 0.17585839E+04</rscale>
<asrwt>0</asrwt>
<pdfrwt beam="1">  1        3 0.52559076E+00 0.17585839E+04</pdfrwt>
<pdfrwt beam="2">  1       -3 0.34817032E-01 0.17585839E+04</pdfrwt>
<totfact> 0.52450036E-02</totfact>
</mgrwt>
</event>
<event>
12    1  0.4672461E-008  0.1709500E+04  0.7818608E-02  0.8755965E-01
         -1   -1    0    0    0  501 -0.00000000000E+00  0.00000000000E+00  0.12140158840E+04  0.12140158840E+04  0.00000000000E+00 0.  1.
          1   -1    0    0  501    0  0.00000000000E+00 -0.00000000000E+00 -0.60180235965E+03  0.60180235965E+03  0.00000000000E+00 0. -1.
         23    2    1    2    0    0 -0.61756680630E+03  0.12993325310E+02  0.25716709957E+03  0.67473979938E+03  0.87070620874E+02 0.  0.
        254    2    1    2    0    0  0.61756680630E+03 -0.12993325310E+02  0.35504642478E+03  0.11410784443E+04  0.89131614228E+03 0.  0.
         23    2    4    4    0    0  0.59891463831E+03 -0.34660302271E+02  0.61521132723E+03  0.86426433762E+03  0.92562344406E+02 0.  0.
         23    2    4    4    0    0  0.18652167988E+02  0.21666976961E+02 -0.26016490245E+03  0.27681410665E+03  0.90127198524E+02 0.  0.
         11    1    3    3    0    0 -0.75940591989E+02  0.17632404739E+02  0.74956990232E+01  0.78320244588E+02  0.00000000000E+00 0. -1.
        -11    1    3    3    0    0 -0.54162621431E+03 -0.46390794284E+01  0.24967140054E+03  0.59641955479E+03  0.00000000000E+00 0.  1.
          1    1    5    5  502    0  0.29479386882E+03 -0.57140396502E+02  0.27213682992E+03  0.40524918779E+03  0.00000000000E+00 0. -1.
          3    1    6    6  503    0  0.14972634472E+02  0.39264026098E+02 -0.47618554153E+02  0.63508820081E+02  0.00000000000E+00 0. -1.
         -1    1    5    5    0  502  0.30412076949E+03  0.22480094230E+02  0.34307449731E+03  0.45901514983E+03  0.00000000000E+00 0.  1.
         -3    1    6    6    0  503  0.36795335159E+01 -0.17597049137E+02 -0.21254634829E+03  0.21330528657E+03  0.00000000000E+00 0.  1.
<mgrwt>
<rscale>  0 0.17095001E+04</rscale>
<asrwt>0</asrwt>
<pdfrwt beam="1">  1        1 0.92584978E-01 0.17095001E+04</pdfrwt>
<pdfrwt beam="2">  1       -1 0.18677167E+00 0.17095001E+04</pdfrwt>
<totfact> 0.60366743E+00</totfact>
</mgrwt>
</event>
<event>
12    1  0.4672461E-008  0.1677917E+04  0.7818608E-02  0.8774060E-01
         -2   -1    0    0    0  501 -0.00000000000E+00  0.00000000000E+00  0.23745376236E+03  0.23745376236E+03  0.00000000000E+00 0.  1.
          2   -1    0    0  501    0  0.00000000000E+00 -0.00000000000E+00 -0.29641611643E+04  0.29641611643E+04  0.00000000000E+00 0. -1.
         23    2    1    2    0    0  0.13332232193E+03 -0.57330721130E+03 -0.78505719380E+03  0.98554077139E+03  0.92302841112E+02 0.  0.
        254    2    1    2    0    0 -0.13332232193E+03  0.57330721130E+03 -0.19416502081E+04  0.22160741552E+04  0.89136026997E+03 0.  0.
         23    2    4    4    0    0  0.36777334353E+03  0.33169137970E+03 -0.86355218524E+03  0.99952020498E+03  0.89676418031E+02 0.  0.
         23    2    4    4    0    0 -0.50109566546E+03  0.24161583159E+03 -0.10780980229E+04  0.12165539503E+04  0.90736381841E+02 0.  0.
         13    1    3    3    0    0  0.63370206943E+02 -0.37863580495E+03 -0.44712387043E+03  0.58932216268E+03  0.00000000000E+00 0.  1.
        -13    1    3    3    0    0  0.69952114982E+02 -0.19467140634E+03 -0.33793332338E+03  0.39621860871E+03  0.00000000000E+00 0. -1.
          1    1    6    6  502    0 -0.10832010905E+03  0.45462139885E+02 -0.15610582376E+03  0.19536908763E+03  0.00000000000E+00 0. -1.
          1    1    5    5  503    0  0.44014392669E+02  0.54551552013E+02 -0.71716456953E+02  0.10028154759E+03  0.00000000000E+00 0. -1.
         -1    1    5    5    0  503  0.32375895086E+03  0.27713982769E+03 -0.79183572828E+03  0.89923865739E+03  0.00000000000E+00 0.  1.
         -1    1    6    6    0  502 -0.39277555641E+03  0.19615369171E+03 -0.92199219910E+03  0.10211848626E+04  0.00000000000E+00 0.  1.
<mgrwt>
<rscale>  0 0.16779168E+04</rscale>
<asrwt>0</asrwt>
<pdfrwt beam="1">  1        2 0.45602477E+00 0.16779168E+04</pdfrwt>
<pdfrwt beam="2">  1       -2 0.36531350E-01 0.16779168E+04</pdfrwt>
<totfact> 0.12388501E+01</totfact>
</mgrwt>
</event>
<event>
12    1  0.4672461E-008  0.1848426E+04  0.7818608E-02  0.8680963E-01
         -2   -1    0    0    0  501 -0.00000000000E+00  0.00000000000E+00  0.26459390498E+03  0.26459390498E+03  0.00000000000E+00 0.  1.
          2   -1    0    0  501    0  0.00000000000E+00 -0.00000000000E+00 -0.32282280499E+04  0.32282280499E+04  0.00000000000E+00 0. -1.
         23    2    1    2    0    0  0.54337911044E+03  0.24652834135E+03 -0.41930570026E+03  0.73505801079E+03  0.91956121098E+02 0.  0.
        254    2    1    2    0    0 -0.54337911044E+03 -0.24652834135E+03 -0.25443284446E+04  0.27577639441E+04  0.88069157839E+03 0.  0.
         23    2    4    4    0    0 -0.45640955721E+03 -0.52706858755E+03 -0.21186420960E+04  0.22324545007E+04  0.95382319589E+02 0.  0.
         23    2    4    4    0    0 -0.86969553235E+02  0.28054024621E+03 -0.42568634867E+03  0.52530944339E+03  0.92057650088E+02 0.  0.
         13    1    3    3    0    0  0.34768306812E+03  0.13900851398E+03 -0.21156953854E+03  0.43007970477E+03  0.00000000000E+00 0.  1.
        -13    1    3    3    0    0  0.19569604232E+03  0.10751982737E+03 -0.20773616173E+03  0.30497830603E+03  0.00000000000E+00 0. -1.
          1    1    5    5  502    0 -0.31329576703E+03 -0.37925403568E+03 -0.13530523307E+04  0.14397008269E+04  0.00000000000E+00 0. -1.
          3    1    6    6  503    0 -0.62377513292E+02  0.27358031058E+03 -0.37310028039E+03  0.46684147173E+03  0.00000000000E+00 0. -1.
         -1    1    5    5    0  502 -0.14311379018E+03 -0.14781455187E+03 -0.76558976526E+03  0.79275367382E+03  0.00000000000E+00 0.  1.
         -3    1    6    6    0  503 -0.24592039943E+02  0.69599356223E+01 -0.52586068283E+02  0.58467971659E+02  0.00000000000E+00 0.  1.
<mgrwt>
<rscale>  0 0.18484258E+04</rscale>
<asrwt>0</asrwt>
<pdfrwt beam="1">  1        2 0.49665048E+00 0.18484258E+04</pdfrwt>
<pdfrwt beam="2">  1       -2 0.40706754E-01 0.18484258E+04</pdfrwt>
<totfact> 0.67121399E+00</totfact>
</mgrwt>
</event>
<event>
12    1  0.4672461E-008  0.3171974E+04  0.7818608E-02  0.8196258E-01
         -2   -1    0    0    0  501 -0.00000000000E+00  0.00000000000E+00  0.56474760063E+03  0.56474760063E+03  0.00000000000E+00 0.  1.
          2   -1    0    0  501    0  0.00000000000E+00 -0.00000000000E+00 -0.44539442032E+04  0.44539442032E+04  0.00000000000E+00 0. -1.
         23    2    1    2    0    0 -0.12823240166E+03 -0.13022159887E+04 -0.77239100121E+03  0.15222429097E+04  0.91790998727E+02 0.  0.
        254    2    1    2    0    0  0.12823240166E+03  0.13022159887E+04 -0.31168056014E+04  0.34964488941E+04  0.89357018892E+03 0.  0.
         23    2    4    4    0    0  0.16229902716E+03  0.23198254339E+03 -0.13514084396E+03  0.32714271360E+03  0.92749300268E+02 0.  0.
         23    2    4    4    0    0 -0.34066625503E+02  0.10702334453E+04 -0.29816647574E+04  0.31693061805E+04  0.87274154090E+02 0.  0.
         13    1    3    3    0    0 -0.24937588924E+02 -0.21654169671E+03 -0.16945500591E+03  0.27609271773E+03  0.00000000000E+00 0. -1.
        -13    1    3    3    0    0 -0.10329481274E+03 -0.10856742920E+04 -0.60293599530E+03  0.12461501920E+04  0.00000000000E+00 0.  1.
          2    1    5    5  502    0  0.98959372575E+01 -0.67341227244E+01  0.25341384737E+01  0.12235188633E+02  0.00000000000E+00 0. -1.
          1    1    6    6  503    0 -0.32827147569E+02  0.67634032331E+03 -0.17630564038E+04  0.18886190027E+04  0.00000000000E+00 0. -1.
         -2    1    5    5    0  502  0.15240308991E+03  0.23871666612E+03 -0.13767498244E+03  0.31490752497E+03  0.00000000000E+00 0.  1.
         -1    1    6    6    0  503 -0.12394779344E+01  0.39389312197E+03 -0.12186083537E+04  0.12806871778E+04  0.00000000000E+00 0.  1.
<mgrwt>
<rscale>  0 0.31719737E+04</rscale>
<asrwt>0</asrwt>
<pdfrwt beam="1">  1        2 0.68522219E+00 0.31719737E+04</pdfrwt>
<pdfrwt beam="2">  1       -2 0.86884246E-01 0.31719737E+04</pdfrwt>
<totfact> 0.13162725E-01</totfact>
</mgrwt>
</event>
<event>
12    1  0.4672461E-008  0.1855288E+04  0.7818608E-02  0.8677438E-01
          2   -1    0    0  501    0  0.00000000000E+00  0.00000000000E+00  0.19014382095E+04  0.19014382095E+04  0.00000000000E+00 0. -1.
         -2   -1    0    0    0  501 -0.00000000000E+00 -0.00000000000E+00 -0.45256447763E+03  0.45256447763E+03  0.00000000000E+00 0.  1.
         23    2    1    2    0    0  0.25203124177E+03 -0.25422630735E+03  0.13390712571E+04  0.13879686656E+04  0.72072344549E+02 0.  0.
        254    2    1    2    0    0 -0.25203124177E+03  0.25422630735E+03  0.10980247479E+03  0.96603402158E+03  0.89051355139E+03 0.  0.
         23    2    4    4    0    0  0.14387757738E+03  0.46496276546E+03  0.76278862544E+00  0.49468057432E+03  0.88414694630E+02 0.  0.
         23    2    4    4    0    0 -0.39590881914E+03 -0.21073645812E+03  0.10903968616E+03  0.47135344726E+03  0.95555069087E+02 0.  0.
         13    1    3    3    0    0  0.17955655260E+03 -0.18535935697E+03  0.83080279615E+03  0.86996088009E+03  0.00000000000E+00 0.  1.
        -13    1    3    3    0    0  0.72474689165E+02 -0.68866950381E+02  0.50826846097E+03  0.51800778550E+03  0.00000000000E+00 0. -1.
          2    1    5    5  502    0  0.12946273325E+03  0.42357950886E+03 -0.25387311058E+02  0.44364931555E+03  0.00000000000E+00 0. -1.
          3    1    6    6  503    0 -0.29578120503E+03 -0.20154160059E+03  0.89196430518E+02  0.36886520741E+03  0.00000000000E+00 0. -1.
         -2    1    5    5    0  502  0.14414844135E+02  0.41383256604E+02  0.26150099684E+02  0.51031258774E+02  0.00000000000E+00 0.  1.
         -3    1    6    6    0  503 -0.10012761412E+03 -0.91948575237E+01  0.19843255642E+02  0.10248823985E+03  0.00000000000E+00 0.  1.
<mgrwt>
<rscale>  0 0.18552880E+04</rscale>
<asrwt>0</asrwt>
<pdfrwt beam="1">  1        2 0.29252895E+00 0.18552880E+04</pdfrwt>
<pdfrwt beam="2">  1       -2 0.69625305E-01 0.18552880E+04</pdfrwt>
<totfact> 0.13398023E+01</totfact>
</mgrwt>
</event>
<event>
12    1  0.4672461E-008  0.1524693E+04  0.7818608E-02  0.8868196E-01
          2   -1    0    0  501    0  0.00000000000E+00  0.00000000000E+00  0.33195134140E+04  0.33195134140E+04  0.00000000000E+00 0. -1.
         -2   -1    0    0    0  501 -0.00000000000E+00 -0.00000000000E+00 -0.17507760353E+03  0.17507760353E+03  0.00000000000E+00 0.  1.
         23    2    1    2    0    0 -0.87186143274E+02  0.14966558199E+03 -0.25501617099E+02  0.19809194723E+03  0.92676194747E+02 0.  0.
        254    2    1    2    0    0  0.87186143274E+02 -0.14966558199E+03  0.31699374275E+04  0.32964990703E+04  0.88791982504E+03 0.  0.
         23    2    4    4    0    0  0.18781792092E+03 -0.38784828067E+03  0.28134473871E+04  0.28476518842E+04  0.89068473704E+02 0.  0.
         23    2    4    4    0    0 -0.10063177765E+03  0.23818269869E+03  0.35649004039E+03  0.44884718608E+03  0.86723093371E+02 0.  0.
         11    1    3    3    0    0 -0.30024820140E+02 -0.58603152873E+01 -0.68395301132E+01  0.31346647219E+02  0.00000000000E+00 0. -1.
        -11    1    3    3    0    0 -0.57161323134E+02  0.15552589728E+03 -0.18662086986E+02  0.16674530001E+03  0.00000000000E+00 0.  1.
          1    1    5    5  502    0  0.79416439497E+02 -0.90322692394E+02  0.63211833616E+03  0.64345842953E+03  0.00000000000E+00 0. -1.
          1    1    6    6  503    0 -0.10529054812E+02  0.13601801670E+03  0.17298731884E+03  0.22030972367E+03  0.00000000000E+00 0.  1.
         -1    1    5    5    0  502  0.10840148142E+03 -0.29752558828E+03  0.21813290510E+04  0.22041934546E+04  0.00000000000E+00 0.  1.
         -1    1    6    6    0  503 -0.90102722836E+02  0.10216468198E+03  0.18350272155E+03  0.22853746241E+03  0.00000000000E+00 0. -1.
<mgrwt>
<rscale>  0 0.15246934E+04</rscale>
<asrwt>0</asrwt>
<pdfrwt beam="1">  1        2 0.51069433E+00 0.15246934E+04</pdfrwt>
<pdfrwt beam="2">  1       -2 0.26935018E-01 0.15246934E+04</pdfrwt>
<totfact> 0.13193919E+01</totfact>
</mgrwt>
</event>
<event>
12    1  0.4672461E-008  0.2944445E+04  0.7818608E-02  0.8259775E-01
         -1   -1    0    0    0  501 -0.00000000000E+00  0.00000000000E+00  0.21097105634E+04  0.21097105634E+04  0.00000000000E+00 0.  1.
          1   -1    0    0  501    0  0.00000000000E+00 -0.00000000000E+00 -0.10273630269E+04  0.10273630269E+04  0.00000000000E+00 0. -1.
         23    2    1    2    0    0 -0.34569326870E+03  0.27362665527E+03 -0.84912778833E+03  0.96102692171E+03  0.90439818901E+02 0.  0.
        254    2    1    2    0    0  0.34569326870E+03 -0.27362665527E+03  0.19314753248E+04  0.21760466687E+04  0.90011487676E+03 0.  0.
         23    2    4    4    0    0  0.46162421617E+03  0.19587561447E+03  0.96658056876E+03  0.10927601970E+04  0.91556970812E+02 0.  0.
         23    2    4    4    0    0 -0.11593094747E+03 -0.46950226974E+03  0.96489475606E+03  0.10832864717E+04  0.92818767515E+02 0.  0.
         11    1    3    3    0    0 -0.29352585023E+03  0.25766964840E+03 -0.69089698066E+03  0.79365591432E+03  0.00000000000E+00 0. -1.
        -11    1    3    3    0    0 -0.52167418469E+02  0.15957006877E+02 -0.15823080767E+03  0.16737100739E+03  0.00000000000E+00 0.  1.
          4    1    5    5  502    0  0.68664003370E+02  0.44318232763E+02  0.23240586008E+03  0.24635611402E+03  0.00000000000E+00 0. -1.
          3    1    6    6  503    0 -0.41505460107E+02 -0.15003803659E+03  0.22143130019E+03  0.27067681161E+03  0.00000000000E+00 0. -1.
         -4    1    5    5    0  502  0.39296021280E+03  0.15155738171E+03  0.73417470868E+03  0.84640408296E+03  0.00000000000E+00 0.  1.
         -3    1    6    6    0  503 -0.74425487365E+02 -0.31946423315E+03  0.74346345588E+03  0.81260966008E+03  0.00000000000E+00 0.  1.
<mgrwt>
<rscale>  0 0.29444447E+04</rscale>
<asrwt>0</asrwt>
<pdfrwt beam="1">  1        1 0.15805585E+00 0.29444447E+04</pdfrwt>
<pdfrwt beam="2">  1       -1 0.32457085E+00 0.29444447E+04</pdfrwt>
<totfact> 0.28142598E-01</totfact>
</mgrwt>
</event>
<event>
12    1  0.4672461E-008  0.1903123E+04  0.7818608E-02  0.8653303E-01
          2   -1    0    0  501    0  0.00000000000E+00  0.00000000000E+00  0.14614655770E+04  0.14614655770E+04  0.00000000000E+00 0. -1.
         -2   -1    0    0    0  501 -0.00000000000E+00 -0.00000000000E+00 -0.61956283253E+03  0.61956283253E+03  0.00000000000E+00 0.  1.
         23    2    1    2    0    0 -0.39836639900E+03  0.24392905891E+03  0.95108333414E+03  0.10634685961E+04  0.90602278377E+02 0.  0.
        254    2    1    2    0    0  0.39836639900E+03 -0.24392905891E+03 -0.10918058966E+03  0.10175598134E+04  0.89739088421E+03 0.  0.
         23    2    4    4    0    0  0.19893652578E+03 -0.34849193076E+01  0.37524427386E+03  0.43437797813E+03  0.91038875609E+02 0.  0.
         23    2    4    4    0    0  0.19942987322E+03 -0.24044413961E+03 -0.48442486352E+03  0.58318183527E+03  0.88588633531E+02 0.  0.
         11    1    3    3    0    0 -0.10000986475E+03  0.19771982721E+02  0.18123990720E+03  0.20794424327E+03  0.00000000000E+00 0.  1.
        -11    1    3    3    0    0 -0.29835653426E+03  0.22415707619E+03  0.76984342693E+03  0.85552435286E+03  0.00000000000E+00 0. -1.
          2    1    5    5  502    0  0.83821222608E+02  0.42689669010E+02  0.14470494440E+03  0.17259179046E+03  0.00000000000E+00 0. -1.
          2    1    6    6  503    0  0.54122953443E+00 -0.44642065825E+02 -0.83368921810E+02  0.94570524448E+02  0.00000000000E+00 0. -1.
         -2    1    5    5    0  502  0.11511530317E+03 -0.46174588318E+02  0.23053932946E+03  0.26178618768E+03  0.00000000000E+00 0.  1.
         -2    1    6    6    0  503  0.19888864369E+03 -0.19580207378E+03 -0.40105594171E+03  0.48861131082E+03  0.00000000000E+00 0.  1.
<mgrwt>
<rscale>  0 0.19031235E+04</rscale>
<asrwt>0</asrwt>
<pdfrwt beam="1">  1        2 0.22484086E+00 0.19031235E+04</pdfrwt>
<pdfrwt beam="2">  1       -2 0.95317359E-01 0.19031235E+04</pdfrwt>
<totfact> 0.11559152E+01</totfact>
</mgrwt>
</event>
<event>
12    1  0.4672461E-008  0.1680724E+04  0.7818608E-02  0.8772435E-01
         -2   -1    0    0    0  501 -0.00000000000E+00  0.00000000000E+00  0.47400912307E+03  0.47400912307E+03  0.00000000000E+00 0.  1.
          2   -1    0    0  501    0  0.00000000000E+00 -0.00000000000E+00 -0.14898622570E+04  0.14898622570E+04  0.00000000000E+00 0. -1.
         23    2    1    2    0    0  0.31209769008E+03 -0.18505091548E+02  0.28708381425E+03  0.43398096287E+03  0.90415447597E+02 0.  0.
        254    2    1    2    0    0 -0.31209769008E+03  0.18505091548E+02 -0.13029369481E+04  0.15298904172E+04  0.73835803721E+03 0.  0.
         23    2    4    4    0    0  0.15926216498E+03  0.12242886071E+03 -0.78950765368E+03  0.81970895827E+03  0.90813974275E+02 0.  0.
         23    2    4    4    0    0 -0.47135985506E+03 -0.10392376916E+03 -0.51342929447E+03  0.71018145890E+03  0.88135131378E+02 0.  0.
         13    1    3    3    0    0  0.31980183507E+02 -0.28350136514E+01 -0.64392215495E+00  0.32112054984E+02  0.00000000000E+00 0. -1.
        -13    1    3    3    0    0  0.28011750657E+03 -0.15670077897E+02  0.28772773641E+03  0.40186890789E+03  0.00000000000E+00 0.  1.
          2    1    5    5  502    0  0.16384121088E+03  0.10149102262E+03 -0.63151852592E+03  0.66027268506E+03  0.00000000000E+00 0. -1.
          1    1    6    6  503    0 -0.40433227936E+03 -0.65410632113E+02 -0.46154680743E+03  0.61708070653E+03  0.00000000000E+00 0. -1.
         -2    1    5    5    0  502 -0.45790459054E+01  0.20937838087E+02 -0.15798912776E+03  0.15943627321E+03  0.00000000000E+00 0.  1.
         -1    1    6    6    0  503 -0.67027575695E+02 -0.38513137048E+02 -0.51882487040E+02  0.93100752361E+02  0.00000000000E+00 0.  1.
<mgrwt>
<rscale>  0 0.16807240E+04</rscale>
<asrwt>0</asrwt>
<pdfrwt beam="1">  1        2 0.22920957E+00 0.16807240E+04</pdfrwt>
<pdfrwt beam="2">  1       -2 0.72924482E-01 0.16807240E+04</pdfrwt>
<totfact> 0.20826284E+01</totfact>
</mgrwt>
</event>
<event>
12    1  0.4672461E-008  0.1833124E+04  0.7818608E-02  0.8688880E-01
         -2   -1    0    0    0  501 -0.00000000000E+00  0.00000000000E+00  0.68602564451E+03  0.68602564451E+03  0.00000000000E+00 0.  1.
          2   -1    0    0  501    0  0.00000000000E+00 -0.00000000000E+00 -0.12245693074E+04  0.12245693074E+04  0.00000000000E+00 0. -1.
         23    2    1    2    0    0  0.46257190895E+03 -0.47287886949E+03  0.20985014576E+02  0.66833533799E+03  0.92976109872E+02 0.  0.
        254    2    1    2    0    0 -0.46257190895E+03  0.47287886949E+03 -0.55952867744E+03  0.12422596139E+04  0.89025244243E+03 0.  0.
         23    2    4    4    0    0 -0.57532824992E+03  0.37127240951E+03 -0.72386510815E+03  0.10005200535E+04  0.90630488190E+02 0.  0.
         23    2    4    4    0    0  0.11275634098E+03  0.10160645998E+03  0.16433643071E+03  0.24173956041E+03  0.91617069748E+02 0.  0.
         11    1    3    3    0    0  0.33357642458E+03 -0.37263902656E+03 -0.17726686250E+02  0.50044711065E+03  0.00000000000E+00 0. -1.
        -11    1    3    3    0    0  0.12899548437E+03 -0.10023984293E+03  0.38711700826E+02  0.16788822734E+03  0.00000000000E+00 0.  1.
          2    1    6    6  502    0  0.55407757683E+02  0.54429707962E+02  0.21239543683E+02  0.80521617819E+02  0.00000000000E+00 0. -1.
          2    1    5    5  503    0 -0.13814376903E+03  0.88781199135E+02 -0.12060978006E+03  0.20374621785E+03  0.00000000000E+00 0. -1.
         -2    1    5    5    0  503 -0.43718448089E+03  0.28249121038E+03 -0.60325532808E+03  0.79677383562E+03  0.00000000000E+00 0.  1.
         -2    1    6    6    0  502  0.57348583293E+02  0.47176752017E+02  0.14309688703E+03  0.16121794259E+03  0.00000000000E+00 0.  1.
<mgrwt>
<rscale>  0 0.18331241E+04</rscale>
<asrwt>0</asrwt>
<pdfrwt beam="1">  1        2 0.18839528E+00 0.18331241E+04</pdfrwt>
<pdfrwt beam="2">  1       -2 0.10554241E+00 0.18331241E+04</pdfrwt>
<totfact> 0.12520779E+01</totfact>
</mgrwt>
</event>
<event>
12    1  0.4672461E-008  0.1851158E+04  0.7818608E-02  0.8679557E-01
          1   -1    0    0  501    0  0.00000000000E+00  0.00000000000E+00  0.24346145030E+04  0.24346145030E+04  0.00000000000E+00 0. -1.
         -1   -1    0    0    0  501 -0.00000000000E+00 -0.00000000000E+00 -0.35188194499E+03  0.35188194499E+03  0.00000000000E+00 0.  1.
         23    2    1    2    0    0 -0.17554093746E+02  0.43732237656E+03 -0.37738429310E+02  0.44881006792E+03  0.91909089726E+02 0.  0.
        254    2    1    2    0    0  0.17554093746E+02 -0.43732237656E+03  0.21204709873E+04  0.23376863800E+04  0.88137471951E+03 0.  0.
         23    2    4    4    0    0 -0.26057994304E+03 -0.77370630132E+02  0.17160991152E+03  0.33434514578E+03  0.91916231697E+02 0.  0.
         23    2    4    4    0    0  0.27813403679E+03 -0.35995174643E+03  0.19488610758E+04  0.20033412343E+04  0.91612259223E+02 0.  0.
         13    1    3    3    0    0  0.42185282111E+00  0.21243828624E+02 -0.24087303867E+02  0.32119720141E+02  0.00000000000E+00 0. -1.
        -13    1    3    3    0    0 -0.17975946568E+02  0.41607854794E+03 -0.13651125444E+02  0.41669034778E+03  0.00000000000E+00 0.  1.
          2    1    5    5  502    0 -0.37737048041E+02  0.20561185950E+02  0.18538273226E+02  0.46802935129E+02  0.00000000000E+00 0. -1.
          4    1    6    6  503    0  0.74250524259E+02 -0.87896174063E+02  0.68286721162E+03  0.69249296493E+03  0.00000000000E+00 0. -1.
         -2    1    5    5    0  502 -0.22284289500E+03 -0.97931816083E+02  0.15307163830E+03  0.28754221065E+03  0.00000000000E+00 0.  1.
         -4    1    6    6    0  503  0.20388351253E+03 -0.27205557237E+03  0.12659938642E+04  0.13108482693E+04  0.00000000000E+00 0.  1.
<mgrwt>
<rscale>  0 0.18511584E+04</rscale>
<asrwt>0</asrwt>
<pdfrwt beam="1">  1        1 0.37455607E+00 0.18511584E+04</pdfrwt>
<pdfrwt beam="2">  1       -1 0.54135685E-01 0.18511584E+04</pdfrwt>
<totfact> 0.48707963E+00</totfact>
</mgrwt>
</event>
<event>
12    1  0.4672461E-008  0.1371072E+04  0.7818608E-02  0.8975029E-01
          2   -1    0    0  501    0  0.00000000000E+00  0.00000000000E+00  0.11338808669E+04  0.11338808669E+04  0.00000000000E+00 0. -1.
         -2   -1    0    0    0  501 -0.00000000000E+00 -0.00000000000E+00 -0.41446978429E+03  0.41446978429E+03  0.00000000000E+00 0.  1.
         23    2    1    2    0    0 -0.24422024940E+01  0.25511912957E+03 -0.95189560871E+02  0.28681496932E+03  0.90055757745E+02 0.  0.
        254    2    1    2    0    0  0.24422024940E+01 -0.25511912957E+03  0.81460064348E+03  0.12615356819E+04  0.92887369089E+03 0.  0.
         23    2    4    4    0    0 -0.23108573666E+03  0.22000105827E+03  0.63382547394E+02  0.33790666273E+03  0.91446607784E+02 0.  0.
         23    2    4    4    0    0  0.23352793915E+03 -0.47512018784E+03  0.75121809609E+03  0.92362901914E+03  0.92127334984E+02 0.  0.
         11    1    3    3    0    0 -0.39735094330E+02  0.19733323978E+03 -0.63347292076E+02  0.21102645487E+03  0.00000000000E+00 0.  1.
        -11    1    3    3    0    0  0.37292891836E+02  0.57785889793E+02 -0.31842268796E+02  0.75788514451E+02  0.00000000000E+00 0. -1.
          2    1    5    5  502    0 -0.75226755524E+02  0.58581084048E+02 -0.21957412375E+02  0.97841382416E+02  0.00000000000E+00 0. -1.
          1    1    6    6  503    0  0.13339621675E+03 -0.27290113171E+03  0.50772174074E+03  0.59165103258E+03  0.00000000000E+00 0. -1.
         -2    1    5    5    0  502 -0.15585898113E+03  0.16141997422E+03  0.85339959769E+02  0.24006528031E+03  0.00000000000E+00 0.  1.
         -1    1    6    6    0  503  0.10013172241E+03 -0.20221905613E+03  0.24349635535E+03  0.33197798656E+03  0.00000000000E+00 0.  1.
<mgrwt>
<rscale>  0 0.13710716E+04</rscale>
<asrwt>0</asrwt>
<pdfrwt beam="1">  1        2 0.17444321E+00 0.13710716E+04</pdfrwt>
<pdfrwt beam="2">  1       -2 0.63764583E-01 0.13710716E+04</pdfrwt>
<totfact> 0.46082375E+01</totfact>
</mgrwt>
</event>
<event>
12    1  0.4672461E-008  0.1498814E+04  0.7818608E-02  0.8885242E-01
          2   -1    0    0  501    0  0.00000000000E+00  0.00000000000E+00  0.16073185912E+04  0.16073185912E+04  0.00000000000E+00 0.  1.
         -2   -1    0    0    0  501 -0.00000000000E+00 -0.00000000000E+00 -0.34940853088E+03  0.34940853088E+03  0.00000000000E+00 0. -1.
         23    2    1    2    0    0 -0.25921964215E+03 -0.24673828099E+03 -0.57878297293E+01  0.36925210498E+03  0.90769024865E+02 0.  0.
        254    2    1    2    0    0  0.25921964215E+03  0.24673828099E+03  0.12636978901E+04  0.15874750171E+04  0.89166696160E+03 0.  0.
         23    2    4    4    0    0  0.23406341406E+03 -0.25758313338E+03  0.86938266647E+03  0.94055460581E+03  0.87646981429E+02 0.  0.
         23    2    4    4    0    0  0.25156228097E+02  0.50432141437E+03  0.39431522361E+03  0.64692041131E+03  0.89713979920E+02 0.  0.
         11    1    3    3    0    0 -0.13190572822E+03 -0.10645678997E+03  0.40418368385E+02  0.17425789443E+03  0.00000000000E+00 0.  1.
        -11    1    3    3    0    0 -0.12731391393E+03 -0.14028149102E+03 -0.46206198114E+02  0.19499421055E+03  0.00000000000E+00 0. -1.
          4    1    5    5  502    0  0.13220892539E+03 -0.15763930230E+03  0.61982501693E+03  0.65307916917E+03  0.00000000000E+00 0. -1.
          4    1    6    6  503    0  0.38201178066E+02  0.42150791291E+03  0.36248511820E+03  0.55724654469E+03  0.00000000000E+00 0. -1.
         -4    1    5    5    0  502  0.10185448866E+03 -0.99943831082E+02  0.24955764954E+03  0.28747543665E+03  0.00000000000E+00 0.  1.
         -4    1    6    6    0  503 -0.13044949969E+02  0.82813501461E+02  0.31830105403E+02  0.89673866617E+02  0.00000000000E+00 0.  1.
<mgrwt>
<rscale>  0 0.14988140E+04</rscale>
<asrwt>0</asrwt>
<pdfrwt beam="1">  1        2 0.24727978E+00 0.14988140E+04</pdfrwt>
<pdfrwt beam="2">  1       -2 0.53755159E-01 0.14988140E+04</pdfrwt>
<totfact> 0.34797739E+01</totfact>
</mgrwt>
</event>
<event>
12    1  0.4672461E-008  0.1691872E+04  0.7818608E-02  0.8766014E-01
         -1   -1    0    0    0  501 -0.00000000000E+00  0.00000000000E+00  0.60274357668E+03  0.60274357668E+03  0.00000000000E+00 0.  1.
          1   -1    0    0  501    0  0.00000000000E+00 -0.00000000000E+00 -0.11872507617E+04  0.11872507617E+04  0.00000000000E+00 0. -1.
         23    2    1    2    0    0 -0.31874959162E+03 -0.33917409643E+03 -0.61417990288E+03  0.77610905224E+03  0.92130006058E+02 0.  0.
        254    2    1    2    0    0  0.31874959162E+03  0.33917409643E+03  0.29672717859E+02  0.10138852861E+04  0.90024581832E+03 0.  0.
         23    2    4    4    0    0 -0.12054461935E+03 -0.93724239767E+02  0.28865413929E+03  0.33897608892E+03  0.90930403907E+02 0.  0.
         23    2    4    4    0    0  0.43929421098E+03  0.43289833620E+03 -0.25898142143E+03  0.67490919721E+03  0.89725551286E+02 0.  0.
         13    1    3    3    0    0 -0.23933009772E+03 -0.30569851276E+03 -0.49820249165E+03  0.63161396364E+03  0.00000000000E+00 0. -1.
        -13    1    3    3    0    0 -0.79419493900E+02 -0.33475583672E+02 -0.11597741123E+03  0.14449508860E+03  0.00000000000E+00 0.  1.
          2    1    5    5  502    0 -0.88630824041E+02 -0.10172840375E+03  0.17691018466E+03  0.22248888632E+03  0.00000000000E+00 0. -1.
          4    1    6    6  503    0  0.37484421562E+03  0.31914051195E+03 -0.21148532514E+03  0.53580303760E+03  0.00000000000E+00 0. -1.
         -2    1    5    5    0  502 -0.31913795312E+02  0.80041639868E+01  0.11174395463E+03  0.11648720260E+03  0.00000000000E+00 0.  1.
         -4    1    6    6    0  503  0.64449995352E+02  0.11375782424E+03 -0.47496096299E+02  0.13910615961E+03  0.00000000000E+00 0.  1.
<mgrwt>
<rscale>  0 0.16918721E+04</rscale>
<asrwt>0</asrwt>
<pdfrwt beam="1">  1        1 0.18265396E+00 0.16918721E+04</pdfrwt>
<pdfrwt beam="2">  1       -1 0.92729781E-01 0.16918721E+04</pdfrwt>
<totfact> 0.11753988E+01</totfact>
</mgrwt>
</event>
<event>
12    1  0.4672461E-008  0.1669802E+04  0.7818608E-02  0.8778777E-01
         -1   -1    0    0    0  501 -0.00000000000E+00  0.00000000000E+00  0.37603077345E+03  0.37603077345E+03  0.00000000000E+00 0.  1.
          1   -1    0    0  501    0  0.00000000000E+00 -0.00000000000E+00 -0.18537314585E+04  0.18537314585E+04  0.00000000000E+00 0. -1.
         23    2    1    2    0    0  0.23212014622E+03  0.52830030009E+03 -0.38362864862E+03  0.69966452458E+03  0.96842849814E+02 0.  0.
        254    2    1    2    0    0 -0.23212014622E+03 -0.52830030009E+03 -0.10940720364E+04  0.15300977074E+04  0.90067996748E+03 0.  0.
         23    2    4    4    0    0 -0.40183470785E+03 -0.48571444359E+03 -0.28561734940E+03  0.69811370276E+03  0.91628699448E+02 0.  0.
         23    2    4    4    0    0  0.16971456164E+03 -0.42585856505E+02 -0.80845468702E+03  0.83198400460E+03  0.89341005861E+02 0.  0.
         13    1    3    3    0    0  0.34951223899E+02  0.29148963309E+02 -0.50576891495E+02  0.68038754157E+02  0.00000000000E+00 0. -1.
        -13    1    3    3    0    0  0.19716892232E+03  0.49915133678E+03 -0.33305175712E+03  0.63162577042E+03  0.00000000000E+00 0.  1.
          3    1    5    5  502    0 -0.34125286677E+03 -0.45542914257E+03 -0.26040213888E+03  0.62584223005E+03  0.00000000000E+00 0. -1.
          3    1    6    6  503    0  0.11385782361E+03  0.13016478383E+02 -0.40489978866E+03  0.42080502797E+03  0.00000000000E+00 0. -1.
         -3    1    5    5    0  502 -0.60581841083E+02 -0.30285301021E+02 -0.25215210523E+02  0.72271472717E+02  0.00000000000E+00 0.  1.
         -3    1    6    6    0  503  0.55856738029E+02 -0.55602334887E+02 -0.40355489836E+03  0.41117897663E+03  0.00000000000E+00 0.  1.
<mgrwt>
<rscale>  0 0.16698025E+04</rscale>
<asrwt>0</asrwt>
<pdfrwt beam="1">  1        1 0.28518944E+00 0.16698025E+04</pdfrwt>
<pdfrwt beam="2">  1       -1 0.57850891E-01 0.16698025E+04</pdfrwt>
<totfact> 0.10816921E+01</totfact>
</mgrwt>
</event>
<event>
12    1  0.4672461E-008  0.1455706E+04  0.7818608E-02  0.8914454E-01
          2   -1    0    0  501    0  0.00000000000E+00  0.00000000000E+00  0.12335335355E+04  0.12335335355E+04  0.00000000000E+00 0.  1.
         -2   -1    0    0    0  501 -0.00000000000E+00 -0.00000000000E+00 -0.42947371139E+03  0.42947371139E+03  0.00000000000E+00 0. -1.
         23    2    1    2    0    0  0.24010846822E+03  0.34817316861E+03  0.98550128487E+02  0.44417706585E+03  0.93297942889E+02 0.  0.
        254    2    1    2    0    0 -0.24010846822E+03 -0.34817316861E+03  0.70550969558E+03  0.12188301810E+04  0.89940338431E+03 0.  0.
         23    2    4    4    0    0  0.33491035728E+03 -0.12608944760E+03  0.28875588028E+03  0.46910142950E+03  0.92804614961E+02 0.  0.
         23    2    4    4    0    0 -0.57501882549E+03 -0.22208372101E+03  0.41675381530E+03  0.74972875150E+03  0.91878340467E+02 0.  0.
         13    1    3    3    0    0  0.18566869533E+03  0.23950889070E+03  0.29717302728E+02  0.30450039611E+03  0.00000000000E+00 0. -1.
        -13    1    3    3    0    0  0.54439772884E+02  0.10866427792E+03  0.68832825759E+02  0.13967666974E+03  0.00000000000E+00 0.  1.
          3    1    6    6  502    0 -0.22412488525E+03 -0.11498664529E+03  0.12625696977E+03  0.28177067839E+03  0.00000000000E+00 0. -1.
          3    1    5    5  503    0  0.19798838512E+03 -0.46911484009E+02  0.21002827585E+03  0.29242428871E+03  0.00000000000E+00 0. -1.
         -3    1    5    5    0  503  0.13692197216E+03 -0.79177963593E+02  0.78727604434E+02  0.17667714079E+03  0.00000000000E+00 0.  1.
         -3    1    6    6    0  502 -0.35089394024E+03 -0.10709707573E+03  0.29049684553E+03  0.46795807311E+03  0.00000000000E+00 0.  1.
<mgrwt>
<rscale>  0 0.14557063E+04</rscale>
<asrwt>0</asrwt>
<pdfrwt beam="1">  1        2 0.18977439E+00 0.14557063E+04</pdfrwt>
<pdfrwt beam="2">  1       -2 0.66072879E-01 0.14557063E+04</pdfrwt>
<totfact> 0.36955353E+01</totfact>
</mgrwt>
</event>
<event>
12    1  0.4672461E-008  0.1115207E+04  0.7818608E-02  0.9190496E-01
         -1   -1    0    0    0  501 -0.00000000000E+00  0.00000000000E+00  0.46816895469E+03  0.46816895469E+03  0.00000000000E+00 0.  1.
          1   -1    0    0  501    0  0.00000000000E+00 -0.00000000000E+00 -0.66412242294E+03  0.66412242294E+03  0.00000000000E+00 0. -1.
         23    2    1    2    0    0  0.16335363760E+03 -0.56059120842E+02 -0.90992598266E+02  0.21494312920E+03  0.89965881900E+02 0.  0.
        254    2    1    2    0    0 -0.16335363760E+03  0.56059120842E+02 -0.10496086998E+03  0.91734824843E+03  0.89480947063E+03 0.  0.
         23    2    4    4    0    0  0.34834355992E+02  0.29546395964E+03 -0.38187256656E+03  0.49241773634E+03  0.90200810226E+02 0.  0.
         23    2    4    4    0    0 -0.19818799359E+03 -0.23940483879E+03  0.27691169658E+03  0.42493051209E+03  0.85397276090E+02 0.  0.
         11    1    3    3    0    0  0.12100662521E+03  0.39420489214E+01 -0.61588825746E+02  0.13583566009E+03  0.00000000000E+00 0. -1.
        -11    1    3    3    0    0  0.42347012381E+02 -0.60001169764E+02 -0.29403772520E+02  0.79107469110E+02  0.00000000000E+00 0.  1.
          2    1    5    5  502    0  0.13292230543E-01  0.18336417372E+02  0.11505656362E+01  0.18372484318E+02  0.00000000000E+00 0. -1.
          3    1    6    6  503    0  0.20627337980E+01  0.55257988985E+01  0.41733942708E+01  0.72254096028E+01  0.00000000000E+00 0. -1.
         -2    1    5    5    0  502  0.34821063761E+02  0.27712754226E+03 -0.38302313220E+03  0.47404525202E+03  0.00000000000E+00 0.  1.
         -3    1    6    6    0  503 -0.20025072739E+03 -0.24493063769E+03  0.27273830231E+03  0.41770510249E+03  0.00000000000E+00 0.  1.
<mgrwt>
<rscale>  0 0.11152067E+04</rscale>
<asrwt>0</asrwt>
<pdfrwt beam="1">  1        1 0.10217268E+00 0.11152067E+04</pdfrwt>
<pdfrwt beam="2">  1       -1 0.72025993E-01 0.11152067E+04</pdfrwt>
<totfact> 0.57140959E+01</totfact>
</mgrwt>
</event>
<event>
12    1  0.6535526E-008  0.1420674E+04  0.7818608E-02  0.8938988E-01
          1   -1    0    0  501    0  0.00000000000E+00  0.00000000000E+00  0.61128051836E+03  0.61128051836E+03  0.00000000000E+00 0. -1.
         -1   -1    0    0    0  501 -0.00000000000E+00 -0.00000000000E+00 -0.82544496514E+03  0.82544496514E+03  0.00000000000E+00 0.  1.
         23    2    1    2    0    0 -0.24186074013E+03 -0.44947912187E+01 -0.41028707096E+03  0.48487230080E+03  0.90823161797E+02 0.  0.
        254    2    1    2    0    0  0.24186074013E+03  0.44947912187E+01  0.19612262419E+03  0.95185318270E+03  0.89946849691E+03 0.  0.
         23    2    4    4    0    0  0.30672093113E+03 -0.32455164242E+03  0.34745739468E+03  0.57288931829E+03  0.89799953828E+02 0.  0.
         23    2    4    4    0    0 -0.64860191004E+02  0.32904643363E+03 -0.15133477049E+03  0.37896386441E+03  0.90735868888E+02 0.  0.
         11    1    3    3    0    0 -0.18466559064E+03  0.38635590967E+01 -0.22680627197E+03  0.29250195292E+03  0.00000000000E+00 0. -1.
        -11    1    3    3    0    0 -0.57195149487E+02 -0.83583503153E+01 -0.18348079899E+03  0.19237034788E+03  0.00000000000E+00 0.  1.
          1    1    5    5  502    0  0.30654752598E+03 -0.29435503729E+03  0.32945634220E+03  0.53773390732E+03  0.00000000000E+00 0. -1.
          3    1    6    6  503    0 -0.63431085074E+02  0.30668204877E+03 -0.16369168925E+03  0.35337282114E+03  0.00000000000E+00 0. -1.
         -1    1    5    5    0  502  0.17340515125E+00 -0.30196605125E+02  0.18001052475E+02  0.35155410972E+02  0.00000000000E+00 0.  1.
         -3    1    6    6    0  503 -0.14291059299E+01  0.22364384864E+02  0.12356918763E+02  0.25591043266E+02  0.00000000000E+00 0.  1.
<mgrwt>
<rscale>  0 0.14206737E+04</rscale>
<asrwt>0</asrwt>
<pdfrwt beam="1">  1        1 0.94043157E-01 0.14206737E+04</pdfrwt>
<pdfrwt beam="2">  1       -1 0.12699153E+00 0.14206737E+04</pdfrwt>
<totfact> 0.17461830E+01</totfact>
</mgrwt>
</event>
<event>
12    1  0.4672461E-008  0.2333756E+04  0.7818608E-02  0.8464729E-01
         -2   -1    0    0    0  501 -0.00000000000E+00  0.00000000000E+00  0.31029655535E+04  0.31029655535E+04  0.00000000000E+00 0.  1.
          2   -1    0    0  501    0  0.00000000000E+00 -0.00000000000E+00 -0.43880751994E+03  0.43880751994E+03  0.00000000000E+00 0. -1.
         23    2    1    2    0    0  0.57309005298E+03  0.16305731029E+03  0.23508955475E+04  0.24269622431E+04  0.91738536423E+02 0.  0.
        254    2    1    2    0    0 -0.57309005298E+03 -0.16305731029E+03  0.31326248610E+03  0.11148108304E+04  0.88862247722E+03 0.  0.
         23    2    4    4    0    0 -0.57559253029E+03 -0.47053064675E+03  0.22230204252E+03  0.78111270356E+03  0.89515401437E+02 0.  0.
         23    2    4    4    0    0  0.25024773161E+01  0.30747333646E+03  0.90960443581E+02  0.33369812679E+03  0.92382479425E+02 0.  0.
         11    1    3    3    0    0  0.59009710513E+02 -0.74177873805E-01  0.33536294848E+03  0.34051499035E+03  0.00000000000E+00 0. -1.
        -11    1    3    3    0    0  0.51408034246E+03  0.16313148817E+03  0.20155325990E+04  0.20864472528E+04  0.00000000000E+00 0.  1.
          1    1    5    5  502    0 -0.87553474344E+02 -0.36966030162E+02  0.41686498337E+02  0.10377794756E+03  0.00000000000E+00 0. -1.
          1    1    6    6  503    0  0.17966471277E+02  0.12294874055E+02 -0.60619318777E+01  0.22598783955E+02  0.00000000000E+00 0. -1.
         -1    1    5    5    0  502 -0.48803905595E+03 -0.43356461659E+03  0.18061554418E+03  0.67733475600E+03  0.00000000000E+00 0.  1.
         -1    1    6    6    0  503 -0.15463993961E+02  0.29517846240E+03  0.97022375458E+02  0.31109934284E+03  0.00000000000E+00 0.  1.
<mgrwt>
<rscale>  0 0.23337563E+04</rscale>
<asrwt>0</asrwt>
<pdfrwt beam="1">  1        2 0.67508851E-01 0.23337563E+04</pdfrwt>
<pdfrwt beam="2">  1       -2 0.47737930E+00 0.23337563E+04</pdfrwt>
<totfact> 0.14829365E-01</totfact>
</mgrwt>
</event>
<event>
12    1  0.4672461E-008  0.1890111E+04  0.7818608E-02  0.8659794E-01
          1   -1    0    0  501    0  0.00000000000E+00  0.00000000000E+00  0.11108929385E+04  0.11108929385E+04  0.00000000000E+00 0. -1.
         -1   -1    0    0    0  501 -0.00000000000E+00 -0.00000000000E+00 -0.80397476155E+03  0.80397476155E+03  0.00000000000E+00 0.  1.
         23    2    1    2    0    0  0.51094766505E+03 -0.26143967219E+03 -0.34044882611E+03  0.67374591052E+03  0.92789709186E+02 0.  0.
        254    2    1    2    0    0 -0.51094766505E+03  0.26143967219E+03  0.64736700303E+03  0.12411217895E+04  0.88987698090E+03 0.  0.
         23    2    4    4    0    0 -0.46893352416E+03  0.55926598310E+03  0.52824736756E+03  0.90547504382E+03  0.90347571767E+02 0.  0.
         23    2    4    4    0    0 -0.42014140886E+02 -0.29782631091E+03  0.11911963548E+03  0.33564674567E+03  0.89462566596E+02 0.  0.
         11    1    3    3    0    0  0.13748995544E+03 -0.11664574272E+03 -0.11939555571E+03  0.21625220430E+03  0.00000000000E+00 0. -1.
        -11    1    3    3    0    0  0.37345770961E+03 -0.14479392947E+03 -0.22105327040E+03  0.45749370622E+03  0.00000000000E+00 0.  1.
          4    1    5    5  502    0 -0.34349767114E+03  0.37093354601E+03  0.40523922512E+03  0.64792065503E+03  0.00000000000E+00 0. -1.
          3    1    6    6  503    0 -0.50004430159E+01 -0.84423319955E+02 -0.72604477292E+01  0.84882362619E+02  0.00000000000E+00 0. -1.
         -4    1    5    5    0  502 -0.12543585302E+03  0.18833243709E+03  0.12300814244E+03  0.25755438880E+03  0.00000000000E+00 0.  1.
         -3    1    6    6    0  503 -0.37013697870E+02 -0.21340299095E+03  0.12638008321E+03  0.25076438305E+03  0.00000000000E+00 0.  1.
<mgrwt>
<rscale>  0 0.18901110E+04</rscale>
<asrwt>0</asrwt>
<pdfrwt beam="1">  1        1 0.17090661E+00 0.18901110E+04</pdfrwt>
<pdfrwt beam="2">  1       -1 0.12368842E+00 0.18901110E+04</pdfrwt>
<totfact> 0.66940508E+00</totfact>
</mgrwt>
</event>
<event>
12    1  0.4672461E-008  0.3208133E+04  0.7818608E-02  0.8186673E-01
          2   -1    0    0  501    0  0.00000000000E+00  0.00000000000E+00  0.20337701864E+04  0.20337701864E+04  0.00000000000E+00 0. -1.
         -2   -1    0    0    0  501 -0.00000000000E+00 -0.00000000000E+00 -0.12651522433E+04  0.12651522433E+04  0.00000000000E+00 0.  1.
         23    2    1    2    0    0  0.16380320426E+03 -0.95715054870E+02 -0.11517086074E+04  0.11707237047E+04  0.90379282960E+02 0.  0.
        254    2    1    2    0    0 -0.16380320426E+03  0.95715054870E+02  0.19203265505E+04  0.21281987251E+04  0.89754269616E+03 0.  0.
         23    2    4    4    0    0  0.29051685089E+03 -0.20349734626E+03  0.74252392628E+03  0.82782017418E+03  0.90184527978E+02 0.  0.
         23    2    4    4    0    0 -0.45432005515E+03  0.29921240113E+03  0.11778026242E+04  0.13003785509E+04  0.88490567547E+02 0.  0.
         11    1    3    3    0    0 -0.99957119590E+00  0.10065304319E+02 -0.13161798241E+03  0.13200607103E+03  0.00000000000E+00 0. -1.
        -11    1    3    3    0    0  0.16480277546E+03 -0.10578035919E+03 -0.10200906250E+04  0.10387176336E+04  0.00000000000E+00 0.  1.
          1    1    5    5  502    0  0.26473570714E+03 -0.16965029782E+03  0.57918543800E+03  0.65903109925E+03  0.00000000000E+00 0. -1.
          3    1    6    6  503    0 -0.40741713127E+03  0.28594242050E+03  0.11135254694E+04  0.12197092923E+04  0.00000000000E+00 0. -1.
         -1    1    5    5    0  502  0.25781143755E+02 -0.33847048431E+02  0.16333848828E+03  0.16878907493E+03  0.00000000000E+00 0.  1.
         -3    1    6    6    0  503 -0.46902923879E+02  0.13269980631E+02  0.64277154804E+02  0.80669258606E+02  0.00000000000E+00 0.  1.
<mgrwt>
<rscale>  0 0.32081327E+04</rscale>
<asrwt>0</asrwt>
<pdfrwt beam="1">  1        2 0.31288772E+00 0.32081327E+04</pdfrwt>
<pdfrwt beam="2">  1       -2 0.19463881E+00 0.32081327E+04</pdfrwt>
<totfact> 0.77703246E-01</totfact>
</mgrwt>
</event>
<event>
12    1  0.4672461E-008  0.1633243E+04  0.7818608E-02  0.8800382E-01
          1   -1    0    0  501    0  0.00000000000E+00  0.00000000000E+00  0.12617733021E+04  0.12617733021E+04  0.00000000000E+00 0. -1.
         -1   -1    0    0    0  501 -0.00000000000E+00 -0.00000000000E+00 -0.52851841787E+03  0.52851841787E+03  0.00000000000E+00 0.  1.
         23    2    1    2    0    0 -0.29356571047E+03  0.41610854365E+03 -0.60380034842E+01  0.51745506001E+03  0.91630427123E+02 0.  0.
        254    2    1    2    0    0  0.29356571047E+03 -0.41610854365E+03  0.73929288768E+03  0.12728366599E+04  0.90234807175E+03 0.  0.
         23    2    4    4    0    0 -0.59989376643E+02 -0.34026736797E+03  0.81761138489E+03  0.89240193445E+03  0.92261741233E+02 0.  0.
         23    2    4    4    0    0  0.35355508711E+03 -0.75841175686E+02 -0.78318497212E+02  0.38043472547E+03  0.88564720859E+02 0.  0.
         13    1    3    3    0    0  0.15819839245E+01  0.35297245929E+01  0.91640032716E+01  0.99468881968E+01  0.00000000000E+00 0. -1.
        -13    1    3    3    0    0 -0.29514769440E+03  0.41257881906E+03 -0.15202006756E+02  0.50750817181E+03  0.00000000000E+00 0.  1.
          1    1    5    5  502    0 -0.81717498787E+02 -0.24980739388E+03  0.64080938445E+03  0.69261688605E+03  0.00000000000E+00 0. -1.
          3    1    6    6  503    0  0.12465659081E+03 -0.58266770471E+02  0.82194014750E+00  0.13760435226E+03  0.00000000000E+00 0. -1.
         -1    1    5    5    0  502  0.21728122144E+02 -0.90459974093E+02  0.17680200044E+03  0.19978504840E+03  0.00000000000E+00 0.  1.
         -3    1    6    6    0  503  0.22889849630E+03 -0.17574405215E+02 -0.79140437359E+02  0.24283037321E+03  0.00000000000E+00 0.  1.
<mgrwt>
<rscale>  0 0.16332427E+04</rscale>
<asrwt>0</asrwt>
<pdfrwt beam="1">  1        1 0.19411897E+00 0.16332427E+04</pdfrwt>
<pdfrwt beam="2">  1       -1 0.81310526E-01 0.16332427E+04</pdfrwt>
<totfact> 0.13893548E+01</totfact>
</mgrwt>
</event>
<event>
12    1  0.4672461E-008  0.1284407E+04  0.7818608E-02  0.9042023E-01
          2   -1    0    0  501    0  0.00000000000E+00  0.00000000000E+00  0.77438378418E+03  0.77438378418E+03  0.00000000000E+00 0. -1.
         -2   -1    0    0    0  501 -0.00000000000E+00 -0.00000000000E+00 -0.53258543498E+03  0.53258543498E+03  0.00000000000E+00 0.  1.
         23    2    1    2    0    0  0.11738670403E+03 -0.43261076848E+02 -0.23663962157E+03  0.28337841449E+03  0.93026105207E+02 0.  0.
        254    2    1    2    0    0 -0.11738670403E+03  0.43261076848E+02  0.47843797078E+03  0.10235908047E+04  0.89620538074E+03 0.  0.
         23    2    4    4    0    0 -0.10374174085E+03  0.18403246006E+03 -0.21190040949E+03  0.31292119846E+03  0.91583829133E+02 0.  0.
         23    2    4    4    0    0 -0.13644963177E+02 -0.14077138321E+03  0.69033838026E+03  0.71066960621E+03  0.92094747804E+02 0.  0.
         11    1    3    3    0    0  0.39450650539E+02 -0.51599229286E+02 -0.53423837294E+02  0.84100776941E+02  0.00000000000E+00 0. -1.
        -11    1    3    3    0    0  0.77936053487E+02  0.83381524381E+01 -0.18321578428E+03  0.19927763755E+03  0.00000000000E+00 0.  1.
          2    1    5    5  502    0 -0.70911682520E+02  0.41407896409E+02 -0.95296158822E+02  0.12579522443E+03  0.00000000000E+00 0. -1.
          4    1    6    6  503    0 -0.29574882599E+02 -0.10739556820E+02  0.71501852099E+02  0.78118670079E+02  0.00000000000E+00 0. -1.
         -2    1    5    5    0  502 -0.32830058328E+02  0.14262456365E+03 -0.11660425066E+03  0.18712597403E+03  0.00000000000E+00 0.  1.
         -4    1    6    6    0  503  0.15929919421E+02 -0.13003182639E+03  0.61883652816E+03  0.63255093613E+03  0.00000000000E+00 0.  1.
<mgrwt>
<rscale>  0 0.12844073E+04</rscale>
<asrwt>0</asrwt>
<pdfrwt beam="1">  1        2 0.11913597E+00 0.12844073E+04</pdfrwt>
<pdfrwt beam="2">  1       -2 0.81936220E-01 0.12844073E+04</pdfrwt>
<totfact> 0.46235335E+01</totfact>
</mgrwt>
</event>
<event>
12    1  0.4672461E-008  0.2025460E+04  0.7818608E-02  0.8594809E-01
         -1   -1    0    0    0  501 -0.00000000000E+00  0.00000000000E+00  0.45655374276E+03  0.45655374276E+03  0.00000000000E+00 0.  1.
          1   -1    0    0  501    0  0.00000000000E+00 -0.00000000000E+00 -0.22464432895E+04  0.22464432895E+04  0.00000000000E+00 0. -1.
         23    2    1    2    0    0 -0.12842184405E+03  0.80095190994E+03 -0.55469878388E+03  0.98679909523E+03  0.89808582196E+02 0.  0.
        254    2    1    2    0    0  0.12842184405E+03 -0.80095190994E+03 -0.12351907628E+04  0.17161979370E+04  0.87271015026E+03 0.  0.
         23    2    4    4    0    0  0.46395491519E+03 -0.51544390437E+03 -0.51890218888E+03  0.87099239144E+03  0.91824193074E+02 0.  0.
         23    2    4    4    0    0 -0.33553307114E+03 -0.28550800556E+03 -0.71628857395E+03  0.84520554557E+03  0.84887160576E+02 0.  0.
         11    1    3    3    0    0  0.51880371393E+01  0.52229993702E+02 -0.59012487531E+02  0.78976969149E+02  0.00000000000E+00 0.  1.
        -11    1    3    3    0    0 -0.13360988119E+03  0.74872191624E+03 -0.49568629635E+03  0.90782212608E+03  0.00000000000E+00 0. -1.
          4    1    5    5  502    0  0.35605652813E+03 -0.44241985948E+03 -0.44262345225E+03  0.72001882181E+03  0.00000000000E+00 0. -1.
          3    1    6    6  503    0 -0.30511895505E+03 -0.26265500595E+03 -0.69032952216E+03  0.79914959679E+03  0.00000000000E+00 0. -1.
         -4    1    5    5    0  502  0.10789838706E+03 -0.73024044897E+02 -0.76278736629E+02  0.15097356963E+03  0.00000000000E+00 0.  1.
         -3    1    6    6    0  503 -0.30414116084E+02 -0.22852999610E+02 -0.25959051783E+02  0.46055948777E+02  0.00000000000E+00 0.  1.
<mgrwt>
<rscale>  0 0.20254600E+04</rscale>
<asrwt>0</asrwt>
<pdfrwt beam="1">  1        1 0.34560666E+00 0.20254600E+04</pdfrwt>
<pdfrwt beam="2">  1       -1 0.70239037E-01 0.20254600E+04</pdfrwt>
<totfact> 0.38407044E+00</totfact>
</mgrwt>
</event>
<event>
12    1  0.4672461E-008  0.2553689E+04  0.7818608E-02  0.8384104E-01
         -2   -1    0    0    0  501 -0.00000000000E+00  0.00000000000E+00  0.86018882007E+03  0.86018882007E+03  0.00000000000E+00 0.  1.
          2   -1    0    0  501    0  0.00000000000E+00 -0.00000000000E+00 -0.18953185402E+04  0.18953185402E+04  0.00000000000E+00 0. -1.
         23    2    1    2    0    0 -0.81292867998E+03  0.15343535784E+03  0.35723986707E+03  0.90568447622E+03  0.90821803928E+02 0.  0.
        254    2    1    2    0    0  0.81292867998E+03 -0.15343535784E+03 -0.13923695872E+04  0.18498228840E+04  0.89373160804E+03 0.  0.
         23    2    4    4    0    0  0.17870567316E+03 -0.44660426322E+03 -0.40053660560E+03  0.63223843813E+03  0.88908855982E+02 0.  0.
         23    2    4    4    0    0  0.63422300682E+03  0.29316890538E+03 -0.99183298158E+03  0.12175844459E+04  0.10291933776E+03 0.  0.
         11    1    3    3    0    0 -0.19891223420E+02 -0.30003415047E+01 -0.36764185077E+01  0.20449422274E+02  0.00000000000E+00 0. -1.
        -11    1    3    3    0    0 -0.79303745656E+03  0.15643569935E+03  0.36091628557E+03  0.88523505394E+03  0.00000000000E+00 0.  1.
          4    1    5    5  502    0  0.34203898812E+01 -0.10473622406E+03 -0.93369607508E+02  0.14035404983E+03  0.00000000000E+00 0. -1.
          4    1    6    6  503    0  0.27537742873E+03  0.76211567744E+02 -0.36770480665E+03  0.46566914880E+03  0.00000000000E+00 0. -1.
         -4    1    5    5    0  502  0.17528528327E+03 -0.34186803917E+03 -0.30716699809E+03  0.49188438830E+03  0.00000000000E+00 0.  1.
         -4    1    6    6    0  503  0.35884557809E+03  0.21695733764E+03 -0.62412817493E+03  0.75191529710E+03  0.00000000000E+00 0.  1.
<mgrwt>
<rscale>  0 0.25536890E+04</rscale>
<asrwt>0</asrwt>
<pdfrwt beam="1">  1        2 0.29158746E+00 0.25536890E+04</pdfrwt>
<pdfrwt beam="2">  1       -2 0.13233674E+00 0.25536890E+04</pdfrwt>
<totfact> 0.28157854E+00</totfact>
</mgrwt>
</event>
<event>
12    1  0.4672461E-008  0.1826966E+04  0.7818608E-02  0.8692089E-01
          1   -1    0    0  501    0  0.00000000000E+00  0.00000000000E+00  0.18908660235E+04  0.18908660235E+04  0.00000000000E+00 0. -1.
         -1   -1    0    0    0  501 -0.00000000000E+00 -0.00000000000E+00 -0.44130659470E+03  0.44130659470E+03  0.00000000000E+00 0.  1.
         23    2    1    2    0    0 -0.43137907060E+03  0.29546292579E+03 -0.19419153266E+02  0.53111247807E+03  0.91198233428E+02 0.  0.
        254    2    1    2    0    0  0.43137907060E+03 -0.29546292579E+03  0.14689785820E+04  0.18010601401E+04  0.90140629615E+03 0.  0.
         23    2    4    4    0    0 -0.23857788013E+03  0.48604380152E+02  0.22514974936E+03  0.34414351514E+03  0.91981295482E+02 0.  0.
         23    2    4    4    0    0  0.66995695073E+03 -0.34406730594E+03  0.12438288327E+04  0.14569166250E+04  0.90946469270E+02 0.  0.
         13    1    3    3    0    0 -0.36272912441E+02  0.59488718213E+02 -0.12885604271E+02  0.70856690361E+02  0.00000000000E+00 0. -1.
        -13    1    3    3    0    0 -0.39510615816E+03  0.23597420757E+03 -0.65335489952E+01  0.46025578771E+03  0.00000000000E+00 0.  1.
          4    1    5    5  502    0 -0.17978106422E+03  0.42585360491E+02  0.21616151286E+03  0.28435988399E+03  0.00000000000E+00 0. -1.
          3    1    6    6  503    0  0.54356711434E+03 -0.25900589569E+03  0.92737760615E+03  0.11057027115E+04  0.00000000000E+00 0. -1.
         -4    1    5    5    0  502 -0.58796815904E+02  0.60190196608E+01  0.89882365061E+01  0.59783631151E+02  0.00000000000E+00 0.  1.
         -3    1    6    6    0  503  0.12638983638E+03 -0.85061410246E+02  0.31645122653E+03  0.35121391349E+03  0.00000000000E+00 0.  1.
<mgrwt>
<rscale>  0 0.18269665E+04</rscale>
<asrwt>0</asrwt>
<pdfrwt beam="1">  1        1 0.29090246E+00 0.18269665E+04</pdfrwt>
<pdfrwt beam="2">  1       -1 0.67893323E-01 0.18269665E+04</pdfrwt>
<totfact> 0.73084567E+00</totfact>
</mgrwt>
</event>
<event>
12    1  0.7402851E-008  0.1599189E+04  0.7818608E-02  0.8821047E-01
          2   -1    0    0  501    0  0.00000000000E+00  0.00000000000E+00  0.14838908476E+04  0.14838908476E+04  0.00000000000E+00 0.  1.
         -2   -1    0    0    0  501 -0.00000000000E+00 -0.00000000000E+00 -0.43086125899E+03  0.43086125899E+03  0.00000000000E+00 0. -1.
         23    2    1    2    0    0  0.31372540886E+03  0.32670031112E+03  0.67296384014E+03  0.81607088744E+03  0.89076583637E+02 0.  0.
        254    2    1    2    0    0 -0.31372540886E+03 -0.32670031112E+03  0.38006574850E+03  0.10986812192E+04  0.92600956947E+03 0.  0.
         23    2    4    4    0    0  0.28791271545E+03 -0.12925179568E+03 -0.43861620664E+02  0.33121312096E+03  0.90435232778E+02 0.  0.
         23    2    4    4    0    0 -0.60163812431E+03 -0.19744851544E+03  0.42392736916E+03  0.76746809822E+03  0.91315489307E+02 0.  0.
         11    1    3    3    0    0  0.31905033202E+03  0.31381143258E+03  0.65605897832E+03  0.79415622683E+03  0.00000000000E+00 0.  1.
        -11    1    3    3    0    0 -0.53249231633E+01  0.12888878539E+02  0.16904861817E+02  0.21914660612E+02  0.00000000000E+00 0. -1.
          3    1    5    5  502    0  0.41591989153E+02  0.45197067854E+01  0.15642716883E+02  0.44665600888E+02  0.00000000000E+00 0. -1.
          3    1    6    6  503    0 -0.10969663503E+02 -0.13074769494E+02 -0.57730960185E+00  0.17076779588E+02  0.00000000000E+00 0. -1.
         -3    1    5    5    0  502  0.24632072629E+03 -0.13377150247E+03 -0.59504337547E+02  0.28654752007E+03  0.00000000000E+00 0.  1.
         -3    1    6    6    0  503 -0.59066846080E+03 -0.18437374594E+03  0.42450467876E+03  0.75039131863E+03  0.00000000000E+00 0.  1.
<mgrwt>
<rscale>  0 0.15991886E+04</rscale>
<asrwt>0</asrwt>
<pdfrwt beam="1">  1        2 0.22829090E+00 0.15991886E+04</pdfrwt>
<pdfrwt beam="2">  1       -2 0.66286348E-01 0.15991886E+04</pdfrwt>
<totfact> 0.26014256E+01</totfact>
</mgrwt>
</event>
<event>
12    1  0.4672461E-008  0.1887242E+04  0.7818608E-02  0.8661233E-01
          2   -1    0    0  501    0  0.00000000000E+00  0.00000000000E+00  0.59402746059E+03  0.59402746059E+03  0.00000000000E+00 0. -1.
         -2   -1    0    0    0  501 -0.00000000000E+00 -0.00000000000E+00 -0.14989547905E+04  0.14989547905E+04  0.00000000000E+00 0.  1.
         23    2    1    2    0    0 -0.41685239093E+03 -0.19630824707E+03  0.26939317173E+03  0.54155613642E+03  0.91692552743E+02 0.  0.
        254    2    1    2    0    0  0.41685239093E+03  0.19630824707E+03 -0.11743205017E+04  0.15514261147E+04  0.90310104920E+03 0.  0.
         23    2    4    4    0    0  0.49545067914E+03 -0.60097826878E+02 -0.21430584026E+03  0.55038324429E+03  0.88947165070E+02 0.  0.
         23    2    4    4    0    0 -0.78598288208E+02  0.25640607395E+03 -0.96001466143E+03  0.10010428704E+04  0.92395414436E+02 0.  0.
         13    1    3    3    0    0 -0.38133859260E+02 -0.50823841522E+02  0.27673290829E+02  0.69304149330E+02  0.00000000000E+00 0.  1.
        -13    1    3    3    0    0 -0.37871853167E+03 -0.14548440555E+03  0.24171988090E+03  0.47225198709E+03  0.00000000000E+00 0. -1.
          2    1    5    5  502    0  0.48976376568E+03 -0.54674281072E+02 -0.22097027820E+03  0.54007933402E+03  0.00000000000E+00 0. -1.
          1    1    6    6  503    0 -0.71500182060E+02  0.21728890468E+03 -0.66242225769E+03  0.70080667207E+03  0.00000000000E+00 0. -1.
         -2    1    5    5    0  502  0.56869134528E+01 -0.54235458053E+01  0.66644379443E+01  0.10303910269E+02  0.00000000000E+00 0.  1.
         -1    1    6    6    0  503 -0.70981061484E+01  0.39117169267E+02 -0.29759240374E+03  0.30023619836E+03  0.00000000000E+00 0.  1.
<mgrwt>
<rscale>  0 0.18872417E+04</rscale>
<asrwt>0</asrwt>
<pdfrwt beam="1">  1        2 0.91388840E-01 0.18872417E+04</pdfrwt>
<pdfrwt beam="2">  1       -2 0.23060843E+00 0.18872417E+04</pdfrwt>
<totfact> 0.39867669E+00</totfact>
</mgrwt>
</event>
<event>
12    1  0.4672461E-008  0.1817975E+04  0.7818608E-02  0.8696798E-01
          2   -1    0    0  501    0  0.00000000000E+00  0.00000000000E+00  0.85505742816E+03  0.85505742816E+03  0.00000000000E+00 0. -1.
         -2   -1    0    0    0  501 -0.00000000000E+00 -0.00000000000E+00 -0.96631946877E+03  0.96631946877E+03  0.00000000000E+00 0.  1.
         23    2    1    2    0    0  0.46633036895E+03 -0.13432584402E+03 -0.52304595133E+03  0.71874576142E+03  0.86665777499E+02 0.  0.
        254    2    1    2    0    0 -0.46633036895E+03  0.13432584402E+03  0.41178391072E+03  0.11026311355E+04  0.90040101425E+03 0.  0.
         23    2    4    4    0    0 -0.37992975416E+03  0.48553173224E+03  0.13425688901E+03  0.63746833812E+03  0.90847612748E+02 0.  0.
         23    2    4    4    0    0 -0.86400614787E+02 -0.35120588822E+03  0.27752702170E+03  0.46516279738E+03  0.92436670948E+02 0.  0.
         11    1    3    3    0    0  0.71415293640E+02 -0.54434541817E+02 -0.86515060653E+02  0.12469209770E+03  0.00000000000E+00 0. -1.
        -11    1    3    3    0    0  0.39491507531E+03 -0.79891302206E+02 -0.43653089067E+03  0.59405366373E+03  0.00000000000E+00 0.  1.
          2    1    5    5  502    0 -0.30561541501E+03  0.44033293449E+03  0.10999770737E+03  0.54716850304E+03  0.00000000000E+00 0. -1.
          3    1    6    6  503    0 -0.24037690120E+02 -0.19368566377E+03  0.98268911689E+02  0.21851481849E+03  0.00000000000E+00 0. -1.
         -2    1    5    5    0  502 -0.74314339151E+02  0.45198797756E+02  0.24259181642E+02  0.90299835083E+02  0.00000000000E+00 0.  1.
         -3    1    6    6    0  503 -0.62362924667E+02 -0.15752022445E+03  0.17925811001E+03  0.24664797889E+03  0.00000000000E+00 0.  1.
<mgrwt>
<rscale>  0 0.18179754E+04</rscale>
<asrwt>0</asrwt>
<pdfrwt beam="1">  1        2 0.13154730E+00 0.18179754E+04</pdfrwt>
<pdfrwt beam="2">  1       -2 0.14866453E+00 0.18179754E+04</pdfrwt>
<totfact> 0.91028303E+00</totfact>
</mgrwt>
</event>
<event>
12    1  0.4672461E-008  0.1303130E+04  0.7818608E-02  0.9027087E-01
         -2   -1    0    0    0  501 -0.00000000000E+00  0.00000000000E+00  0.80065327942E+03  0.80065327942E+03  0.00000000000E+00 0.  1.
          2   -1    0    0  501    0  0.00000000000E+00 -0.00000000000E+00 -0.53023807209E+03  0.53023807209E+03  0.00000000000E+00 0. -1.
         23    2    1    2    0    0  0.41015333636E+02 -0.26312685388E+03 -0.16516740247E+03  0.32733672569E+03  0.94610054019E+02 0.  0.
        254    2    1    2    0    0 -0.41015333636E+02  0.26312685388E+03  0.43558260980E+03  0.10035546258E+04  0.86398592478E+03 0.  0.
         23    2    4    4    0    0 -0.44238665583E+03  0.10417124677E+03  0.20985653000E+03  0.50834929475E+03  0.88440038349E+02 0.  0.
         23    2    4    4    0    0  0.40137132219E+03  0.15895560711E+03  0.22572607980E+03  0.49520533106E+03  0.88939493487E+02 0.  0.
         11    1    3    3    0    0  0.51051483317E+02 -0.22819418694E+03 -0.10341555099E+03  0.25568264918E+03  0.00000000000E+00 0. -1.
        -11    1    3    3    0    0 -0.10036149681E+02 -0.34932666937E+02 -0.61751851483E+02  0.71654076516E+02  0.00000000000E+00 0.  1.
          2    1    5    5  502    0 -0.44521393541E+03  0.99394363766E+02  0.20241532303E+03  0.49906577806E+03  0.00000000000E+00 0. -1.
          3    1    6    6  503    0  0.38293795096E+03  0.16922536702E+03  0.22164111161E+03  0.47371244599E+03  0.00000000000E+00 0. -1.
         -2    1    5    5    0  502  0.28272795790E+01  0.47768830076E+01  0.74412069714E+01  0.92835166977E+01  0.00000000000E+00 0.  1.
         -3    1    6    6    0  503  0.18433371232E+02 -0.10269759912E+02  0.40849681849E+01  0.21492885072E+02  0.00000000000E+00 0.  1.
<mgrwt>
<rscale>  0 0.13031298E+04</rscale>
<asrwt>0</asrwt>
<pdfrwt beam="1">  1        2 0.81575089E-01 0.13031298E+04</pdfrwt>
<pdfrwt beam="2">  1       -2 0.12317743E+00 0.13031298E+04</pdfrwt>
<totfact> 0.28015321E+01</totfact>
</mgrwt>
</event>
<event>
12    1  0.4672461E-008  0.1387232E+04  0.7818608E-02  0.8963113E-01
          1   -1    0    0  501    0  0.00000000000E+00  0.00000000000E+00  0.50035874983E+03  0.50035874983E+03  0.00000000000E+00 0. -1.
         -1   -1    0    0    0  501 -0.00000000000E+00 -0.00000000000E+00 -0.96151623766E+03  0.96151623766E+03  0.00000000000E+00 0.  1.
         23    2    1    2    0    0  0.39673716513E+03  0.12603917074E+03  0.85476649739E+02  0.43438153500E+03  0.89971159515E+02 0.  0.
        254    2    1    2    0    0 -0.39673716513E+03 -0.12603917074E+03 -0.54663413757E+03  0.10274934525E+04  0.76396836571E+03 0.  0.
         23    2    4    4    0    0  0.78033387226E+02 -0.20041404631E+03  0.67059659606E+02  0.24280447269E+03  0.90564974091E+02 0.  0.
         23    2    4    4    0    0 -0.47477055235E+03  0.74374875570E+02 -0.61369379718E+03  0.78468897980E+03  0.90432399236E+02 0.  0.
         13    1    3    3    0    0  0.34247027910E+03  0.92272636096E+02  0.10065585026E+03  0.36868920737E+03  0.00000000000E+00 0. -1.
        -13    1    3    3    0    0  0.54266886027E+02  0.33766534641E+02 -0.15179200525E+02  0.65692327628E+02  0.00000000000E+00 0.  1.
          2    1    5    5  502    0  0.97126702011E+02 -0.14600828401E+03  0.56064794327E+02  0.18410669842E+03  0.00000000000E+00 0. -1.
          4    1    6    6  503    0 -0.30347250362E+03  0.66633299812E+02 -0.45559520818E+03  0.55145493997E+03  0.00000000000E+00 0. -1.
         -2    1    5    5    0  502 -0.19093314785E+02 -0.54405762301E+02  0.10994865280E+02  0.58697774264E+02  0.00000000000E+00 0.  1.
         -4    1    6    6    0  503 -0.17129804873E+03  0.77415757572E+01 -0.15809858900E+03  0.23323403983E+03  0.00000000000E+00 0.  1.
<mgrwt>
<rscale>  0 0.13872319E+04</rscale>
<asrwt>0</asrwt>
<pdfrwt beam="1">  1        1 0.76978270E-01 0.13872319E+04</pdfrwt>
<pdfrwt beam="2">  1       -1 0.14792557E+00 0.13872319E+04</pdfrwt>
<totfact> 0.15655785E+01</totfact>
</mgrwt>
</event>
<event>
12    1  0.4672461E-008  0.1629986E+04  0.7818608E-02  0.8802335E-01
          2   -1    0    0  501    0  0.00000000000E+00  0.00000000000E+00  0.15137879751E+04  0.15137879751E+04  0.00000000000E+00 0. -1.
         -2   -1    0    0    0  501 -0.00000000000E+00 -0.00000000000E+00 -0.43877599469E+03  0.43877599469E+03  0.00000000000E+00 0.  1.
         23    2    1    2    0    0  0.35794419051E+03 -0.28077622820E+03  0.77663040798E+03  0.90427162931E+03  0.87138138214E+02 0.  0.
        254    2    1    2    0    0 -0.35794419051E+03  0.28077622820E+03  0.29838157248E+03  0.10482923405E+04  0.89606134532E+03 0.  0.
         23    2    4    4    0    0 -0.62294198825E+03  0.29666856622E+03  0.32036360261E+03  0.76666848839E+03  0.95282602313E+02 0.  0.
         23    2    4    4    0    0  0.26499779774E+03 -0.15892338028E+02 -0.21982030135E+02  0.28162385214E+03  0.91391384883E+02 0.  0.
         11    1    3    3    0    0  0.58862502531E+01 -0.92838465554E+01  0.59544184701E+02  0.60550373084E+02  0.00000000000E+00 0.  1.
        -11    1    3    3    0    0  0.35205794025E+03 -0.27149238164E+03  0.71708622328E+03  0.84372125622E+03  0.00000000000E+00 0. -1.
          1    1    6    6  502    0  0.13969243271E+03  0.34940697804E+02 -0.26077625279E+02  0.14633820643E+03  0.00000000000E+00 0. -1.
          1    1    5    5  503    0 -0.55077879699E+02  0.51547187872E+02  0.15114836778E+02  0.76935971434E+02  0.00000000000E+00 0. -1.
         -1    1    5    5    0  503 -0.56786410855E+03  0.24512137835E+03  0.30524876583E+03  0.68973251695E+03  0.00000000000E+00 0.  1.
         -1    1    6    6    0  502  0.12530536503E+03 -0.50833035832E+02  0.40955951443E+01  0.13528564571E+03  0.00000000000E+00 0.  1.
<mgrwt>
<rscale>  0 0.16299863E+04</rscale>
<asrwt>0</asrwt>
<pdfrwt beam="1">  1        2 0.23289045E+00 0.16299863E+04</pdfrwt>
<pdfrwt beam="2">  1       -2 0.67504000E-01 0.16299863E+04</pdfrwt>
<totfact> 0.23997420E+01</totfact>
</mgrwt>
</event>
<event>
12    1  0.4672461E-008  0.1545230E+04  0.7818608E-02  0.8854920E-01
         -2   -1    0    0    0  501 -0.00000000000E+00  0.00000000000E+00  0.59256495913E+03  0.59256495913E+03  0.00000000000E+00 0.  1.
          2   -1    0    0  501    0  0.00000000000E+00 -0.00000000000E+00 -0.10073731774E+04  0.10073731774E+04  0.00000000000E+00 0. -1.
         23    2    1    2    0    0 -0.41670011136E+03 -0.15160635086E+03 -0.36477423217E+03  0.58194735179E+03  0.94757645475E+02 0.  0.
        254    2    1    2    0    0  0.41670011136E+03  0.15160635086E+03 -0.50033986094E+02  0.10179907847E+04  0.91497451856E+03 0.  0.
         23    2    4    4    0    0 -0.17903068835E+03  0.37676957538E+02  0.25951720183E+03  0.33111360376E+03  0.93890894386E+02 0.  0.
         23    2    4    4    0    0  0.59573079971E+03  0.11392939332E+03 -0.30955118792E+03  0.68687718098E+03  0.90017950580E+02 0.  0.
         13    1    3    3    0    0 -0.49490494014E+02 -0.43619729839E+02 -0.26370143721E+02  0.71044875317E+02  0.00000000000E+00 0.  1.
        -13    1    3    3    0    0 -0.36720961734E+03 -0.10798662102E+03 -0.33840408844E+03  0.51090247647E+03  0.00000000000E+00 0. -1.
          2    1    5    5  502    0 -0.15355878130E+03  0.14941318548E+01  0.23442263372E+03  0.28024364925E+03  0.00000000000E+00 0. -1.
          2    1    6    6  503    0  0.53379711428E+03  0.98652005519E+02 -0.24316896165E+03  0.59481318186E+03  0.00000000000E+00 0. -1.
         -2    1    5    5    0  502 -0.25471907045E+02  0.36182825683E+02  0.25094568108E+02  0.50869954506E+02  0.00000000000E+00 0.  1.
         -2    1    6    6    0  503  0.61933685421E+02  0.15277387800E+02 -0.66382226275E+02  0.92063999115E+02  0.00000000000E+00 0.  1.
<mgrwt>
<rscale>  0 0.15452301E+04</rscale>
<asrwt>0</asrwt>
<pdfrwt beam="1">  1        2 0.15498049E+00 0.15452301E+04</pdfrwt>
<pdfrwt beam="2">  1       -2 0.91163840E-01 0.15452301E+04</pdfrwt>
<totfact> 0.24617467E+01</totfact>
</mgrwt>
</event>
<event>
12    1  0.4672461E-008  0.1945568E+04  0.7818608E-02  0.8632501E-01
          2   -1    0    0  501    0  0.00000000000E+00  0.00000000000E+00  0.95141728209E+03  0.95141728209E+03  0.00000000000E+00 0. -1.
         -2   -1    0    0    0  501 -0.00000000000E+00 -0.00000000000E+00 -0.99463032502E+03  0.99463032502E+03  0.00000000000E+00 0.  1.
         23    2    1    2    0    0  0.59645099708E+03  0.19195859388E+03 -0.46134526998E+03  0.78329910917E+03  0.90089636536E+02 0.  0.
        254    2    1    2    0    0 -0.59645099708E+03 -0.19195859388E+03  0.41813222705E+03  0.11627484979E+04  0.88574692574E+03 0.  0.
         23    2    4    4    0    0 -0.37656571107E+02 -0.38864663421E+03  0.39511584819E+03  0.56271861714E+03  0.89841443412E+02 0.  0.
         23    2    4    4    0    0 -0.55879442597E+03  0.19668804033E+03  0.23016378856E+02  0.60002988079E+03  0.92567318398E+02 0.  0.
         13    1    3    3    0    0  0.52246614080E+03  0.17086488798E+03 -0.36428232336E+03  0.65944468254E+03  0.00000000000E+00 0. -1.
        -13    1    3    3    0    0  0.73984856284E+02  0.21093705905E+02 -0.97062946628E+02  0.12385442663E+03  0.00000000000E+00 0.  1.
          1    1    5    5  502    0 -0.17884639849E+02 -0.29451732143E+03  0.24064259907E+03  0.38074817590E+03  0.00000000000E+00 0. -1.
          3    1    6    6  503    0 -0.13062921059E+02 -0.92262058094E+01  0.37426417660E+01  0.16424681051E+02  0.00000000000E+00 0. -1.
         -1    1    5    5    0  502 -0.19771931257E+02 -0.94129312775E+02  0.15447324913E+03  0.18197044124E+03  0.00000000000E+00 0.  1.
         -3    1    6    6    0  503 -0.54573150492E+03  0.20591424614E+03  0.19273737090E+02  0.58360519974E+03  0.00000000000E+00 0.  1.
<mgrwt>
<rscale>  0 0.19455678E+04</rscale>
<asrwt>0</asrwt>
<pdfrwt beam="1">  1        2 0.14637189E+00 0.19455678E+04</pdfrwt>
<pdfrwt beam="2">  1       -2 0.15302005E+00 0.19455678E+04</pdfrwt>
<totfact> 0.71816943E+00</totfact>
</mgrwt>
</event>
<event>
12    1  0.4672461E-008  0.2002111E+04  0.7818608E-02  0.8605635E-01
          2   -1    0    0  501    0  0.00000000000E+00  0.00000000000E+00  0.10429128126E+04  0.10429128126E+04  0.00000000000E+00 0. -1.
         -2   -1    0    0    0  501 -0.00000000000E+00 -0.00000000000E+00 -0.96087772119E+03  0.96087772119E+03  0.00000000000E+00 0.  1.
         23    2    1    2    0    0  0.39066474346E+03  0.66218008112E+03  0.20142735447E+03  0.79993747889E+03  0.90695035102E+02 0.  0.
        254    2    1    2    0    0 -0.39066474346E+03 -0.66218008112E+03 -0.11939226306E+03  0.12038530549E+04  0.91864370880E+03 0.  0.
         23    2    4    4    0    0 -0.16377391040E+03  0.74422540368E+02  0.26848203816E+03  0.33613829043E+03  0.92443156760E+02 0.  0.
         23    2    4    4    0    0 -0.22689083306E+03 -0.73660262149E+03 -0.38787430122E+03  0.86771476448E+03  0.91758197718E+02 0.  0.
         11    1    3    3    0    0  0.34732267120E+03  0.59588736517E+03  0.20815971847E+03  0.72044795669E+03  0.00000000000E+00 0. -1.
        -11    1    3    3    0    0  0.43342072259E+02  0.66292715947E+02 -0.67323639959E+01  0.79489522205E+02  0.00000000000E+00 0.  1.
          1    1    5    5  502    0 -0.10445530554E+03  0.74916476332E+02  0.11841754691E+03  0.17477443948E+03  0.00000000000E+00 0. -1.
          1    1    6    6  503    0 -0.16932727570E+03 -0.62149390208E+03 -0.29206355925E+03  0.70726764330E+03  0.00000000000E+00 0. -1.
         -1    1    5    5    0  502 -0.59318604867E+02 -0.49393596382E+00  0.15006449126E+03  0.16136385095E+03  0.00000000000E+00 0.  1.
         -1    1    6    6    0  503 -0.57563557355E+02 -0.11510871941E+03 -0.95810741970E+02  0.16044712118E+03  0.00000000000E+00 0.  1.
<mgrwt>
<rscale>  0 0.20021106E+04</rscale>
<asrwt>0</asrwt>
<pdfrwt beam="1">  1        2 0.16044812E+00 0.20021106E+04</pdfrwt>
<pdfrwt beam="2">  1       -2 0.14782734E+00 0.20021106E+04</pdfrwt>
<totfact> 0.68413003E+00</totfact>
</mgrwt>
</event>
<event>
12    1  0.4672461E-008  0.1534666E+04  0.7818608E-02  0.8861722E-01
         -2   -1    0    0    0  501 -0.00000000000E+00  0.00000000000E+00  0.58958842031E+03  0.58958842031E+03  0.00000000000E+00 0. -1.
          2   -1    0    0  501    0  0.00000000000E+00 -0.00000000000E+00 -0.99866232262E+03  0.99866232262E+03  0.00000000000E+00 0.  1.
         23    2    1    2    0    0  0.20934490030E+02  0.49756876857E+03 -0.95642204391E+02  0.51545434567E+03  0.92373258504E+02 0.  0.
        254    2    1    2    0    0 -0.20934490030E+02 -0.49756876857E+03 -0.31343169792E+03  0.10727963973E+04  0.89701713941E+03 0.  0.
         23    2    4    4    0    0 -0.40499490210E+03 -0.47415769242E+03 -0.19142364697E+03  0.65833221940E+03  0.88948920591E+02 0.  0.
         23    2    4    4    0    0  0.38406041207E+03 -0.23411076149E+02 -0.12200805095E+03  0.41446417786E+03  0.94043137054E+02 0.  0.
         13    1    3    3    0    0  0.74114088155E+01  0.13101772753E+03  0.15612620980E+02  0.13215266869E+03  0.00000000000E+00 0. -1.
        -13    1    3    3    0    0  0.13523081215E+02  0.36655104104E+03 -0.11125482537E+03  0.38330167699E+03  0.00000000000E+00 0.  1.
          1    1    5    5  502    0 -0.10100125191E+03 -0.15106266845E+03 -0.92102987686E+02  0.20372565628E+03  0.00000000000E+00 0. -1.
          3    1    6    6  503    0  0.12840412036E+03  0.28842634847E+02 -0.15083651254E+02  0.13246521146E+03  0.00000000000E+00 0. -1.
         -1    1    5    5    0  502 -0.30399365020E+03 -0.32309502396E+03 -0.99320659284E+02  0.45460656312E+03  0.00000000000E+00 0.  1.
         -3    1    6    6    0  503  0.25565629171E+03 -0.52253710996E+02 -0.10692439970E+03  0.28199896641E+03  0.00000000000E+00 0.  1.
<mgrwt>
<rscale>  0 0.15346658E+04</rscale>
<asrwt>0</asrwt>
<pdfrwt beam="1">  1        2 0.15364036E+00 0.15346658E+04</pdfrwt>
<pdfrwt beam="2">  1       -2 0.90705912E-01 0.15346658E+04</pdfrwt>
<totfact> 0.25249481E+01</totfact>
</mgrwt>
</event>
<event>
12    1  0.4672461E-008  0.1388155E+04  0.7818608E-02  0.8962437E-01
          1   -1    0    0  501    0  0.00000000000E+00  0.00000000000E+00  0.18470703421E+04  0.18470703421E+04  0.00000000000E+00 0. -1.
         -1   -1    0    0    0  501 -0.00000000000E+00 -0.00000000000E+00 -0.26081494347E+03  0.26081494347E+03  0.00000000000E+00 0.  1.
         23    2    1    2    0    0  0.69310267742E+02 -0.15732969823E+03  0.10101733621E+04  0.10287598605E+04  0.91324049509E+02 0.  0.
        254    2    1    2    0    0 -0.69310267742E+02  0.15732969823E+03  0.57608203652E+03  0.10791254250E+04  0.89614988866E+03 0.  0.
         23    2    4    4    0    0 -0.11234593705E+03  0.40005274295E+03 -0.22600548979E+02  0.42608911583E+03  0.91527826912E+02 0.  0.
         23    2    4    4    0    0  0.43035669309E+02 -0.24272304472E+03  0.59868258550E+03  0.65303630918E+03  0.85258651537E+02 0.  0.
         13    1    3    3    0    0  0.71948181305E+02 -0.16844424834E+03  0.94353139548E+03  0.96114593057E+03  0.00000000000E+00 0. -1.
        -13    1    3    3    0    0 -0.26379135629E+01  0.11114550114E+02  0.66641966607E+02  0.67613929966E+02  0.00000000000E+00 0.  1.
          2    1    5    5  502    0 -0.21979765160E+02  0.16629093127E+02 -0.16480494273E+02  0.32112980339E+02  0.00000000000E+00 0. -1.
          3    1    6    6  503    0 -0.18073252542E+02 -0.39813894574E+02  0.15976485450E+03  0.16563996315E+03  0.00000000000E+00 0. -1.
         -2    1    5    5    0  502 -0.90366171890E+02  0.38342364982E+03 -0.61200547062E+01  0.39397613549E+03  0.00000000000E+00 0.  1.
         -3    1    6    6    0  503  0.61108921851E+02 -0.20290915015E+03  0.43891773100E+03  0.48739634603E+03  0.00000000000E+00 0.  1.
<mgrwt>
<rscale>  0 0.13881550E+04</rscale>
<asrwt>0</asrwt>
<pdfrwt beam="1">  1        1 0.28416466E+00 0.13881550E+04</pdfrwt>
<pdfrwt beam="2">  1       -1 0.40125377E-01 0.13881550E+04</pdfrwt>
<totfact> 0.22379893E+01</totfact>
</mgrwt>
</event>
<event>
12    1  0.4672461E-008  0.2556069E+04  0.7818608E-02  0.8383278E-01
          2   -1    0    0  501    0  0.00000000000E+00  0.00000000000E+00  0.10098801335E+04  0.10098801335E+04  0.00000000000E+00 0. -1.
         -2   -1    0    0    0  501 -0.00000000000E+00 -0.00000000000E+00 -0.16173925175E+04  0.16173925175E+04  0.00000000000E+00 0.  1.
         23    2    1    2    0    0  0.69253884085E+03 -0.79057582843E+03 -0.63291782343E+03  0.12319209678E+04  0.11146350587E+03 0.  0.
        254    2    1    2    0    0 -0.69253884085E+03  0.79057582843E+03  0.25405439446E+02  0.13953516832E+04  0.91746427554E+03 0.  0.
         23    2    4    4    0    0 -0.81902163885E+03  0.85308862091E+03 -0.93218888551E+02  0.11897399002E+04  0.90744855960E+02 0.  0.
         23    2    4    4    0    0  0.12648279800E+03 -0.62512792473E+02  0.11862432800E+03  0.20561178302E+03  0.91097347453E+02 0.  0.
         13    1    3    3    0    0  0.58809045284E+03 -0.68589600389E+03 -0.58552872051E+03  0.10766371680E+04  0.00000000000E+00 0.  1.
        -13    1    3    3    0    0  0.10444838801E+03 -0.10467982454E+03 -0.47389102913E+02  0.15528379986E+03  0.00000000000E+00 0. -1.
          4    1    6    6  502    0  0.23749304331E+02  0.19965999413E+02  0.45825026322E+01  0.31363512545E+02  0.00000000000E+00 0. -1.
          4    1    5    5  503    0 -0.76719740798E+03  0.81648306450E+03 -0.71406057438E+02  0.11226465528E+04  0.00000000000E+00 0.  1.
         -4    1    5    5    0  503 -0.51824230869E+02  0.36605556412E+02 -0.21812831113E+02  0.67093347410E+02  0.00000000000E+00 0. -1.
         -4    1    6    6    0  502  0.10273349367E+03 -0.82478791887E+02  0.11404182536E+03  0.17424827048E+03  0.00000000000E+00 0.  1.
<mgrwt>
<rscale>  0 0.25560693E+04</rscale>
<asrwt>0</asrwt>
<pdfrwt beam="1">  1        2 0.15536618E+00 0.25560693E+04</pdfrwt>
<pdfrwt beam="2">  1       -2 0.24882961E+00 0.25560693E+04</pdfrwt>
<totfact> 0.14397011E+00</totfact>
</mgrwt>
</event>
<event>
12    1  0.4672461E-008  0.2377923E+04  0.7818608E-02  0.8447815E-01
         -1   -1    0    0    0  501 -0.00000000000E+00  0.00000000000E+00  0.19690256071E+04  0.19690256071E+04  0.00000000000E+00 0.  1.
          1   -1    0    0  501    0  0.00000000000E+00 -0.00000000000E+00 -0.71793363081E+03  0.71793363081E+03  0.00000000000E+00 0. -1.
         23    2    1    2    0    0  0.29753942239E+03 -0.81526794406E+03  0.94948510051E+03  0.12894949755E+04  0.89909994713E+02 0.  0.
        254    2    1    2    0    0 -0.29753942239E+03  0.81526794406E+03  0.30160687574E+03  0.13974642624E+04  0.10529710959E+04 0.  0.
         23    2    4    4    0    0 -0.45375410280E+03 -0.38164903147E+02 -0.26368153586E+02  0.46537210463E+03  0.92339431479E+02 0.  0.
         23    2    4    4    0    0  0.15621468041E+03  0.85343284721E+03  0.32797502933E+03  0.93209215778E+03  0.92073447137E+02 0.  0.
         11    1    3    3    0    0  0.14287724787E+03 -0.44120837287E+03  0.56800866589E+03  0.73328887949E+03  0.00000000000E+00 0. -1.
        -11    1    3    3    0    0  0.15466217452E+03 -0.37405957119E+03  0.38147643462E+03  0.55620609597E+03  0.00000000000E+00 0.  1.
          3    1    5    5  502    0 -0.50690778406E+02  0.73760904905E+01 -0.30702397477E+02  0.59721009177E+02  0.00000000000E+00 0. -1.
          3    1    6    6  503    0 -0.24725849457E+01  0.69268450369E+02  0.56438580152E+01  0.69541965935E+02  0.00000000000E+00 0. -1.
         -3    1    5    5    0  502 -0.40306332439E+03 -0.45540993638E+02  0.43342438911E+01  0.40565109545E+03  0.00000000000E+00 0.  1.
         -3    1    6    6    0  503  0.15868726535E+03  0.78416439684E+03  0.32233117131E+03  0.86255019185E+03  0.00000000000E+00 0.  1.
<mgrwt>
<rscale>  0 0.23779232E+04</rscale>
<asrwt>0</asrwt>
<pdfrwt beam="1">  1        1 0.11045133E+00 0.23779232E+04</pdfrwt>
<pdfrwt beam="2">  1       -1 0.30292701E+00 0.23779232E+04</pdfrwt>
<totfact> 0.74404090E-01</totfact>
</mgrwt>
</event>
<event>
12    1  0.6191689E-008  0.2358894E+04  0.7818608E-02  0.8455055E-01
          1   -1    0    0  501    0  0.00000000000E+00  0.00000000000E+00  0.24567076222E+04  0.24567076222E+04  0.00000000000E+00 0.  1.
         -1   -1    0    0    0  501 -0.00000000000E+00 -0.00000000000E+00 -0.56624392334E+03  0.56624392334E+03  0.00000000000E+00 0. -1.
         23    2    1    2    0    0  0.78724242765E+03 -0.61801849549E+03  0.69096969559E+03  0.12197289373E+04  0.92747289567E+02 0.  0.
        254    2    1    2    0    0 -0.78724242765E+03  0.61801849549E+03  0.11994940033E+04  0.18032226082E+04  0.90062667636E+03 0.  0.
         23    2    4    4    0    0 -0.20238651321E+03  0.37502788208E+03  0.10626808789E+04  0.11486996691E+04  0.92811994392E+02 0.  0.
         23    2    4    4    0    0 -0.58485591445E+03  0.24299061341E+03  0.13681312437E+03  0.65452293910E+03  0.92636752662E+02 0.  0.
         11    1    3    3    0    0 -0.20785032480E+01 -0.10212197012E+01  0.50711686840E+01  0.55749275557E+01  0.00000000000E+00 0. -1.
        -11    1    3    3    0    0  0.78932093090E+03 -0.61699727579E+03  0.68589852691E+03  0.12141540098E+04  0.00000000000E+00 0.  1.
          1    1    5    5  502    0 -0.56763186136E+02  0.66269423136E+02  0.14083609435E+03  0.16567589207E+03  0.00000000000E+00 0. -1.
          3    1    6    6  503    0 -0.43826990800E+02  0.16000753181E+02 -0.14039936010E+02  0.48723187786E+02  0.00000000000E+00 0. -1.
         -1    1    5    5    0  502 -0.14562332707E+03  0.30875845894E+03  0.92184478460E+03  0.98302377705E+03  0.00000000000E+00 0.  1.
         -3    1    6    6    0  503 -0.54102892365E+03  0.22698986023E+03  0.15085306038E+03  0.60579975132E+03  0.00000000000E+00 0.  1.
<mgrwt>
<rscale>  0 0.23588945E+04</rscale>
<asrwt>0</asrwt>
<pdfrwt beam="1">  1        1 0.37795501E+00 0.23588945E+04</pdfrwt>
<pdfrwt beam="2">  1       -1 0.87114451E-01 0.23588945E+04</pdfrwt>
<totfact> 0.16937868E+00</totfact>
</mgrwt>
</event>
<event>
12    1  0.4672461E-008  0.2413089E+04  0.7818608E-02  0.8434620E-01
         -3   -1    0    0    0  501 -0.00000000000E+00  0.00000000000E+00  0.91323459320E+03  0.91323459320E+03  0.00000000000E+00 0.  1.
          3   -1    0    0  501    0  0.00000000000E+00 -0.00000000000E+00 -0.15940581472E+04  0.15940581472E+04  0.00000000000E+00 0. -1.
         23    2    1    2    0    0  0.94499175992E+03  0.31290105873E+02 -0.59844328918E+03  0.11226605735E+04  0.90795902417E+02 0.  0.
        254    2    1    2    0    0 -0.94499175992E+03 -0.31290105873E+02 -0.82380264771E+02  0.13846321669E+04  0.10081821425E+04 0.  0.
         23    2    4    4    0    0 -0.76989812355E+03 -0.35458147035E+03  0.24215877302E+03  0.88571134108E+03  0.85863662888E+02 0.  0.
         23    2    4    4    0    0 -0.17509363637E+03  0.32329136448E+03 -0.32453903779E+03  0.49892082577E+03  0.91767725777E+02 0.  0.
         13    1    3    3    0    0  0.14368308173E+03 -0.15270789745E+02 -0.61946583394E+02  0.15721133607E+03  0.00000000000E+00 0.  1.
        -13    1    3    3    0    0  0.80130867819E+03  0.46560895618E+02 -0.53649670579E+03  0.96544923743E+03  0.00000000000E+00 0. -1.
          1    1    6    6  502    0 -0.98161789315E+02  0.26388349518E+03 -0.23424088105E+03  0.36624995053E+03  0.00000000000E+00 0. -1.
          1    1    5    5  503    0 -0.43155907985E+03 -0.20725646353E+03  0.18012317055E+03  0.51151034949E+03  0.00000000000E+00 0. -1.
         -1    1    5    5    0  503 -0.33833904370E+03 -0.14732500683E+03  0.62035602476E+02  0.37420099158E+03  0.00000000000E+00 0.  1.
         -1    1    6    6    0  502 -0.76931847057E+02  0.59407869302E+02 -0.90298156745E+02  0.13267087524E+03  0.00000000000E+00 0.  1.
<mgrwt>
<rscale>  0 0.24130885E+04</rscale>
<asrwt>0</asrwt>
<pdfrwt beam="1">  1        3 0.24523971E+00 0.24130885E+04</pdfrwt>
<pdfrwt beam="2">  1       -3 0.14049763E+00 0.24130885E+04</pdfrwt>
<totfact> 0.70324315E-02</totfact>
</mgrwt>
</event>
<event>
12    1  0.4672461E-008  0.2312544E+04  0.7818608E-02  0.8472992E-01
         -2   -1    0    0    0  501 -0.00000000000E+00  0.00000000000E+00  0.58341178352E+03  0.58341178352E+03  0.00000000000E+00 0.  1.
          2   -1    0    0  501    0  0.00000000000E+00 -0.00000000000E+00 -0.22916313343E+04  0.22916313343E+04  0.00000000000E+00 0. -1.
         23    2    1    2    0    0  0.71049242333E+02  0.27667075869E+03 -0.18890793569E+04  0.19128951017E+04  0.94615801527E+02 0.  0.
        254    2    1    2    0    0 -0.71049242333E+02 -0.27667075869E+03  0.18085980614E+03  0.96214801610E+03  0.90079067039E+03 0.  0.
         23    2    4    4    0    0 -0.45431882989E+03 -0.10579185629E+03  0.23224663111E+03  0.52921437633E+03  0.92367972841E+02 0.  0.
         23    2    4    4    0    0  0.38326958756E+03 -0.17087890240E+03 -0.51386824970E+02  0.43293363977E+03  0.93251030181E+02 0.  0.
         13    1    3    3    0    0  0.43846027900E+02  0.94430492023E+02 -0.96678318411E+03  0.97237303391E+03  0.00000000000E+00 0. -1.
        -13    1    3    3    0    0  0.27203214432E+02  0.18224026667E+03 -0.92229617276E+03  0.94052206777E+03  0.00000000000E+00 0.  1.
          3    1    5    5  502    0 -0.28842358572E+03 -0.76713370986E+02  0.98958193322E+02  0.31442937221E+03  0.00000000000E+00 0. -1.
          3    1    6    6  503    0  0.22761465761E+03 -0.10108605502E+03  0.15895492996E+02  0.24955858946E+03  0.00000000000E+00 0. -1.
         -3    1    5    5    0  502 -0.16589524417E+03 -0.29078485304E+02  0.13328843778E+03  0.21478500412E+03  0.00000000000E+00 0.  1.
         -3    1    6    6    0  503  0.15565492995E+03 -0.69792847386E+02 -0.67282317967E+02  0.18337505030E+03  0.00000000000E+00 0.  1.
<mgrwt>
<rscale>  0 0.23125438E+04</rscale>
<asrwt>0</asrwt>
<pdfrwt beam="1">  1        2 0.35255867E+00 0.23125438E+04</pdfrwt>
<pdfrwt beam="2">  1       -2 0.89755658E-01 0.23125438E+04</pdfrwt>
<totfact> 0.44140452E+00</totfact>
</mgrwt>
</event>
<event>
12    1  0.4672461E-008  0.2132876E+04  0.7818608E-02  0.8546898E-01
         -1   -1    0    0    0  501 -0.00000000000E+00  0.00000000000E+00  0.66432364914E+03  0.66432364914E+03  0.00000000000E+00 0.  1.
          1   -1    0    0  501    0  0.00000000000E+00 -0.00000000000E+00 -0.17119512834E+04  0.17119512834E+04  0.00000000000E+00 0. -1.
         23    2    1    2    0    0 -0.60184233681E+03  0.31551303121E+03  0.17992840182E+03  0.70886874673E+03  0.91422092893E+02 0.  0.
        254    2    1    2    0    0  0.60184233681E+03 -0.31551303121E+03 -0.12275560361E+04  0.16674061858E+04  0.90088117723E+03 0.  0.
         23    2    4    4    0    0  0.78116589453E+03 -0.35493082968E+03 -0.73296223988E+03  0.11320344406E+04  0.89845873865E+02 0.  0.
         23    2    4    4    0    0 -0.17932355771E+03  0.39417798472E+02 -0.49459379621E+03  0.53537174518E+03  0.91044940015E+02 0.  0.
         11    1    3    3    0    0 -0.15103092965E+03  0.70532026281E+02  0.49012058166E+01  0.16676069759E+03  0.00000000000E+00 0. -1.
        -11    1    3    3    0    0 -0.45081140716E+03  0.24498100493E+03  0.17502719601E+03  0.54210804914E+03  0.00000000000E+00 0.  1.
          1    1    6    6  502    0 -0.17634126727E+03  0.21588578014E+02 -0.48098049333E+03  0.51274218103E+03  0.00000000000E+00 0.  1.
          1    1    5    5  503    0  0.13087030717E+03 -0.63342812718E+02 -0.17096035454E+03  0.22442547103E+03  0.00000000000E+00 0. -1.
         -1    1    5    5    0  503  0.65029558736E+03 -0.29158801696E+03 -0.56200188534E+03  0.90760896960E+03  0.00000000000E+00 0.  1.
         -1    1    6    6    0  502 -0.29822904438E+01  0.17829220458E+02 -0.13613302881E+02  0.22629564153E+02  0.00000000000E+00 0. -1.
<mgrwt>
<rscale>  0 0.21328757E+04</rscale>
<asrwt>0</asrwt>
<pdfrwt beam="1">  1        1 0.26337711E+00 0.21328757E+04</pdfrwt>
<pdfrwt beam="2">  1       -1 0.10220364E+00 0.21328757E+04</pdfrwt>
<totfact> 0.38876743E+00</totfact>
</mgrwt>
</event>
<event>
12    1  0.4672461E-008  0.1562875E+04  0.7818608E-02  0.8843685E-01
         -1   -1    0    0    0  501 -0.00000000000E+00  0.00000000000E+00  0.70317303634E+03  0.70317303634E+03  0.00000000000E+00 0.  1.
          1   -1    0    0  501    0  0.00000000000E+00 -0.00000000000E+00 -0.86841338062E+03  0.86841338062E+03  0.00000000000E+00 0. -1.
         23    2    1    2    0    0 -0.30725130070E+03  0.10161087170E+03 -0.46930708524E+03  0.57569350363E+03  0.80285358818E+02 0.  0.
        254    2    1    2    0    0  0.30725130070E+03 -0.10161087170E+03  0.30406674095E+03  0.99589291334E+03  0.89141347356E+03 0.  0.
         23    2    4    4    0    0  0.51309510223E+03  0.20056076118E+03  0.26148079794E+03  0.61657223011E+03  0.91092833918E+02 0.  0.
         23    2    4    4    0    0 -0.20584380153E+03 -0.30217163288E+03  0.42585943010E+02  0.37932068323E+03  0.91603776322E+02 0.  0.
         13    1    3    3    0    0 -0.26152062663E+03  0.10412417414E+03 -0.43636342556E+03  0.51927634354E+03  0.00000000000E+00 0. -1.
        -13    1    3    3    0    0 -0.45730674072E+02 -0.25133024330E+01 -0.32943659677E+02  0.56417160094E+02  0.00000000000E+00 0.  1.
          2    1    5    5  502    0  0.35053317818E+03  0.16569635303E+03  0.14672970709E+03  0.41455807477E+03  0.00000000000E+00 0. -1.
          1    1    6    6  503    0 -0.18512288780E+03 -0.20970331330E+03  0.12915772517E+02  0.28002282117E+03  0.00000000000E+00 0. -1.
         -2    1    5    5    0  502  0.16256192405E+03  0.34864408154E+02  0.11475109086E+03  0.20201415534E+03  0.00000000000E+00 0.  1.
         -1    1    6    6    0  503 -0.20720913728E+02 -0.92468319586E+02  0.29670170493E+02  0.99297862061E+02  0.00000000000E+00 0.  1.
<mgrwt>
<rscale>  0 0.15628754E+04</rscale>
<asrwt>0</asrwt>
<pdfrwt beam="1">  1        1 0.13360206E+00 0.15628754E+04</pdfrwt>
<pdfrwt beam="2">  1       -1 0.10818047E+00 0.15628754E+04</pdfrwt>
<totfact> 0.14770645E+01</totfact>
</mgrwt>
</event>
<event>
12    1  0.4672461E-008  0.1312896E+04  0.7818608E-02  0.9019401E-01
          1   -1    0    0  501    0  0.00000000000E+00  0.00000000000E+00  0.34505760016E+03  0.34505760016E+03  0.00000000000E+00 0. -1.
         -1   -1    0    0    0  501 -0.00000000000E+00 -0.00000000000E+00 -0.12488459571E+04  0.12488459571E+04  0.00000000000E+00 0.  1.
         23    2    1    2    0    0 -0.20022765928E+03 -0.29415961037E+02 -0.56833716568E+03  0.61018049785E+03  0.91414942743E+02 0.  0.
        254    2    1    2    0    0  0.20022765928E+03  0.29415961037E+02 -0.33545119131E+03  0.98372305946E+03  0.90234535608E+03 0.  0.
         23    2    4    4    0    0  0.62812856233E+02 -0.15108882138E+03 -0.59718836511E+03  0.62588257065E+03  0.91223691907E+02 0.  0.
         23    2    4    4    0    0  0.13741480305E+03  0.18050478242E+03  0.26173717380E+03  0.35784048881E+03  0.89881381326E+02 0.  0.
         11    1    3    3    0    0 -0.17831053891E+03 -0.23037767564E+02 -0.55575978543E+03  0.58411841789E+03  0.00000000000E+00 0.  1.
        -11    1    3    3    0    0 -0.21917120379E+02 -0.63781934729E+01 -0.12577380246E+02  0.26062079954E+02  0.00000000000E+00 0. -1.
          2    1    6    6  502    0  0.11117046569E+03  0.13091942587E+03  0.24516749437E+03  0.29934239393E+03  0.00000000000E+00 0. -1.
          2    1    5    5  503    0  0.69140295194E+02 -0.13896620442E+03 -0.59068952051E+03  0.61074225008E+03  0.00000000000E+00 0. -1.
         -2    1    5    5    0  503 -0.63274389605E+01 -0.12122616962E+02 -0.64988445971E+01  0.15140320568E+02  0.00000000000E+00 0.  1.
         -2    1    6    6    0  502  0.26244337361E+02  0.49585356547E+02  0.16569679431E+02  0.58498094874E+02  0.00000000000E+00 0.  1.
<mgrwt>
<rscale>  0 0.13128957E+04</rscale>
<asrwt>0</asrwt>
<pdfrwt beam="1">  1        1 0.53085784E-01 0.13128957E+04</pdfrwt>
<pdfrwt beam="2">  1       -1 0.19213015E+00 0.13128957E+04</pdfrwt>
<totfact> 0.12228497E+01</totfact>
</mgrwt>
</event>
<event>
12    1  0.4672461E-008  0.3292616E+04  0.7818608E-02  0.8164777E-01
         -2   -1    0    0    0  501 -0.00000000000E+00  0.00000000000E+00  0.28030714826E+04  0.28030714826E+04  0.00000000000E+00 0.  1.
          2   -1    0    0  501    0  0.00000000000E+00 -0.00000000000E+00 -0.96691452363E+03  0.96691452363E+03  0.00000000000E+00 0. -1.
         23    2    1    2    0    0 -0.11500391907E+04 -0.15651612183E+03 -0.27146104701E+03  0.11955501497E+04  0.92529043113E+02 0.  0.
        254    2    1    2    0    0  0.11500391907E+04  0.15651612183E+03  0.21076180060E+04  0.25744358566E+04  0.91573952841E+03 0.  0.
         23    2    4    4    0    0 -0.60065689021E+02  0.55790811343E+02 -0.16250349039E+02  0.12620882794E+03  0.94573213854E+02 0.  0.
         23    2    4    4    0    0  0.12101048797E+04  0.10072531048E+03  0.21238683550E+04  0.24482270286E+04  0.92192115368E+02 0.  0.
         11    1    3    3    0    0 -0.34967946653E+03 -0.41609950476E+02 -0.39411556409E+02  0.35434501277E+03  0.00000000000E+00 0.  1.
        -11    1    3    3    0    0 -0.80035972416E+03 -0.11490617135E+03 -0.23204949060E+03  0.84120513691E+03  0.00000000000E+00 0. -1.
          3    1    5    5  502    0 -0.63108910954E+02 -0.59027272752E+01 -0.88144870123E+01  0.63994312344E+02  0.00000000000E+00 0. -1.
          3    1    6    6  503    0  0.69438382250E+03  0.93766431600E+02  0.11664733299E+04  0.13607428361E+04  0.00000000000E+00 0. -1.
         -3    1    5    5    0  502  0.30432219336E+01  0.61693538618E+02 -0.74358620271E+01  0.62214515597E+02  0.00000000000E+00 0.  1.
         -3    1    6    6    0  503  0.51572105722E+03  0.69588788830E+01  0.95739502507E+03  0.10874841925E+04  0.00000000000E+00 0.  1.
<mgrwt>
<rscale>  0 0.32926163E+04</rscale>
<asrwt>0</asrwt>
<pdfrwt beam="1">  1        2 0.14875608E+00 0.32926163E+04</pdfrwt>
<pdfrwt beam="2">  1       -2 0.43124176E+00 0.32926163E+04</pdfrwt>
<totfact> 0.10205910E-01</totfact>
</mgrwt>
</event>
<event>
12    1  0.4672461E-008  0.2449235E+04  0.7818608E-02  0.8421297E-01
         -2   -1    0    0    0  501 -0.00000000000E+00  0.00000000000E+00  0.57098603479E+03  0.57098603479E+03  0.00000000000E+00 0.  1.
          2   -1    0    0  501    0  0.00000000000E+00 -0.00000000000E+00 -0.26264886381E+04  0.26264886381E+04  0.00000000000E+00 0. -1.
         23    2    1    2    0    0 -0.39218540639E+03 -0.25111449336E+02  0.39007169825E+03  0.56129656184E+03  0.91966965221E+02 0.  0.
        254    2    1    2    0    0  0.39218540639E+03  0.25111449336E+02 -0.24455743015E+04  0.26361781110E+04  0.90230892203E+03 0.  0.
         23    2    4    4    0    0  0.36080862956E+03 -0.38237949853E+03 -0.10301160191E+04  0.11600794640E+04  0.90820713236E+02 0.  0.
         23    2    4    4    0    0  0.31376776822E+02  0.40749094787E+03 -0.14154582825E+04  0.14760986470E+04  0.91168479383E+02 0.  0.
         13    1    3    3    0    0 -0.18050537048E+03  0.11477669600E+02  0.23407148164E+03  0.29580970943E+03  0.00000000000E+00 0. -1.
        -13    1    3    3    0    0 -0.21168003591E+03 -0.36589118936E+02  0.15600021661E+03  0.26548685242E+03  0.00000000000E+00 0.  1.
          4    1    5    5  502    0  0.11767585292E+03 -0.18923530944E+03 -0.41604875779E+03  0.47196840737E+03  0.00000000000E+00 0. -1.
          3    1    6    6  503    0 -0.33142525388E+01  0.75383473887E+02 -0.40284206738E+03  0.40984800067E+03  0.00000000000E+00 0. -1.
         -4    1    5    5    0  502  0.24313277665E+03 -0.19314418910E+03 -0.61406726128E+03  0.68811105662E+03  0.00000000000E+00 0.  1.
         -3    1    6    6    0  503  0.34691029360E+02  0.33210747398E+03 -0.10126162151E+04  0.10662506463E+04  0.00000000000E+00 0.  1.
<mgrwt>
<rscale>  0 0.24492353E+04</rscale>
<asrwt>0</asrwt>
<pdfrwt beam="1">  1        2 0.40407518E+00 0.24492353E+04</pdfrwt>
<pdfrwt beam="2">  1       -2 0.87844004E-01 0.24492353E+04</pdfrwt>
<totfact> 0.29380951E+00</totfact>
</mgrwt>
</event>
<event>
12    1  0.4672461E-008  0.1864461E+04  0.7818608E-02  0.8672751E-01
         -1   -1    0    0    0  501 -0.00000000000E+00  0.00000000000E+00  0.13410220401E+04  0.13410220401E+04  0.00000000000E+00 0.  1.
          1   -1    0    0  501    0  0.00000000000E+00 -0.00000000000E+00 -0.64805339994E+03  0.64805339994E+03  0.00000000000E+00 0. -1.
         23    2    1    2    0    0  0.27170245856E+03  0.48708696396E+03 -0.20177093075E+03  0.60020322548E+03  0.91959050306E+02 0.  0.
        254    2    1    2    0    0 -0.27170245856E+03 -0.48708696396E+03  0.89473957087E+03  0.13888722145E+04  0.90406371023E+03 0.  0.
         23    2    4    4    0    0 -0.38626296344E+03 -0.70010158063E+03  0.67095706603E+03  0.10475098499E+04  0.88046584854E+02 0.  0.
         23    2    4    4    0    0  0.11456050489E+03  0.21301461667E+03  0.22378250484E+03  0.34136236460E+03  0.89164557404E+02 0.  0.
         13    1    3    3    0    0  0.21826165449E+03  0.37847948014E+03 -0.11659142014E+03  0.45219290790E+03  0.00000000000E+00 0.  1.
        -13    1    3    3    0    0  0.53440804069E+02  0.10860748382E+03 -0.85179510608E+02  0.14801031757E+03  0.00000000000E+00 0. -1.
          1    1    5    5  502    0 -0.71218791485E+01 -0.16059221841E+02  0.82314444373E+00  0.17586851211E+02  0.00000000000E+00 0. -1.
          1    1    6    6  503    0  0.51382907452E+02  0.80579165021E+02  0.14810884458E+03  0.17626524007E+03  0.00000000000E+00 0. -1.
         -1    1    5    5    0  502 -0.37914108430E+03 -0.68404235879E+03  0.67013392159E+03  0.10299229987E+04  0.00000000000E+00 0.  1.
         -1    1    6    6    0  503  0.63177597436E+02  0.13243545165E+03  0.75673660263E+02  0.16509712453E+03  0.00000000000E+00 0.  1.
<mgrwt>
<rscale>  0 0.18644612E+04</rscale>
<asrwt>0</asrwt>
<pdfrwt beam="1">  1        1 0.99700523E-01 0.18644612E+04</pdfrwt>
<pdfrwt beam="2">  1       -1 0.20631108E+00 0.18644612E+04</pdfrwt>
<totfact> 0.39099051E+00</totfact>
</mgrwt>
</event>
<event>
12    1  0.4672461E-008  0.1426002E+04  0.7818608E-02  0.8935209E-01
         -1   -1    0    0    0  501 -0.00000000000E+00  0.00000000000E+00  0.20815728917E+03  0.20815728917E+03  0.00000000000E+00 0.  1.
          1   -1    0    0  501    0  0.00000000000E+00 -0.00000000000E+00 -0.24422403200E+04  0.24422403200E+04  0.00000000000E+00 0. -1.
         23    2    1    2    0    0 -0.31479280853E+03 -0.24348771073E+03 -0.95454324852E+03  0.10381933975E+04  0.91169839709E+02 0.  0.
        254    2    1    2    0    0  0.31479280853E+03  0.24348771073E+03 -0.12795397823E+04  0.16122042117E+04  0.89643716352E+03 0.  0.
         23    2    4    4    0    0  0.36628515052E+03 -0.60377540745E+01 -0.85018533251E+02  0.38755269302E+03  0.93635852654E+02 0.  0.
         23    2    4    4    0    0 -0.51492341987E+02  0.24952546480E+03 -0.11945212491E+04  0.12246515187E+04  0.89307944213E+02 0.  0.
         13    1    3    3    0    0 -0.15301845468E+03 -0.71847243400E+02 -0.33414099112E+03  0.37446879149E+03  0.00000000000E+00 0.  1.
        -13    1    3    3    0    0 -0.16177435386E+03 -0.17164046733E+03 -0.62040225740E+03  0.66372460597E+03  0.00000000000E+00 0. -1.
          4    1    5    5  502    0  0.25274824455E+03 -0.38925428008E+02 -0.84565296855E+02  0.26934764432E+03  0.00000000000E+00 0. -1.
          3    1    6    6  503    0 -0.47988792788E+02  0.87682230449E+02 -0.31910510587E+03  0.33439372955E+03  0.00000000000E+00 0. -1.
         -4    1    5    5    0  502  0.11353690597E+03  0.32887673933E+02 -0.45323639645E+00  0.11820504870E+03  0.00000000000E+00 0.  1.
         -3    1    6    6    0  503 -0.35035491995E+01  0.16184323435E+03 -0.87541614321E+03  0.89025778915E+03  0.00000000000E+00 0.  1.
<mgrwt>
<rscale>  0 0.14260016E+04</rscale>
<asrwt>0</asrwt>
<pdfrwt beam="1">  1        1 0.37572928E+00 0.14260016E+04</pdfrwt>
<pdfrwt beam="2">  1       -1 0.32024198E-01 0.14260016E+04</pdfrwt>
<totfact> 0.13182116E+01</totfact>
</mgrwt>
</event>
<event>
12    1  0.4672461E-008  0.2360025E+04  0.7818608E-02  0.8454623E-01
         -1   -1    0    0    0  501 -0.00000000000E+00  0.00000000000E+00  0.99938652899E+03  0.99938652899E+03  0.00000000000E+00 0.  1.
          1   -1    0    0  501    0  0.00000000000E+00 -0.00000000000E+00 -0.13932844739E+04  0.13932844739E+04  0.00000000000E+00 0. -1.
         23    2    1    2    0    0  0.65613702282E+03  0.67662602560E+03 -0.52385159608E+03  0.10823490426E+04  0.93382997069E+02 0.  0.
        254    2    1    2    0    0 -0.65613702282E+03 -0.67662602560E+03  0.12995365121E+03  0.13103219602E+04  0.90095344871E+03 0.  0.
         23    2    4    4    0    0 -0.56200205893E+02 -0.16150141963E+03 -0.33580869483E+03  0.38791939543E+03  0.92047847013E+02 0.  0.
         23    2    4    4    0    0 -0.59993681692E+03 -0.51512460597E+03  0.46576234603E+03  0.92240256479E+03  0.92813709004E+02 0.  0.
         13    1    3    3    0    0  0.25716924072E+03  0.31247680360E+03 -0.18748511994E+03  0.44601394750E+03  0.00000000000E+00 0.  1.
        -13    1    3    3    0    0  0.39896778210E+03  0.36414922200E+03 -0.33636647613E+03  0.63633509514E+03  0.00000000000E+00 0. -1.
          4    1    5    5  502    0 -0.33593666600E+02 -0.94365610639E+02 -0.28109987807E+03  0.29841337831E+03  0.00000000000E+00 0. -1.
          3    1    6    6  503    0 -0.12219500303E+03 -0.15233337617E+03  0.13466128224E+03  0.23721453833E+03  0.00000000000E+00 0. -1.
         -4    1    5    5    0  502 -0.22606539292E+02 -0.67135808994E+02 -0.54708816762E+02  0.89506017114E+02  0.00000000000E+00 0.  1.
         -3    1    6    6    0  503 -0.47774181390E+03 -0.36279122980E+03  0.33110106379E+03  0.68518802646E+03  0.00000000000E+00 0.  1.
<mgrwt>
<rscale>  0 0.23600252E+04</rscale>
<asrwt>0</asrwt>
<pdfrwt beam="1">  1        1 0.21435146E+00 0.23600252E+04</pdfrwt>
<pdfrwt beam="2">  1       -1 0.15375177E+00 0.23600252E+04</pdfrwt>
<totfact> 0.22788216E+00</totfact>
</mgrwt>
</event>
<event>
12    1  0.4672461E-008  0.1962033E+04  0.7818608E-02  0.8624580E-01
         -2   -1    0    0    0  501 -0.00000000000E+00  0.00000000000E+00  0.12720723699E+04  0.12720723699E+04  0.00000000000E+00 0.  1.
          2   -1    0    0  501    0  0.00000000000E+00 -0.00000000000E+00 -0.75655557506E+03  0.75655557506E+03  0.00000000000E+00 0. -1.
         23    2    1    2    0    0 -0.36258675427E+03 -0.14091628169E+03 -0.48046327729E+03  0.62505286881E+03  0.92301544777E+02 0.  0.
        254    2    1    2    0    0  0.36258675427E+03  0.14091628169E+03  0.99598007210E+03  0.14035750761E+04  0.90924151768E+03 0.  0.
         23    2    4    4    0    0  0.25804518858E+03  0.72532699771E+02  0.11511573109E+04  0.11856836848E+04  0.93991137478E+02 0.  0.
         23    2    4    4    0    0  0.10454156569E+03  0.68383581914E+02 -0.15517723882E+03  0.21789139137E+03  0.88269075851E+02 0.  0.
         13    1    3    3    0    0 -0.13331628008E+02  0.58802773007E+01 -0.19169019702E+01  0.14696410434E+02  0.00000000000E+00 0.  1.
        -13    1    3    3    0    0 -0.34925512626E+03 -0.14679655899E+03 -0.47854637532E+03  0.61035645837E+03  0.00000000000E+00 0. -1.
          2    1    5    5  502    0  0.50461721442E+02  0.53788412367E+02  0.36419516352E+03  0.37158807270E+03  0.00000000000E+00 0.  1.
          1    1    6    6  503    0  0.43366046623E+02  0.57886893757E+02 -0.13406129431E+03  0.15232838573E+03  0.00000000000E+00 0. -1.
         -2    1    5    5    0  502  0.20758346714E+03  0.18744287405E+02  0.78696214740E+03  0.81409561206E+03  0.00000000000E+00 0. -1.
         -1    1    6    6    0  503  0.61175519065E+02  0.10496688157E+02 -0.21115944515E+02  0.65563005635E+02  0.00000000000E+00 0.  1.
<mgrwt>
<rscale>  0 0.19620331E+04</rscale>
<asrwt>0</asrwt>
<pdfrwt beam="1">  1        2 0.11639317E+00 0.19620331E+04</pdfrwt>
<pdfrwt beam="2">  1       -2 0.19570344E+00 0.19620331E+04</pdfrwt>
<totfact> 0.49029816E+00</totfact>
</mgrwt>
</event>
<event>
12    1  0.4672461E-008  0.1112660E+04  0.7818608E-02  0.9192940E-01
          2   -1    0    0  501    0  0.00000000000E+00  0.00000000000E+00  0.68444834387E+03  0.68444834387E+03  0.00000000000E+00 0. -1.
         -2   -1    0    0    0  501 -0.00000000000E+00 -0.00000000000E+00 -0.45219336825E+03  0.45219336825E+03  0.00000000000E+00 0.  1.
         23    2    1    2    0    0 -0.76279002006E+02  0.78083823000E+02 -0.96524770064E+02  0.17061721797E+03  0.88756037944E+02 0.  0.
        254    2    1    2    0    0  0.76279002006E+02 -0.78083823000E+02  0.32877974569E+03  0.96602449415E+03  0.90177138597E+03 0.  0.
         23    2    4    4    0    0 -0.22347455964E+02  0.19508446932E+03  0.55062154404E+03  0.59168069120E+03  0.91348763648E+02 0.  0.
         23    2    4    4    0    0  0.98626457969E+02 -0.27316829232E+03 -0.22184179835E+03  0.37434380295E+03  0.81064204009E+02 0.  0.
         11    1    3    3    0    0 -0.13456174563E+02 -0.17974803974E+02 -0.31550899377E+02  0.38724946266E+02  0.00000000000E+00 0. -1.
        -11    1    3    3    0    0 -0.62822827442E+02  0.96058626974E+02 -0.64973870688E+02  0.13189227171E+03  0.00000000000E+00 0.  1.
          3    1    5    5  502    0  0.17247225032E+02  0.26592739929E+02  0.17829651913E+03  0.18109193610E+03  0.00000000000E+00 0. -1.
          3    1    6    6  503    0 -0.63883788908E+01 -0.91154925957E+02 -0.68922173877E+02  0.11445653307E+03  0.00000000000E+00 0. -1.
         -3    1    5    5    0  502 -0.39594680996E+02  0.16849172940E+03  0.37232502491E+03  0.41058875510E+03  0.00000000000E+00 0.  1.
         -3    1    6    6    0  503  0.10501483686E+03 -0.18201336637E+03 -0.15291962447E+03  0.25988726988E+03  0.00000000000E+00 0.  1.
<mgrwt>
<rscale>  0 0.11126599E+04</rscale>
<asrwt>0</asrwt>
<pdfrwt beam="1">  1        2 0.10529975E+00 0.11126599E+04</pdfrwt>
<pdfrwt beam="2">  1       -2 0.69568211E-01 0.11126599E+04</pdfrwt>
<totfact> 0.78846739E+01</totfact>
</mgrwt>
</event>
<event>
12    1  0.4672461E-008  0.1707450E+04  0.7818608E-02  0.8757127E-01
         -1   -1    0    0    0  501 -0.00000000000E+00  0.00000000000E+00  0.21645601257E+03  0.21645601257E+03  0.00000000000E+00 0.  1.
          1   -1    0    0  501    0  0.00000000000E+00 -0.00000000000E+00 -0.33671807283E+04  0.33671807283E+04  0.00000000000E+00 0. -1.
         23    2    1    2    0    0  0.58345102179E+03 -0.93905186103E+02 -0.16670577942E+04  0.17712011824E+04  0.94014150252E+02 0.  0.
        254    2    1    2    0    0 -0.58345102179E+03  0.93905186103E+02 -0.14836669215E+04  0.18124355585E+04  0.85698415435E+03 0.  0.
         23    2    4    4    0    0  0.17934749423E+03 -0.10187166179E+03 -0.50254983079E+03  0.55108546837E+03  0.92711929445E+02 0.  0.
         23    2    4    4    0    0 -0.76279851602E+03  0.19577684789E+03 -0.98111709071E+03  0.12613500901E+04  0.90681607149E+02 0.  0.
         11    1    3    3    0    0  0.18667210477E+03 -0.58601016212E+02 -0.65401275125E+03  0.68265161876E+03  0.00000000000E+00 0.  1.
        -11    1    3    3    0    0  0.39677891702E+03 -0.35304169892E+02 -0.10130450430E+04  0.10885495636E+04  0.00000000000E+00 0. -1.
          1    1    6    6  502    0 -0.73069489820E+03  0.17279434382E+03 -0.90782272106E+03  0.11780980487E+04  0.00000000000E+00 0. -1.
          1    1    5    5  503    0  0.18375794461E+03 -0.11175129623E+03 -0.48352843444E+03  0.52920230662E+03  0.00000000000E+00 0. -1.
         -1    1    5    5    0  503 -0.44104503806E+01  0.98796344426E+01 -0.19021396346E+02  0.21883161751E+02  0.00000000000E+00 0.  1.
         -1    1    6    6    0  502 -0.32103617814E+02  0.22982504076E+02 -0.73294369654E+02  0.83252041377E+02  0.00000000000E+00 0.  1.
<mgrwt>
<rscale>  0 0.17074502E+04</rscale>
<asrwt>0</asrwt>
<pdfrwt beam="1">  1        1 0.51802780E+00 0.17074502E+04</pdfrwt>
<pdfrwt beam="2">  1       -1 0.33300925E-01 0.17074502E+04</pdfrwt>
<totfact> 0.25758924E+00</totfact>
</mgrwt>
</event>
<event>
12    1  0.4672461E-008  0.1283536E+04  0.7818608E-02  0.9042724E-01
          2   -1    0    0  501    0  0.00000000000E+00  0.00000000000E+00  0.52330481731E+03  0.52330481731E+03  0.00000000000E+00 0. -1.
         -2   -1    0    0    0  501 -0.00000000000E+00 -0.00000000000E+00 -0.78704795956E+03  0.78704795956E+03  0.00000000000E+00 0.  1.
         23    2    1    2    0    0  0.31886206600E+03  0.56583201136E+02 -0.22040545451E+02  0.33726126143E+03  0.91567991303E+02 0.  0.
        254    2    1    2    0    0 -0.31886206600E+03 -0.56583201136E+02 -0.24170259680E+03  0.97309151544E+03  0.88521877315E+03 0.  0.
         23    2    4    4    0    0 -0.54898347752E+03 -0.23153496391E+03 -0.30606859577E+02  0.60406594088E+03  0.94697322962E+02 0.  0.
         23    2    4    4    0    0  0.23012141152E+03  0.17495176278E+03 -0.21109573723E+03  0.36902557456E+03  0.89746760744E+02 0.  0.
         11    1    3    3    0    0  0.30829758244E+02  0.31677164445E+02  0.12908494052E+02  0.46049386091E+02  0.00000000000E+00 0. -1.
        -11    1    3    3    0    0  0.28803230775E+03  0.24906036691E+02 -0.34949039503E+02  0.29121187534E+03  0.00000000000E+00 0.  1.
          4    1    5    5  502    0 -0.71840255214E+02 -0.42779967347E+02 -0.35707929301E+02  0.90918667447E+02  0.00000000000E+00 0. -1.
          1    1    6    6  503    0  0.12434701420E+02  0.18903326618E+02  0.69312728277E+01  0.23664321238E+02  0.00000000000E+00 0. -1.
         -4    1    5    5    0  502 -0.47714322231E+03 -0.18875499657E+03  0.51010697235E+01  0.51314727343E+03  0.00000000000E+00 0.  1.
         -1    1    6    6    0  503  0.21768671010E+03  0.15604843616E+03 -0.21802701005E+03  0.34536125332E+03  0.00000000000E+00 0.  1.
<mgrwt>
<rscale>  0 0.12835357E+04</rscale>
<asrwt>0</asrwt>
<pdfrwt beam="1">  1        2 0.80508433E-01 0.12835357E+04</pdfrwt>
<pdfrwt beam="2">  1       -2 0.12108430E+00 0.12835357E+04</pdfrwt>
<totfact> 0.29738421E+01</totfact>
</mgrwt>
</event>
<event>
12    1  0.4672461E-008  0.3387192E+04  0.7818608E-02  0.8141057E-01
         -2   -1    0    0    0  501 -0.00000000000E+00  0.00000000000E+00  0.68247801816E+03  0.68247801816E+03  0.00000000000E+00 0.  1.
          2   -1    0    0  501    0  0.00000000000E+00 -0.00000000000E+00 -0.42027257529E+04  0.42027257529E+04  0.00000000000E+00 0. -1.
         23    2    1    2    0    0  0.89050038360E+03  0.51508307849E+03 -0.33784168695E+04  0.35326907000E+04  0.88890531621E+02 0.  0.
        254    2    1    2    0    0 -0.89050038360E+03 -0.51508307849E+03 -0.14183086523E+03  0.13525130711E+04  0.86652991993E+03 0.  0.
         23    2    4    4    0    0 -0.63994301997E+03 -0.74508405954E+03 -0.16504658829E+03  0.99981743326E+03  0.87847589360E+02 0.  0.
         23    2    4    4    0    0 -0.25055736363E+03  0.23000098104E+03  0.23215723062E+02  0.35269563781E+03  0.90420127084E+02 0.  0.
         11    1    3    3    0    0  0.84062270956E+03  0.50204892717E+03 -0.31569998163E+04  0.33053513437E+04  0.00000000000E+00 0. -1.
        -11    1    3    3    0    0  0.49877674035E+02  0.13034151322E+02 -0.22141705320E+03  0.22733935628E+03  0.00000000000E+00 0.  1.
          4    1    5    5  502    0 -0.86380283384E+02 -0.11706246096E+03 -0.54639926256E+02  0.15540493771E+03  0.00000000000E+00 0.  1.
          1    1    6    6  503    0 -0.22226534776E+03  0.16081647224E+03 -0.28432670885E+00  0.27434267514E+03  0.00000000000E+00 0. -1.
         -4    1    5    5    0  502 -0.55356273658E+03 -0.62802159858E+03 -0.11040666203E+03  0.84441249554E+03  0.00000000000E+00 0. -1.
         -1    1    6    6    0  503 -0.28292015869E+02  0.69184508805E+02  0.23500049771E+02  0.78352962674E+02  0.00000000000E+00 0.  1.
<mgrwt>
<rscale>  0 0.33871923E+04</rscale>
<asrwt>0</asrwt>
<pdfrwt beam="1">  1        2 0.64657321E+00 0.33871923E+04</pdfrwt>
<pdfrwt beam="2">  1       -2 0.10499661E+00 0.33871923E+04</pdfrwt>
<totfact> 0.14058021E-01</totfact>
</mgrwt>
</event>
<event>
12    1  0.4672461E-008  0.2358702E+04  0.7818608E-02  0.8455129E-01
          2   -1    0    0  501    0  0.00000000000E+00  0.00000000000E+00  0.26530865269E+04  0.26530865269E+04  0.00000000000E+00 0. -1.
         -2   -1    0    0    0  501 -0.00000000000E+00 -0.00000000000E+00 -0.52424563937E+03  0.52424563937E+03  0.00000000000E+00 0.  1.
         23    2    1    2    0    0  0.70635318905E+03  0.54728659118E+03  0.28762772639E+03  0.94291588595E+03  0.88900047356E+02 0.  0.
        254    2    1    2    0    0 -0.70635318905E+03 -0.54728659118E+03  0.18412131611E+04  0.22344162803E+04  0.89671219936E+03 0.  0.
         23    2    4    4    0    0 -0.76378658966E+03 -0.41030609687E+03  0.81464909678E+03  0.11930541740E+04  0.89465431960E+02 0.  0.
         23    2    4    4    0    0  0.57433400614E+02 -0.13698049431E+03  0.10265640644E+04  0.10413621063E+04  0.92406747288E+02 0.  0.
         13    1    3    3    0    0  0.31673771853E+03  0.27382320017E+03  0.17483521586E+03  0.45372820057E+03  0.00000000000E+00 0. -1.
        -13    1    3    3    0    0  0.38961547052E+03  0.27346339101E+03  0.11279251053E+03  0.48918768537E+03  0.00000000000E+00 0.  1.
          2    1    5    5  502    0 -0.39786564701E+02 -0.56393891529E+01  0.56590959158E+02  0.69406844757E+02  0.00000000000E+00 0. -1.
          3    1    6    6  503    0  0.52312385274E+02 -0.15096592768E+03  0.92165115914E+03  0.93539732527E+03  0.00000000000E+00 0. -1.
         -2    1    5    5    0  502 -0.72400002496E+03 -0.40466670772E+03  0.75805813762E+03  0.11236473292E+04  0.00000000000E+00 0.  1.
         -3    1    6    6    0  503  0.51210153397E+01  0.13985433370E+02  0.10491290523E+03  0.10596478108E+03  0.00000000000E+00 0.  1.
<mgrwt>
<rscale>  0 0.23587022E+04</rscale>
<asrwt>0</asrwt>
<pdfrwt beam="1">  1        2 0.40816715E+00 0.23587022E+04</pdfrwt>
<pdfrwt beam="2">  1       -2 0.80653177E-01 0.23587022E+04</pdfrwt>
<totfact> 0.34675540E+00</totfact>
</mgrwt>
</event>
<event>
12    1  0.4672461E-008  0.1749720E+04  0.7818608E-02  0.8733504E-01
          2   -1    0    0  501    0  0.00000000000E+00  0.00000000000E+00  0.30081437786E+04  0.30081437786E+04  0.00000000000E+00 0. -1.
         -2   -1    0    0    0  501 -0.00000000000E+00 -0.00000000000E+00 -0.25443605856E+03  0.25443605856E+03  0.00000000000E+00 0.  1.
         23    2    1    2    0    0 -0.29444791781E+01  0.54821920053E+03  0.16273934266E+04  0.17196953352E+04  0.91595410339E+02 0.  0.
        254    2    1    2    0    0  0.29444791781E+01 -0.54821920053E+03  0.11263142934E+04  0.15428845019E+04  0.90075287231E+03 0.  0.
         23    2    4    4    0    0  0.43444338354E+03 -0.25905693713E+03  0.43644057508E+03  0.67460046341E+03  0.93562062177E+02 0.  0.
         23    2    4    4    0    0 -0.43149890436E+03 -0.28916226340E+03  0.68987371835E+03  0.86828403854E+03  0.90472676910E+02 0.  0.
         13    1    3    3    0    0  0.80973711328E+00  0.53147482122E+03  0.15046076082E+04  0.15957162015E+04  0.00000000000E+00 0. -1.
        -13    1    3    3    0    0 -0.37542162914E+01  0.16744379314E+02  0.12278581849E+03  0.12397913373E+03  0.00000000000E+00 0.  1.
          2    1    6    6  502    0 -0.23441744967E+03 -0.16138613679E+03  0.45091712110E+03  0.53321972578E+03  0.00000000000E+00 0.  1.
          2    1    5    5  503    0  0.15372264337E+03 -0.78648728856E+02  0.20736390950E+03  0.26984451931E+03  0.00000000000E+00 0. -1.
         -2    1    5    5    0  503  0.28072074017E+03 -0.18040820828E+03  0.22907666557E+03  0.40475594410E+03  0.00000000000E+00 0.  1.
         -2    1    6    6    0  502 -0.19708145469E+03 -0.12777612661E+03  0.23895659725E+03  0.33506431275E+03  0.00000000000E+00 0. -1.
<mgrwt>
<rscale>  0 0.17497203E+04</rscale>
<asrwt>0</asrwt>
<pdfrwt beam="1">  1        2 0.46279133E+00 0.17497203E+04</pdfrwt>
<pdfrwt beam="2">  1       -2 0.39144011E-01 0.17497203E+04</pdfrwt>
<totfact> 0.10107787E+01</totfact>
</mgrwt>
</event>
<event>
12    1  0.4672461E-008  0.1771093E+04  0.7818608E-02  0.8721824E-01
          1   -1    0    0  501    0  0.00000000000E+00  0.00000000000E+00  0.87010029376E+03  0.87010029376E+03  0.00000000000E+00 0. -1.
         -1   -1    0    0    0  501 -0.00000000000E+00 -0.00000000000E+00 -0.90126732852E+03  0.90126732852E+03  0.00000000000E+00 0.  1.
         23    2    1    2    0    0  0.44567475860E+03  0.25418455310E+02  0.47340589070E+03  0.65704555084E+03  0.91233931221E+02 0.  0.
        254    2    1    2    0    0 -0.44567475860E+03 -0.25418455310E+02 -0.50457292547E+03  0.11143220714E+04  0.88760788272E+03 0.  0.
         23    2    4    4    0    0 -0.57856643400E+03  0.49820118572E+02 -0.65612823640E+03  0.88094011010E+03  0.91269119746E+02 0.  0.
         23    2    4    4    0    0  0.13289167541E+03 -0.75238573882E+02  0.15155531093E+03  0.23338196134E+03  0.90427248183E+02 0.  0.
         13    1    3    3    0    0  0.41896525131E+03  0.40487704827E+02  0.41510639968E+03  0.59117210616E+03  0.00000000000E+00 0. -1.
        -13    1    3    3    0    0  0.26709507289E+02 -0.15069249518E+02  0.58299491021E+02  0.65873444679E+02  0.00000000000E+00 0.  1.
          1    1    5    5  502    0 -0.51767543415E+02 -0.20270291005E+02 -0.49371872070E+02  0.74352841240E+02  0.00000000000E+00 0. -1.
          3    1    6    6  503    0  0.89329300547E+02 -0.34685831951E+01  0.53047569987E+02  0.10395094847E+03  0.00000000000E+00 0. -1.
         -1    1    5    5    0  502 -0.52679889059E+03  0.70090409578E+02 -0.60675636433E+03  0.80658726887E+03  0.00000000000E+00 0.  1.
         -3    1    6    6    0  503  0.43562374858E+02 -0.71769990687E+02  0.98507740944E+02  0.12943101287E+03  0.00000000000E+00 0.  1.
<mgrwt>
<rscale>  0 0.17710934E+04</rscale>
<asrwt>0</asrwt>
<pdfrwt beam="1">  1        1 0.13386158E+00 0.17710934E+04</pdfrwt>
<pdfrwt beam="2">  1       -1 0.13865651E+00 0.17710934E+04</pdfrwt>
<totfact> 0.78341803E+00</totfact>
</mgrwt>
</event>
<event>
12    1  0.4672461E-008  0.1360709E+04  0.7818608E-02  0.8982761E-01
         -1   -1    0    0    0  501 -0.00000000000E+00  0.00000000000E+00  0.22578352477E+03  0.22578352477E+03  0.00000000000E+00 0.  1.
          1   -1    0    0  501    0  0.00000000000E+00 -0.00000000000E+00 -0.20501163665E+04  0.20501163665E+04  0.00000000000E+00 0. -1.
         23    2    1    2    0    0  0.10604786811E+03 -0.25992776945E+03 -0.92131616091E+03  0.96742823112E+03  0.91023724178E+02 0.  0.
        254    2    1    2    0    0 -0.10604786811E+03  0.25992776945E+03 -0.90301668084E+03  0.13084716602E+04  0.90435079693E+03 0.  0.
         23    2    4    4    0    0  0.30408028611E+03 -0.71099865831E+02 -0.62555896595E+03  0.70559051645E+03  0.94941801654E+02 0.  0.
         23    2    4    4    0    0 -0.41012815422E+03  0.33102763529E+03 -0.27745771489E+03  0.60288114371E+03  0.93265704742E+02 0.  0.
         11    1    3    3    0    0  0.10087504948E+03 -0.17908275255E+03 -0.75429581396E+03  0.78179830061E+03  0.00000000000E+00 0. -1.
        -11    1    3    3    0    0  0.51728186260E+01 -0.80845016901E+02 -0.16702034694E+03  0.18562993051E+03  0.00000000000E+00 0.  1.
          4    1    5    5  502    0  0.70685386066E+02 -0.33958070945E+02 -0.24858867943E+03  0.26066435492E+03  0.00000000000E+00 0. -1.
          4    1    6    6  503    0 -0.31643686873E+03  0.24846857839E+03 -0.25406179096E+03  0.47583223931E+03  0.00000000000E+00 0. -1.
         -4    1    5    5    0  502  0.23339490005E+03 -0.37141794887E+02 -0.37697028652E+03  0.44492616153E+03  0.00000000000E+00 0.  1.
         -4    1    6    6    0  503 -0.93691285490E+02  0.82559056897E+02 -0.23395923922E+02  0.12704890440E+03  0.00000000000E+00 0.  1.
<mgrwt>
<rscale>  0 0.13607094E+04</rscale>
<asrwt>0</asrwt>
<pdfrwt beam="1">  1        1 0.31540251E+00 0.13607094E+04</pdfrwt>
<pdfrwt beam="2">  1       -1 0.34735927E-01 0.13607094E+04</pdfrwt>
<totfact> 0.21224303E+01</totfact>
</mgrwt>
</event>
<event>
12    1  0.4672461E-008  0.2086120E+04  0.7818608E-02  0.8567382E-01
          2   -1    0    0  501    0  0.00000000000E+00  0.00000000000E+00  0.98257890564E+03  0.98257890564E+03  0.00000000000E+00 0. -1.
         -2   -1    0    0    0  501 -0.00000000000E+00 -0.00000000000E+00 -0.11072636721E+04  0.11072636721E+04  0.00000000000E+00 0.  1.
         23    2    1    2    0    0 -0.46253601142E+03 -0.48360827221E+03  0.46581925561E+03  0.82061677374E+03  0.92778163597E+02 0.  0.
        254    2    1    2    0    0  0.46253601142E+03  0.48360827221E+03 -0.59050402210E+03  0.12692258040E+04  0.90245366567E+03 0.  0.
         23    2    4    4    0    0 -0.30640283745E+01 -0.15769714408E+01  0.20160267382E+03  0.22640994344E+03  0.10298518964E+03 0.  0.
         23    2    4    4    0    0  0.46560003980E+03  0.48518524365E+03 -0.79210669592E+03  0.10428158606E+04  0.88565137925E+02 0.  0.
         13    1    3    3    0    0 -0.58084006301E+02 -0.85724587851E+02  0.10920149259E+03  0.15049060680E+03  0.00000000000E+00 0.  1.
        -13    1    3    3    0    0 -0.40445200512E+03 -0.39788368436E+03  0.35661776302E+03  0.67012616695E+03  0.00000000000E+00 0. -1.
          4    1    5    5  502    0 -0.38465664247E+02  0.19908024639E+02  0.16675328320E+03  0.17228637273E+03  0.00000000000E+00 0. -1.
          1    1    6    6  503    0  0.42981008702E+03  0.46545229787E+03 -0.71323784185E+03  0.95398677745E+03  0.00000000000E+00 0. -1.
         -4    1    5    5    0  502  0.35401635873E+02 -0.21484996080E+02  0.34849390620E+02  0.54123570703E+02  0.00000000000E+00 0.  1.
         -1    1    6    6    0  503  0.35789952772E+02  0.19732945777E+02 -0.78868854073E+02  0.88829083138E+02  0.00000000000E+00 0.  1.
<mgrwt>
<rscale>  0 0.20861198E+04</rscale>
<asrwt>0</asrwt>
<pdfrwt beam="1">  1        2 0.15116599E+00 0.20861198E+04</pdfrwt>
<pdfrwt beam="2">  1       -2 0.17034826E+00 0.20861198E+04</pdfrwt>
<totfact> 0.50530193E+00</totfact>
</mgrwt>
</event>
<event>
12    1  0.4672461E-008  0.2645588E+04  0.7818608E-02  0.8352879E-01
          2   -1    0    0  501    0  0.00000000000E+00  0.00000000000E+00  0.27290827405E+04  0.27290827405E+04  0.00000000000E+00 0. -1.
         -2   -1    0    0    0  501 -0.00000000000E+00 -0.00000000000E+00 -0.64116197695E+03  0.64116197695E+03  0.00000000000E+00 0.  1.
         23    2    1    2    0    0  0.85795075805E+03 -0.14270035687E+03 -0.62466732739E+02  0.87660018436E+03  0.89904924444E+02 0.  0.
        254    2    1    2    0    0 -0.85795075805E+03  0.14270035687E+03  0.21503874962E+04  0.24936445330E+04  0.91523427497E+03 0.  0.
         23    2    4    4    0    0  0.18237191247E+03 -0.82619614311E+01  0.41927771626E+03  0.46629642944E+03  0.91163492095E+02 0.  0.
         23    2    4    4    0    0 -0.10403226705E+04  0.15096231830E+03  0.17311097800E+04  0.20273481036E+04  0.91314744033E+02 0.  0.
         13    1    3    3    0    0  0.15300876510E+03 -0.60150998080E+02 -0.19181604441E+02  0.16552268339E+03  0.00000000000E+00 0. -1.
        -13    1    3    3    0    0  0.70494199295E+03 -0.82549358787E+02 -0.43285128298E+02  0.71107750097E+03  0.00000000000E+00 0.  1.
          4    1    5    5  502    0  0.16591495563E+03 -0.11437167251E+02  0.27741118461E+03  0.32344326650E+03  0.00000000000E+00 0. -1.
          3    1    6    6  503    0 -0.70994266772E+03  0.11167149045E+03  0.11010510646E+04  0.13148393666E+04  0.00000000000E+00 0. -1.
         -4    1    5    5    0  502  0.16456956845E+02  0.31752058199E+01  0.14186653165E+03  0.14285316294E+03  0.00000000000E+00 0.  1.
         -3    1    6    6    0  503 -0.33038000280E+03  0.39290827848E+02  0.63005871541E+03  0.71250873698E+03  0.00000000000E+00 0.  1.
<mgrwt>
<rscale>  0 0.26455881E+04</rscale>
<asrwt>0</asrwt>
<pdfrwt beam="1">  1        2 0.41985888E+00 0.26455881E+04</pdfrwt>
<pdfrwt beam="2">  1       -2 0.98640305E-01 0.26455881E+04</pdfrwt>
<totfact> 0.19177692E+00</totfact>
</mgrwt>
</event>
<event>
12    1  0.4672461E-008  0.1673364E+04  0.7818608E-02  0.8776703E-01
         -3   -1    0    0    0  501 -0.00000000000E+00  0.00000000000E+00  0.22093166298E+03  0.22093166298E+03  0.00000000000E+00 0.  1.
          3   -1    0    0  501    0  0.00000000000E+00 -0.00000000000E+00 -0.31685662275E+04  0.31685662275E+04  0.00000000000E+00 0. -1.
         23    2    1    2    0    0  0.48858540153E+03  0.13083753258E+03 -0.44113641855E+03  0.67710126418E+03  0.89613769411E+02 0.  0.
        254    2    1    2    0    0 -0.48858540153E+03 -0.13083753258E+03 -0.25064981460E+04  0.27123966263E+04  0.90483608908E+03 0.  0.
         23    2    4    4    0    0 -0.54897771260E+02  0.73117196574E+02  0.27846655517E+02  0.13145644905E+03  0.90252268942E+02 0.  0.
         23    2    4    4    0    0 -0.43368763027E+03 -0.20395472915E+03 -0.25343448015E+04  0.25809401773E+04  0.93092070157E+02 0.  0.
         11    1    3    3    0    0  0.19138135510E+02  0.26347588267E+02 -0.32451462179E+02  0.45973481877E+02  0.00000000000E+00 0. -1.
        -11    1    3    3    0    0  0.46944726602E+03  0.10448994431E+03 -0.40868495637E+03  0.63112778230E+03  0.00000000000E+00 0.  1.
          4    1    6    6  502    0 -0.42092202816E+03 -0.18592845823E+03 -0.23015460485E+04  0.23470958563E+04  0.00000000000E+00 0. -1.
          4    1    5    5  503    0 -0.27902030333E+02  0.86391083004E+02  0.39747868892E+02  0.99105174440E+02  0.00000000000E+00 0. -1.
         -4    1    5    5    0  503 -0.26995740926E+02 -0.13273886429E+02 -0.11901213375E+02  0.32351274610E+02  0.00000000000E+00 0.  1.
         -4    1    6    6    0  502 -0.12765602107E+02 -0.18026270926E+02 -0.23279875298E+03  0.23384432093E+03  0.00000000000E+00 0.  1.
<mgrwt>
<rscale>  0 0.16733638E+04</rscale>
<asrwt>0</asrwt>
<pdfrwt beam="1">  1        3 0.48747168E+00 0.16733638E+04</pdfrwt>
<pdfrwt beam="2">  1       -3 0.33989490E-01 0.16733638E+04</pdfrwt>
<totfact> 0.85015032E-02</totfact>
</mgrwt>
</event>
<event>
12    1  0.4672461E-008  0.1565334E+04  0.7818608E-02  0.8842133E-01
          2   -1    0    0  501    0  0.00000000000E+00  0.00000000000E+00  0.28451199045E+04  0.28451199045E+04  0.00000000000E+00 0.  1.
         -2   -1    0    0    0  501 -0.00000000000E+00 -0.00000000000E+00 -0.21530455674E+03  0.21530455674E+03  0.00000000000E+00 0. -1.
         23    2    1    2    0    0 -0.49233888233E+02  0.21871365424E+03  0.21108684391E+04  0.21247284431E+04  0.91900769162E+02 0.  0.
        254    2    1    2    0    0  0.49233888233E+02 -0.21871365424E+03  0.51894690871E+03  0.93569601820E+03  0.74562826269E+03 0.  0.
         23    2    4    4    0    0  0.19363008260E+03  0.17756188410E+03  0.40134611027E+03  0.48837021694E+03  0.91683897136E+02 0.  0.
         23    2    4    4    0    0 -0.14439619437E+03 -0.39627553834E+03  0.11760079845E+03  0.44732580126E+03  0.91574349298E+02 0.  0.
         11    1    3    3    0    0 -0.15117636134E+02 -0.74957476651E+00  0.60444906411E+02  0.62311246943E+02  0.00000000000E+00 0. -1.
        -11    1    3    3    0    0 -0.34116252098E+02  0.21946322900E+03  0.20504235327E+04  0.20624171961E+04  0.00000000000E+00 0.  1.
          4    1    5    5  502    0  0.50032002534E+02  0.53209429040E+02  0.19335241381E+03  0.20668720459E+03  0.00000000000E+00 0. -1.
          3    1    6    6  503    0 -0.74173181075E+02 -0.87292455756E+02  0.36928735244E+02  0.12035516237E+03  0.00000000000E+00 0. -1.
         -4    1    5    5    0  502  0.14359808007E+03  0.12435245506E+03  0.20799369645E+03  0.28168301234E+03  0.00000000000E+00 0.  1.
         -3    1    6    6    0  503 -0.70223013297E+02 -0.30898308258E+03  0.80672063204E+02  0.32697063889E+03  0.00000000000E+00 0.  1.
<mgrwt>
<rscale>  0 0.15653335E+04</rscale>
<asrwt>0</asrwt>
<pdfrwt beam="1">  1        2 0.43771073E+00 0.15653335E+04</pdfrwt>
<pdfrwt beam="2">  1       -2 0.33123780E-01 0.15653335E+04</pdfrwt>
<totfact> 0.17849105E+01</totfact>
</mgrwt>
</event>
<event>
12    1  0.4672461E-008  0.1279140E+04  0.7818608E-02  0.9046273E-01
          2   -1    0    0  501    0  0.00000000000E+00  0.00000000000E+00  0.12499369580E+04  0.12499369580E+04  0.00000000000E+00 0. -1.
         -2   -1    0    0    0  501 -0.00000000000E+00 -0.00000000000E+00 -0.32725647949E+03  0.32725647949E+03  0.00000000000E+00 0.  1.
         23    2    1    2    0    0 -0.16909557672E+03  0.12838141394E+03 -0.71068951444E+02  0.24204140921E+03  0.91968181465E+02 0.  0.
        254    2    1    2    0    0  0.16909557672E+03 -0.12838141394E+03  0.99374942991E+03  0.13351520282E+04  0.86603574264E+03 0.  0.
         23    2    4    4    0    0 -0.32559957158E+03 -0.17851490535E+03  0.48650149513E+03  0.61861646878E+03  0.90110921904E+02 0.  0.
         23    2    4    4    0    0  0.49469514830E+03  0.50133491408E+02  0.50724793479E+03  0.71653555945E+03  0.94266027287E+02 0.  0.
         11    1    3    3    0    0 -0.27321751701E+02  0.63473431365E+02  0.35200778331E+01  0.69193536932E+02  0.00000000000E+00 0. -1.
        -11    1    3    3    0    0 -0.14177382502E+03  0.64907982575E+02 -0.74589029278E+02  0.17284787228E+03  0.00000000000E+00 0.  1.
          1    1    5    5  502    0 -0.28907781151E+03 -0.15713797156E+03  0.46881115034E+03  0.57274969917E+03  0.00000000000E+00 0. -1.
          3    1    6    6  503    0  0.49699627237E+03  0.51574869353E+02  0.49266088921E+03  0.70169795044E+03  0.00000000000E+00 0. -1.
         -1    1    5    5    0  502 -0.36521760061E+02 -0.21376933789E+02  0.17690344790E+02  0.45866769615E+02  0.00000000000E+00 0.  1.
         -3    1    6    6    0  503 -0.23011240718E+01 -0.14413779454E+01  0.14587045579E+02  0.14837609009E+02  0.00000000000E+00 0.  1.
<mgrwt>
<rscale>  0 0.12791403E+04</rscale>
<asrwt>0</asrwt>
<pdfrwt beam="1">  1        2 0.19229799E+00 0.12791403E+04</pdfrwt>
<pdfrwt beam="2">  1       -2 0.50347151E-01 0.12791403E+04</pdfrwt>
<totfact> 0.64767100E+01</totfact>
</mgrwt>
</event>
<event>
12    1  0.4672461E-008  0.1223897E+04  0.7818608E-02  0.9092193E-01
         -2   -1    0    0    0  501 -0.00000000000E+00  0.00000000000E+00  0.23915322779E+03  0.23915322779E+03  0.00000000000E+00 0.  1.
          2   -1    0    0  501    0  0.00000000000E+00 -0.00000000000E+00 -0.15658632384E+04  0.15658632384E+04  0.00000000000E+00 0. -1.
         23    2    1    2    0    0  0.16368504886E+03  0.61147058918E+02 -0.65075048112E+03  0.67978207852E+03  0.89976261113E+02 0.  0.
        254    2    1    2    0    0 -0.16368504886E+03 -0.61147058918E+02 -0.67595952953E+03  0.11252343877E+04  0.88243945044E+03 0.  0.
         23    2    4    4    0    0  0.30591485152E+03 -0.14723988228E+03 -0.89119117967E+02  0.36314081853E+03  0.93088976669E+02 0.  0.
         23    2    4    4    0    0 -0.46959990038E+03  0.86092823366E+02 -0.58684041156E+03  0.76209356918E+03  0.92026620440E+02 0.  0.
         11    1    3    3    0    0 -0.63772975502E+01  0.19999726655E+02 -0.55030137311E+02  0.58898005083E+02  0.00000000000E+00 0.  1.
        -11    1    3    3    0    0  0.17006234641E+03  0.41147332263E+02 -0.59572034381E+03  0.62088407343E+03  0.00000000000E+00 0. -1.
          4    1    5    5  502    0  0.49255524004E+02 -0.53770498494E+02 -0.47022042543E+02  0.86766615920E+02  0.00000000000E+00 0. -1.
          3    1    6    6  503    0 -0.35184672859E+02  0.30147828053E+02 -0.38144336564E+02  0.60015357638E+02  0.00000000000E+00 0. -1.
         -4    1    5    5    0  502  0.25665932752E+03 -0.93469383790E+02 -0.42097075424E+02  0.27637420261E+03  0.00000000000E+00 0.  1.
         -3    1    6    6    0  503 -0.43441522752E+03  0.55944995314E+02 -0.54869607499E+03  0.70207821154E+03  0.00000000000E+00 0.  1.
<mgrwt>
<rscale>  0 0.12238975E+04</rscale>
<asrwt>0</asrwt>
<pdfrwt beam="1">  1        2 0.24090205E+00 0.12238975E+04</pdfrwt>
<pdfrwt beam="2">  1       -2 0.36792803E-01 0.12238975E+04</pdfrwt>
<totfact> 0.79865759E+01</totfact>
</mgrwt>
</event>
<event>
12    1  0.4672461E-008  0.1448945E+04  0.7818608E-02  0.8919132E-01
         -2   -1    0    0    0  501 -0.00000000000E+00  0.00000000000E+00  0.17284380566E+03  0.17284380566E+03  0.00000000000E+00 0.  1.
          2   -1    0    0  501    0  0.00000000000E+00 -0.00000000000E+00 -0.30366163468E+04  0.30366163468E+04  0.00000000000E+00 0. -1.
         23    2    1    2    0    0 -0.22311367334E+03 -0.30774363108E+02 -0.16973155843E+04  0.17146213618E+04  0.91211013468E+02 0.  0.
        254    2    1    2    0    0  0.22311367334E+03  0.30774363108E+02 -0.11664569569E+04  0.14948387907E+04  0.90730061463E+03 0.  0.
         23    2    4    4    0    0 -0.72005548058E+01  0.44201143003E+03 -0.62819585543E+03  0.77351440591E+03  0.90931573798E+02 0.  0.
         23    2    4    4    0    0  0.23031422815E+03 -0.41123706692E+03 -0.53826110148E+03  0.72132438482E+03  0.91778460870E+02 0.  0.
         11    1    3    3    0    0 -0.20152824737E+03  0.29489788733E+01 -0.14782407247E+04  0.14919175484E+04  0.00000000000E+00 0. -1.
        -11    1    3    3    0    0 -0.21585425971E+02 -0.33723341981E+02 -0.21907485954E+03  0.22270381337E+03  0.00000000000E+00 0.  1.
          1    1    5    5  502    0 -0.18881953252E+02  0.16118586000E+02 -0.43014293166E+02  0.49664538555E+02  0.00000000000E+00 0. -1.
          1    1    6    6  503    0  0.11394323599E+03 -0.22343888977E+03 -0.35280148649E+03  0.43287052032E+03  0.00000000000E+00 0. -1.
         -1    1    5    5    0  502  0.11681398447E+02  0.42589284403E+03 -0.58518156226E+03  0.72384986736E+03  0.00000000000E+00 0.  1.
         -1    1    6    6    0  503  0.11637099216E+03 -0.18779817715E+03 -0.18545961498E+03  0.28845386450E+03  0.00000000000E+00 0.  1.
<mgrwt>
<rscale>  0 0.14489449E+04</rscale>
<asrwt>0</asrwt>
<pdfrwt beam="1">  1        2 0.46717176E+00 0.14489449E+04</pdfrwt>
<pdfrwt beam="2">  1       -2 0.26591354E-01 0.14489449E+04</pdfrwt>
<totfact> 0.20706555E+01</totfact>
</mgrwt>
</event>
<event>
12    1  0.4672461E-008  0.1825011E+04  0.7818608E-02  0.8693111E-01
          2   -1    0    0  501    0  0.00000000000E+00  0.00000000000E+00  0.37167172678E+03  0.37167172678E+03  0.00000000000E+00 0. -1.
         -2   -1    0    0    0  501 -0.00000000000E+00 -0.00000000000E+00 -0.22403274204E+04  0.22403274204E+04  0.00000000000E+00 0.  1.
         23    2    1    2    0    0 -0.63578293608E+03 -0.12742900450E+03 -0.10613350870E+04  0.12471184296E+04  0.91728499414E+02 0.  0.
        254    2    1    2    0    0  0.63578293608E+03  0.12742900450E+03 -0.80732060654E+03  0.13648807175E+04  0.88919891938E+03 0.  0.
         23    2    4    4    0    0  0.28140440353E+03 -0.36798112657E+03 -0.44984410991E+03  0.65257728415E+03  0.94333667065E+02 0.  0.
         23    2    4    4    0    0  0.35437853255E+03  0.49541013107E+03 -0.35747649663E+03  0.71230343333E+03  0.92581818937E+02 0.  0.
         13    1    3    3    0    0 -0.62132529474E+03 -0.13391660969E+03 -0.10508596112E+04  0.12281224299E+04  0.00000000000E+00 0.  1.
        -13    1    3    3    0    0 -0.14457641333E+02  0.64876051943E+01 -0.10475475794E+02  0.18995999768E+02  0.00000000000E+00 0. -1.
          2    1    6    6  502    0  0.34244266033E+03  0.45991254263E+03 -0.35579328643E+03  0.67481507478E+03  0.00000000000E+00 0. -1.
          2    1    5    5  503    0  0.25734204343E+03 -0.36116587590E+03 -0.44258570183E+03  0.62653636821E+03  0.00000000000E+00 0. -1.
         -2    1    5    5    0  503  0.24062360100E+02 -0.68152506727E+01 -0.72584080739E+01  0.26040915941E+02  0.00000000000E+00 0.  1.
         -2    1    6    6    0  502  0.11935872223E+02  0.35497588436E+02 -0.16832102033E+01  0.37488358554E+02  0.00000000000E+00 0.  1.
<mgrwt>
<rscale>  0 0.18250111E+04</rscale>
<asrwt>0</asrwt>
<pdfrwt beam="1">  1        2 0.57180265E-01 0.18250111E+04</pdfrwt>
<pdfrwt beam="2">  1       -2 0.34466576E+00 0.18250111E+04</pdfrwt>
<totfact> 0.13725805E+00</totfact>
</mgrwt>
</event>
<event>
12    1  0.4672461E-008  0.3149106E+04  0.7818608E-02  0.8202389E-01
         -2   -1    0    0    0  501 -0.00000000000E+00  0.00000000000E+00  0.29290728950E+04  0.29290728950E+04  0.00000000000E+00 0.  1.
          2   -1    0    0  501    0  0.00000000000E+00 -0.00000000000E+00 -0.84641717549E+03  0.84641717549E+03  0.00000000000E+00 0. -1.
         23    2    1    2    0    0  0.10229475673E+04  0.22958326620E+03  0.21458391744E+04  0.23900034233E+04  0.91435220833E+02 0.  0.
        254    2    1    2    0    0 -0.10229475673E+04 -0.22958326620E+03 -0.63183454879E+02  0.13854866471E+04  0.90357672547E+03 0.  0.
         23    2    4    4    0    0 -0.56812201071E+03 -0.56569857667E+03 -0.89630420390E+02  0.81184280426E+03  0.90981469907E+02 0.  0.
         23    2    4    4    0    0 -0.45482555662E+03  0.33611531047E+03  0.26446965511E+02  0.57364384288E+03  0.92347320499E+02 0.  0.
         13    1    3    3    0    0  0.77877145603E+01 -0.63951432636E+00  0.42110068393E+02  0.42828907722E+02  0.00000000000E+00 0. -1.
        -13    1    3    3    0    0  0.10151598528E+04  0.23022278053E+03  0.21037291060E+04  0.23471745156E+04  0.00000000000E+00 0.  1.
          1    1    5    5  502    0 -0.44975259272E+03 -0.39370291583E+03 -0.77030532524E+02  0.60267162165E+03  0.00000000000E+00 0. -1.
          3    1    6    6  503    0 -0.40963422754E+03  0.26937590673E+03  0.52258425851E+01  0.49029673559E+03  0.00000000000E+00 0. -1.
         -1    1    5    5    0  502 -0.11836941799E+03 -0.17199566084E+03 -0.12599887866E+02  0.20917118262E+03  0.00000000000E+00 0.  1.
         -3    1    6    6    0  503 -0.45191329079E+02  0.66739403739E+02  0.21221122926E+02  0.83347107290E+02  0.00000000000E+00 0.  1.
<mgrwt>
<rscale>  0 0.31491063E+04</rscale>
<asrwt>0</asrwt>
<pdfrwt beam="1">  1        2 0.13021803E+00 0.31491063E+04</pdfrwt>
<pdfrwt beam="2">  1       -2 0.45062659E+00 0.31491063E+04</pdfrwt>
<totfact> 0.92662715E-02</totfact>
</mgrwt>
</event>
<event>
12    1  0.4672461E-008  0.2268956E+04  0.7818608E-02  0.8490263E-01
          2   -1    0    0  501    0  0.00000000000E+00  0.00000000000E+00  0.18336515105E+04  0.18336515105E+04  0.00000000000E+00 0. -1.
         -2   -1    0    0    0  501 -0.00000000000E+00 -0.00000000000E+00 -0.70189999012E+03  0.70189999012E+03  0.00000000000E+00 0.  1.
         23    2    1    2    0    0 -0.61542654207E+03  0.49948675348E+03  0.10924427063E+04  0.13523259435E+04  0.84365545126E+02 0.  0.
        254    2    1    2    0    0  0.61542654207E+03 -0.49948675348E+03  0.39308814125E+02  0.11832255572E+04  0.87763357432E+03 0.  0.
         23    2    4    4    0    0 -0.89377044410E+02  0.77381393950E+01 -0.23454487359E+03  0.26803312571E+03  0.93714053822E+02 0.  0.
         23    2    4    4    0    0  0.70480358647E+03 -0.50722489287E+03  0.27385368771E+03  0.91519243150E+03  0.92499496956E+02 0.  0.
         11    1    3    3    0    0 -0.54454620660E+03  0.45981040059E+03  0.94059137190E+03  0.11801136829E+04  0.00000000000E+00 0. -1.
        -11    1    3    3    0    0 -0.70880335463E+02  0.39676352889E+02  0.15185133440E+03  0.17221226058E+03  0.00000000000E+00 0.  1.
          1    1    5    5  502    0 -0.85456141026E+01  0.36539720881E+02 -0.37199761018E+02  0.52839388171E+02  0.00000000000E+00 0. -1.
          3    1    6    6  503    0  0.16794012999E+03 -0.10392417913E+03  0.10103477105E+03  0.22183811040E+03  0.00000000000E+00 0. -1.
         -1    1    5    5    0  502 -0.80831430307E+02 -0.28801581486E+02 -0.19734511257E+03  0.21519373754E+03  0.00000000000E+00 0.  1.
         -3    1    6    6    0  503  0.53686345649E+03 -0.40330071375E+03  0.17281891667E+03  0.69335432109E+03  0.00000000000E+00 0.  1.
<mgrwt>
<rscale>  0 0.22689557E+04</rscale>
<asrwt>0</asrwt>
<pdfrwt beam="1">  1        2 0.28210023E+00 0.22689557E+04</pdfrwt>
<pdfrwt beam="2">  1       -2 0.10798461E+00 0.22689557E+04</pdfrwt>
<totfact> 0.51619009E+00</totfact>
</mgrwt>
</event>
<event>
12    1  0.4672461E-008  0.2011641E+04  0.7818608E-02  0.8601197E-01
          1   -1    0    0  501    0  0.00000000000E+00  0.00000000000E+00  0.80188225588E+03  0.80188225588E+03  0.00000000000E+00 0. -1.
         -1   -1    0    0    0  501 -0.00000000000E+00 -0.00000000000E+00 -0.12616258088E+04  0.12616258088E+04  0.00000000000E+00 0.  1.
         23    2    1    2    0    0 -0.62969737114E+03 -0.49816572037E+03 -0.96328814577E+02  0.81345750660E+03  0.88011421805E+02 0.  0.
        254    2    1    2    0    0  0.62969737114E+03  0.49816572037E+03 -0.36341473833E+03  0.12500505581E+04  0.88649211025E+03 0.  0.
         23    2    4    4    0    0  0.29464296246E+03  0.31922696790E+02  0.25420929141E+03  0.40187315660E+03  0.95111178403E+02 0.  0.
         23    2    4    4    0    0  0.33505440868E+03  0.46624302358E+03 -0.61762402975E+03  0.84817740147E+03  0.91112284796E+02 0.  0.
         13    1    3    3    0    0 -0.76035671224E+02 -0.27968775115E+02 -0.26201524985E+01  0.81058872919E+02  0.00000000000E+00 0. -1.
        -13    1    3    3    0    0 -0.55366169991E+03 -0.47019694525E+03 -0.93708662079E+02  0.73239863368E+03  0.00000000000E+00 0.  1.
          1    1    5    5  502    0  0.29872722897E+02 -0.47939036563E+01 -0.36405723517E+01  0.30473182515E+02  0.00000000000E+00 0. -1.
          3    1    6    6  503    0  0.18693281801E+03  0.19123632187E+03 -0.25417258836E+03  0.36894296839E+03  0.00000000000E+00 0. -1.
         -1    1    5    5    0  502  0.26477023956E+03  0.36716600446E+02  0.25784986376E+03  0.37139997408E+03  0.00000000000E+00 0.  1.
         -3    1    6    6    0  503  0.14812159067E+03  0.27500670171E+03 -0.36345144139E+03  0.47923443309E+03  0.00000000000E+00 0.  1.
<mgrwt>
<rscale>  0 0.20116415E+04</rscale>
<asrwt>0</asrwt>
<pdfrwt beam="1">  1        1 0.12336650E+00 0.20116415E+04</pdfrwt>
<pdfrwt beam="2">  1       -1 0.19409628E+00 0.20116415E+04</pdfrwt>
<totfact> 0.33758492E+00</totfact>
</mgrwt>
</event>
<event>
12    1  0.4672461E-008  0.1479713E+04  0.7818608E-02  0.8898056E-01
          2   -1    0    0  501    0  0.00000000000E+00  0.00000000000E+00  0.22931321290E+03  0.22931321290E+03  0.00000000000E+00 0. -1.
         -2   -1    0    0    0  501 -0.00000000000E+00 -0.00000000000E+00 -0.23870753704E+04  0.23870753704E+04  0.00000000000E+00 0.  1.
         23    2    1    2    0    0 -0.16440021603E+03 -0.37693856589E+03 -0.31031192631E+03  0.52235262966E+03  0.86305646503E+02 0.  0.
        254    2    1    2    0    0  0.16440021603E+03  0.37693856589E+03 -0.18474502312E+04  0.20940359537E+04  0.89599336212E+03 0.  0.
         23    2    4    4    0    0  0.46729633153E+03  0.15550069970E+03 -0.56654838307E+03  0.75637213562E+03  0.92603499403E+02 0.  0.
         23    2    4    4    0    0 -0.30289611550E+03  0.22143786619E+03 -0.12809018481E+04  0.13376638180E+04  0.88623699933E+02 0.  0.
         13    1    3    3    0    0 -0.46004936879E+02 -0.34091336879E+02 -0.48159962732E+02  0.74820154221E+02  0.00000000000E+00 0.  1.
        -13    1    3    3    0    0 -0.11839527915E+03 -0.34284722901E+03 -0.26215196358E+03  0.44753247544E+03  0.00000000000E+00 0. -1.
          2    1    5    5  502    0  0.28921840875E+03  0.99149107435E+02 -0.28160608434E+03  0.41566792058E+03  0.00000000000E+00 0. -1.
          2    1    6    6  503    0 -0.24586419805E+03  0.20723771333E+03 -0.99094171309E+03  0.10418071570E+04  0.00000000000E+00 0. -1.
         -2    1    5    5    0  502  0.17807792278E+03  0.56351592264E+02 -0.28494229873E+03  0.34070421503E+03  0.00000000000E+00 0.  1.
         -2    1    6    6    0  503 -0.57031917451E+02  0.14200152854E+02 -0.28996013505E+03  0.29585666101E+03  0.00000000000E+00 0.  1.
<mgrwt>
<rscale>  0 0.14797134E+04</rscale>
<asrwt>0</asrwt>
<pdfrwt beam="1">  1        2 0.35278956E-01 0.14797134E+04</pdfrwt>
<pdfrwt beam="2">  1       -2 0.36724236E+00 0.14797134E+04</pdfrwt>
<totfact> 0.17499668E+00</totfact>
</mgrwt>
</event>
<event>
12    1  0.4672461E-008  0.1569814E+04  0.7818608E-02  0.8839310E-01
          1   -1    0    0  501    0  0.00000000000E+00  0.00000000000E+00  0.22698968747E+04  0.22698968747E+04  0.00000000000E+00 0. -1.
         -1   -1    0    0    0  501 -0.00000000000E+00 -0.00000000000E+00 -0.27141288196E+03  0.27141288196E+03  0.00000000000E+00 0.  1.
         23    2    1    2    0    0 -0.29945911169E+03  0.17682514494E+03  0.12856285122E+04  0.13352631269E+04  0.95624553582E+02 0.  0.
        254    2    1    2    0    0  0.29945911169E+03 -0.17682514494E+03  0.71285548058E+03  0.12060466298E+04  0.90853874192E+03 0.  0.
         23    2    4    4    0    0 -0.29090020014E+03  0.89011009678E+02  0.26152690236E+03  0.41151929086E+03  0.91683803399E+02 0.  0.
         23    2    4    4    0    0  0.59035931183E+03 -0.26583615462E+03  0.45132857822E+03  0.79452733893E+03  0.91559972839E+02 0.  0.
         11    1    3    3    0    0 -0.31481406448E+01  0.22157923484E+02  0.43127138569E+02  0.48588418824E+02  0.00000000000E+00 0.  1.
        -11    1    3    3    0    0 -0.29631097104E+03  0.15466722146E+03  0.12425013736E+04  0.12866747081E+04  0.00000000000E+00 0. -1.
          4    1    5    5  502    0 -0.93462310314E+02  0.16478436534E+02  0.31910512319E+02  0.10012503741E+03  0.00000000000E+00 0. -1.
          3    1    6    6  503    0  0.25536210308E+03 -0.80019307482E+02  0.22468309479E+03  0.34942150240E+03  0.00000000000E+00 0. -1.
         -4    1    5    5    0  502 -0.19743788982E+03  0.72532573144E+02  0.22961639004E+03  0.31139425345E+03  0.00000000000E+00 0.  1.
         -3    1    6    6    0  503  0.33499720875E+03 -0.18581684714E+03  0.22664548343E+03  0.44510583652E+03  0.00000000000E+00 0.  1.
<mgrwt>
<rscale>  0 0.15698143E+04</rscale>
<asrwt>0</asrwt>
<pdfrwt beam="1">  1        1 0.34921489E+00 0.15698143E+04</pdfrwt>
<pdfrwt beam="2">  1       -1 0.41755829E-01 0.15698143E+04</pdfrwt>
<totfact> 0.10578556E+01</totfact>
</mgrwt>
</event>
<event>
12    1  0.4672461E-008  0.2786913E+04  0.7818608E-02  0.8307343E-01
          2   -1    0    0  501    0  0.00000000000E+00  0.00000000000E+00  0.29479703216E+04  0.29479703216E+04  0.00000000000E+00 0. -1.
         -2   -1    0    0    0  501 -0.00000000000E+00 -0.00000000000E+00 -0.65866358713E+03  0.65866358713E+03  0.00000000000E+00 0.  1.
         23    2    1    2    0    0 -0.43947145569E+03 -0.11504834345E+04  0.77334693889E+03  0.14569833822E+04  0.89374462467E+02 0.  0.
        254    2    1    2    0    0  0.43947145569E+03  0.11504834345E+04  0.15159597956E+04  0.21496505266E+04  0.89783962431E+03 0.  0.
         23    2    4    4    0    0  0.29227506429E+02  0.10690688406E+04  0.90767086607E+03  0.14055229395E+04  0.88689904641E+02 0.  0.
         23    2    4    4    0    0  0.41024394926E+03  0.81414593888E+02  0.60828892954E+03  0.74412758707E+03  0.93712379279E+02 0.  0.
         11    1    3    3    0    0 -0.36167888580E+03 -0.87452068192E+03  0.56042479287E+03  0.10998518027E+04  0.00000000000E+00 0.  1.
        -11    1    3    3    0    0 -0.77792569891E+02 -0.27596275262E+03  0.21292214602E+03  0.35713157943E+03  0.00000000000E+00 0. -1.
          2    1    5    5  502    0  0.32182969435E+02  0.10100055540E+04  0.82869396389E+03  0.13068590775E+04  0.00000000000E+00 0. -1.
          4    1    6    6  503    0  0.31215212787E+03  0.82180528358E+02  0.40080497748E+03  0.51462337699E+03  0.00000000000E+00 0. -1.
         -2    1    5    5    0  502 -0.29554630061E+01  0.59063286695E+02  0.78976902177E+02  0.98663862048E+02  0.00000000000E+00 0.  1.
         -4    1    6    6    0  503  0.98091821394E+02 -0.76593446928E+00  0.20748395206E+03  0.22950421008E+03  0.00000000000E+00 0.  1.
<mgrwt>
<rscale>  0 0.27869128E+04</rscale>
<asrwt>0</asrwt>
<pdfrwt beam="1">  1        2 0.45353389E+00 0.27869128E+04</pdfrwt>
<pdfrwt beam="2">  1       -2 0.10133286E+00 0.27869128E+04</pdfrwt>
<totfact> 0.13076922E+00</totfact>
</mgrwt>
</event>
<event>
12    1  0.4672461E-008  0.1792686E+04  0.7818608E-02  0.8710199E-01
          1   -1    0    0  501    0  0.00000000000E+00  0.00000000000E+00  0.11402154296E+04  0.11402154296E+04  0.00000000000E+00 0. -1.
         -1   -1    0    0    0  501 -0.00000000000E+00 -0.00000000000E+00 -0.70463074177E+03  0.70463074177E+03  0.00000000000E+00 0.  1.
         23    2    1    2    0    0  0.45528291303E+02 -0.53183246381E+03  0.58215125934E+03  0.79528243729E+03  0.93034786159E+02 0.  0.
        254    2    1    2    0    0 -0.45528291303E+02  0.53183246381E+03 -0.14656657155E+03  0.10495637340E+04  0.89173072002E+03 0.  0.
         23    2    4    4    0    0  0.10229517477E+02  0.35160725660E+03 -0.51248775998E+03  0.62784843135E+03  0.88417434363E+02 0.  0.
         23    2    4    4    0    0 -0.55757808780E+02  0.18022520721E+03  0.36592118843E+03  0.42171530269E+03  0.91407996518E+02 0.  0.
         11    1    3    3    0    0 -0.10001688262E+02 -0.33747130634E+03  0.39717917997E+03  0.52128515936E+03  0.00000000000E+00 0. -1.
        -11    1    3    3    0    0  0.55529979565E+02 -0.19436115747E+03  0.18497207937E+03  0.27399727793E+03  0.00000000000E+00 0.  1.
          1    1    5    5  502    0 -0.88704804294E+01  0.33046422699E+03 -0.49202933874E+03  0.59277159255E+03  0.00000000000E+00 0. -1.
          3    1    6    6  503    0 -0.36264184000E+02  0.12584678899E+03  0.15448246025E+03  0.20252737066E+03  0.00000000000E+00 0.  1.
         -1    1    5    5    0  502  0.19099997906E+02  0.21143029605E+02 -0.20458421230E+02  0.35076838799E+02  0.00000000000E+00 0.  1.
         -3    1    6    6    0  503 -0.19493624779E+02  0.54378418224E+02  0.21143872818E+03  0.21918793203E+03  0.00000000000E+00 0. -1.
<mgrwt>
<rscale>  0 0.17926861E+04</rscale>
<asrwt>0</asrwt>
<pdfrwt beam="1">  1        1 0.17541776E+00 0.17926861E+04</pdfrwt>
<pdfrwt beam="2">  1       -1 0.10840473E+00 0.17926861E+04</pdfrwt>
<totfact> 0.88242861E+00</totfact>
</mgrwt>
</event>
<event>
12    1  0.4672461E-008  0.1817102E+04  0.7818608E-02  0.8697257E-01
          1   -1    0    0  501    0  0.00000000000E+00  0.00000000000E+00  0.39417344523E+03  0.39417344523E+03  0.00000000000E+00 0. -1.
         -1   -1    0    0    0  501 -0.00000000000E+00 -0.00000000000E+00 -0.20941672550E+04  0.20941672550E+04  0.00000000000E+00 0.  1.
         23    2    1    2    0    0 -0.37996539658E+03  0.14102267120E+03  0.10657722136E+03  0.42938350851E+03  0.93543556035E+02 0.  0.
        254    2    1    2    0    0  0.37996539658E+03 -0.14102267120E+03 -0.18065710312E+04  0.20589571918E+04  0.90074676268E+03 0.  0.
         23    2    4    4    0    0 -0.28847436270E+03 -0.62282450304E+02 -0.55930676551E+03  0.63881694087E+03  0.90368492535E+02 0.  0.
         23    2    4    4    0    0  0.66843975927E+03 -0.78740220896E+02 -0.12472642657E+04  0.14201402509E+04  0.90102439866E+02 0.  0.
         11    1    3    3    0    0 -0.37540085865E+03  0.12876806319E+03  0.87744163094E+02  0.40645547964E+03  0.00000000000E+00 0. -1.
        -11    1    3    3    0    0 -0.45645379284E+01  0.12254608011E+02  0.18833058269E+02  0.22928028868E+02  0.00000000000E+00 0.  1.
          2    1    5    5  502    0 -0.26892237418E+03 -0.30466671386E+02 -0.47690461076E+03  0.54834794535E+03  0.00000000000E+00 0. -1.
          3    1    6    6  503    0  0.41898941696E+03 -0.81059105708E+02 -0.84846468755E+03  0.94974472158E+03  0.00000000000E+00 0. -1.
         -2    1    5    5    0  502 -0.19551988516E+02 -0.31815778918E+02 -0.82402154745E+02  0.90468995516E+02  0.00000000000E+00 0.  1.
         -3    1    6    6    0  503  0.24945034231E+03  0.23188848121E+01 -0.39879957811E+03  0.47039552932E+03  0.00000000000E+00 0.  1.
<mgrwt>
<rscale>  0 0.18171022E+04</rscale>
<asrwt>0</asrwt>
<pdfrwt beam="1">  1        1 0.60642070E-01 0.18171022E+04</pdfrwt>
<pdfrwt beam="2">  1       -1 0.32217957E+00 0.18171022E+04</pdfrwt>
<totfact> 0.13677523E+00</totfact>
</mgrwt>
</event>
<event>
12    1  0.4672461E-008  0.1209372E+04  0.7818608E-02  0.9104692E-01
         -2   -1    0    0    0  501 -0.00000000000E+00  0.00000000000E+00  0.20286500321E+03  0.20286500321E+03  0.00000000000E+00 0.  1.
          2   -1    0    0  501    0  0.00000000000E+00 -0.00000000000E+00 -0.18024076199E+04  0.18024076199E+04  0.00000000000E+00 0. -1.
         23    2    1    2    0    0  0.21868170634E+02 -0.14151966096E+03 -0.19340710182E+02  0.17396886240E+03  0.96876574500E+02 0.  0.
        254    2    1    2    0    0 -0.21868170634E+02  0.14151966096E+03 -0.15802019065E+04  0.18313037607E+04  0.91440109763E+03 0.  0.
         23    2    4    4    0    0  0.40893600475E+03 -0.66534079012E+02 -0.88891640024E+03  0.98585681248E+03  0.10042832497E+03 0.  0.
         23    2    4    4    0    0 -0.43080417538E+03  0.20805373997E+03 -0.69128550624E+03  0.84544694821E+03  0.89589591198E+02 0.  0.
         11    1    3    3    0    0  0.39368652837E+02 -0.18684400117E+02  0.13499803348E+02  0.45620634853E+02  0.00000000000E+00 0. -1.
        -11    1    3    3    0    0 -0.17500482204E+02 -0.12283526085E+03 -0.32840513530E+02  0.12834822754E+03  0.00000000000E+00 0.  1.
          3    1    6    6  502    0 -0.35892086054E+02  0.89707349633E+01 -0.21394688696E+02  0.42736970312E+02  0.00000000000E+00 0. -1.
          3    1    5    5  503    0  0.78409921726E+02  0.24117146589E+02 -0.14048127392E+03  0.16267987247E+03  0.00000000000E+00 0. -1.
         -3    1    5    5    0  503  0.33052608302E+03 -0.90651225601E+02 -0.74843512632E+03  0.82317694001E+03  0.00000000000E+00 0.  1.
         -3    1    6    6    0  502 -0.39491208933E+03  0.19908300501E+03 -0.66989081755E+03  0.80270997790E+03  0.00000000000E+00 0.  1.
<mgrwt>
<rscale>  0 0.12093724E+04</rscale>
<asrwt>0</asrwt>
<pdfrwt beam="1">  1        2 0.27729349E+00 0.12093724E+04</pdfrwt>
<pdfrwt beam="2">  1       -2 0.31210000E-01 0.12093724E+04</pdfrwt>
<totfact> 0.80794222E+01</totfact>
</mgrwt>
</event>
<event>
12    1  0.4672461E-008  0.1737872E+04  0.7818608E-02  0.8740054E-01
          1   -1    0    0  501    0  0.00000000000E+00  0.00000000000E+00  0.98966871942E+03  0.98966871942E+03  0.00000000000E+00 0. -1.
         -1   -1    0    0    0  501 -0.00000000000E+00 -0.00000000000E+00 -0.76293208151E+03  0.76293208151E+03  0.00000000000E+00 0.  1.
         23    2    1    2    0    0  0.45041195671E+03 -0.34077506815E+03 -0.20501074076E+03  0.60817577905E+03  0.94073357461E+02 0.  0.
        254    2    1    2    0    0 -0.45041195671E+03  0.34077506815E+03  0.43174737867E+03  0.11444250219E+04  0.89683011429E+03 0.  0.
         23    2    4    4    0    0 -0.69788082099E+03  0.13972085259E+03  0.21736245104E+03  0.74955645607E+03  0.89604066639E+02 0.  0.
         23    2    4    4    0    0  0.24746886429E+03  0.20105421556E+03  0.21438492762E+03  0.39486856581E+03  0.91085952164E+02 0.  0.
         11    1    3    3    0    0  0.26851728644E+03 -0.17036026832E+03 -0.73612188342E+02  0.32640911202E+03  0.00000000000E+00 0. -1.
        -11    1    3    3    0    0  0.18189467027E+03 -0.17041479983E+03 -0.13139855242E+03  0.28176666704E+03  0.00000000000E+00 0.  1.
          4    1    5    5  502    0 -0.20015152665E+03  0.37496188149E+02  0.20605648290E+02  0.20467337513E+03  0.00000000000E+00 0. -1.
          3    1    6    6  503    0  0.15080425474E+03  0.12495063978E+03  0.18268729284E+03  0.26782313678E+03  0.00000000000E+00 0. -1.
         -4    1    5    5    0  502 -0.49772929435E+03  0.10222466444E+03  0.19675680275E+03  0.54488308094E+03  0.00000000000E+00 0.  1.
         -3    1    6    6    0  503  0.96664609544E+02  0.76103575779E+02  0.31697634785E+02  0.12704542902E+03  0.00000000000E+00 0.  1.
<mgrwt>
<rscale>  0 0.17378723E+04</rscale>
<asrwt>0</asrwt>
<pdfrwt beam="1">  1        1 0.15225673E+00 0.17378723E+04</pdfrwt>
<pdfrwt beam="2">  1       -1 0.11737417E+00 0.17378723E+04</pdfrwt>
<totfact> 0.95568543E+00</totfact>
</mgrwt>
</event>
<event>
12    1  0.4672461E-008  0.2916641E+04  0.7818608E-02  0.8267943E-01
          2   -1    0    0  501    0  0.00000000000E+00  0.00000000000E+00  0.11190687963E+04  0.11190687963E+04  0.00000000000E+00 0.  1.
         -2   -1    0    0    0  501 -0.00000000000E+00 -0.00000000000E+00 -0.19004180928E+04  0.19004180928E+04  0.00000000000E+00 0. -1.
         23    2    1    2    0    0 -0.11606397688E+04 -0.50172425529E+03 -0.74191541290E+03  0.14687487442E+04  0.89288814308E+02 0.  0.
        254    2    1    2    0    0  0.11606397688E+04  0.50172425529E+03 -0.39433883584E+02  0.15507381450E+04  0.89689568062E+03 0.  0.
         23    2    4    4    0    0  0.21930477865E+03 -0.23368138237E+03  0.91496379989E+02  0.34589678770E+03  0.92581994907E+02 0.  0.
         23    2    4    4    0    0  0.94133499011E+03  0.73540563765E+03 -0.13093026357E+03  0.12048413573E+04  0.86988199123E+02 0.  0.
         11    1    3    3    0    0 -0.81513199106E+03 -0.33562077084E+03 -0.56053546525E+03  0.10446441846E+04  0.00000000000E+00 0. -1.
        -11    1    3    3    0    0 -0.34550777771E+03 -0.16610348444E+03 -0.18137994765E+03  0.42410455953E+03  0.00000000000E+00 0.  1.
          4    1    5    5  502    0  0.11439880994E+03 -0.15814003260E+03  0.15163122509E+02  0.19576842931E+03  0.00000000000E+00 0. -1.
          3    1    6    6  503    0  0.66555178846E+03  0.56014702804E+03 -0.72675077175E+02  0.87292928865E+03  0.00000000000E+00 0. -1.
         -4    1    5    5    0  502  0.10490596871E+03 -0.75541349764E+02  0.76333257480E+02  0.15012835839E+03  0.00000000000E+00 0.  1.
         -3    1    6    6    0  503  0.27578320166E+03  0.17525860961E+03 -0.58255186398E+02  0.33191206863E+03  0.00000000000E+00 0.  1.
<mgrwt>
<rscale>  0 0.29166409E+04</rscale>
<asrwt>0</asrwt>
<pdfrwt beam="1">  1        2 0.17216443E+00 0.29166409E+04</pdfrwt>
<pdfrwt beam="2">  1       -2 0.29237201E+00 0.29166409E+04</pdfrwt>
<totfact> 0.64674352E-01</totfact>
</mgrwt>
</event>
<event>
12    1  0.4672461E-008  0.1810342E+04  0.7818608E-02  0.8700819E-01
          1   -1    0    0  501    0  0.00000000000E+00  0.00000000000E+00  0.73160067683E+03  0.73160067683E+03  0.00000000000E+00 0. -1.
         -1   -1    0    0    0  501 -0.00000000000E+00 -0.00000000000E+00 -0.11199204264E+04  0.11199204264E+04  0.00000000000E+00 0.  1.
         23    2    1    2    0    0 -0.20444912740E+03 -0.49334550037E+03  0.28466659597E+03  0.61222480737E+03  0.92708766933E+02 0.  0.
        254    2    1    2    0    0  0.20444912740E+03  0.49334550037E+03 -0.67298634556E+03  0.12392962959E+04  0.89317157324E+03 0.  0.
         23    2    4    4    0    0 -0.30192712411E+03  0.13762403487E+02 -0.97497247832E+02  0.33038978855E+03  0.91116996327E+02 0.  0.
         23    2    4    4    0    0  0.50637625151E+03  0.47958309688E+03 -0.57548909773E+03  0.90890650733E+03  0.92230594453E+02 0.  0.
         11    1    3    3    0    0  0.69063213348E+01 -0.33129552462E+02  0.66031204032E+01  0.34479932131E+02  0.00000000000E+00 0.  1.
        -11    1    3    3    0    0 -0.21135544873E+03 -0.46021594791E+03  0.27806347557E+03  0.57774487524E+03  0.00000000000E+00 0. -1.
          4    1    5    5  502    0 -0.15760329960E+03 -0.37745034530E+02 -0.42043187996E+02  0.16742496031E+03  0.00000000000E+00 0. -1.
          1    1    6    6  503    0  0.33909427776E+03  0.37639644372E+03 -0.40172365585E+03  0.64656098531E+03  0.00000000000E+00 0. -1.
         -4    1    5    5    0  502 -0.14432382451E+03  0.51507438016E+02 -0.55454059836E+02  0.16296482824E+03  0.00000000000E+00 0.  1.
         -1    1    6    6    0  503  0.16728197375E+03  0.10318665316E+03 -0.17376544188E+03  0.26234552202E+03  0.00000000000E+00 0.  1.
<mgrwt>
<rscale>  0 0.18103420E+04</rscale>
<asrwt>0</asrwt>
<pdfrwt beam="1">  1        1 0.11255395E+00 0.18103420E+04</pdfrwt>
<pdfrwt beam="2">  1       -1 0.17229545E+00 0.18103420E+04</pdfrwt>
<totfact> 0.56808618E+00</totfact>
</mgrwt>
</event>
<event>
12    1  0.4672461E-008  0.2333658E+04  0.7818608E-02  0.8464767E-01
          2   -1    0    0  501    0  0.00000000000E+00  0.00000000000E+00  0.18271366382E+04  0.18271366382E+04  0.00000000000E+00 0. -1.
         -2   -1    0    0    0  501 -0.00000000000E+00 -0.00000000000E+00 -0.74514952407E+03  0.74514952407E+03  0.00000000000E+00 0.  1.
         23    2    1    2    0    0  0.45937982370E+03  0.58741276005E+03 -0.26382168745E+03  0.79627996968E+03  0.91522315624E+02 0.  0.
        254    2    1    2    0    0 -0.45937982370E+03 -0.58741276005E+03  0.13458088016E+04  0.17760061926E+04  0.88708122099E+03 0.  0.
         23    2    4    4    0    0 -0.18430781308E+03 -0.76984925017E+03  0.10922210682E+04  0.13519965788E+04  0.91162762782E+02 0.  0.
         23    2    4    4    0    0 -0.27507201062E+03  0.18243649012E+03  0.25358773344E+03  0.42400961384E+03  0.80806745515E+02 0.  0.
         13    1    3    3    0    0  0.25609489487E+03  0.32081600180E+03 -0.19308382388E+03  0.45363957635E+03  0.00000000000E+00 0.  1.
        -13    1    3    3    0    0  0.20328492883E+03  0.26659675825E+03 -0.70737863569E+02  0.34264039333E+03  0.00000000000E+00 0. -1.
          2    1    5    5  502    0  0.59261206068E+00 -0.95749736717E+02  0.10181774641E+03  0.13976843976E+03  0.00000000000E+00 0. -1.
          1    1    6    6  503    0 -0.22046759181E+03  0.10288375972E+03  0.18441562165E+03  0.30528699377E+03  0.00000000000E+00 0. -1.
         -2    1    5    5    0  502 -0.18490042514E+03 -0.67409951345E+03  0.99040332178E+03  0.12122281390E+04  0.00000000000E+00 0.  1.
         -1    1    6    6    0  503 -0.54604418812E+02  0.79552730399E+02  0.69172111786E+02  0.11872262007E+03  0.00000000000E+00 0.  1.
<mgrwt>
<rscale>  0 0.23336581E+04</rscale>
<asrwt>0</asrwt>
<pdfrwt beam="1">  1        2 0.28109794E+00 0.23336581E+04</pdfrwt>
<pdfrwt beam="2">  1       -2 0.11463839E+00 0.23336581E+04</pdfrwt>
<totfact> 0.44778684E+00</totfact>
</mgrwt>
</event>
<event>
12    1  0.4672461E-008  0.1321621E+04  0.7818608E-02  0.9012593E-01
         -2   -1    0    0    0  501 -0.00000000000E+00  0.00000000000E+00  0.13065089198E+04  0.13065089198E+04  0.00000000000E+00 0.  1.
          2   -1    0    0  501    0  0.00000000000E+00 -0.00000000000E+00 -0.33422689186E+03  0.33422689186E+03  0.00000000000E+00 0. -1.
         23    2    1    2    0    0 -0.69672902637E+02 -0.23563887429E+02 -0.14350967376E+03  0.18464362889E+03  0.89937050610E+02 0.  0.
        254    2    1    2    0    0  0.69672902637E+02  0.23563887429E+02  0.11157917017E+04  0.14560921828E+04  0.93263269994E+03 0.  0.
         23    2    4    4    0    0  0.46169409311E+03 -0.60206372637E+02  0.83282650750E+03  0.95813453981E+03  0.87381702067E+02 0.  0.
         23    2    4    4    0    0 -0.39202119047E+03  0.83770260066E+02  0.28296519420E+03  0.49795764297E+03  0.84820061384E+02 0.  0.
         13    1    3    3    0    0 -0.12096158938E+02 -0.50521283147E+02 -0.54854638677E+02  0.75549642596E+02  0.00000000000E+00 0. -1.
        -13    1    3    3    0    0 -0.57576743700E+02  0.26957395718E+02 -0.88655035084E+02  0.10909398629E+03  0.00000000000E+00 0.  1.
          1    1    5    5  502    0  0.15343504834E+03 -0.37823101539E+01  0.35441807179E+03  0.38622375579E+03  0.00000000000E+00 0. -1.
          3    1    6    6  503    0 -0.81894537063E+02 -0.10262305254E+02  0.33859523906E+02  0.89210411215E+02  0.00000000000E+00 0. -1.
         -1    1    5    5    0  502  0.30825904477E+03 -0.56424062483E+02  0.47840843571E+03  0.57191078401E+03  0.00000000000E+00 0.  1.
         -3    1    6    6    0  503 -0.31012665340E+03  0.94032565320E+02  0.24910567029E+03  0.40874723175E+03  0.00000000000E+00 0.  1.
<mgrwt>
<rscale>  0 0.13216208E+04</rscale>
<asrwt>0</asrwt>
<pdfrwt beam="1">  1        2 0.51419523E-01 0.13216208E+04</pdfrwt>
<pdfrwt beam="2">  1       -2 0.20100137E+00 0.13216208E+04</pdfrwt>
<totfact> 0.12465571E+01</totfact>
</mgrwt>
</event>
<event>
12    1  0.4672461E-008  0.1753606E+04  0.7818608E-02  0.8731368E-01
          1   -1    0    0  501    0  0.00000000000E+00  0.00000000000E+00  0.33609325873E+03  0.33609325873E+03  0.00000000000E+00 0. -1.
         -1   -1    0    0    0  501 -0.00000000000E+00 -0.00000000000E+00 -0.22874118372E+04  0.22874118372E+04  0.00000000000E+00 0.  1.
         23    2    1    2    0    0 -0.49990028714E+03  0.27343913319E+03 -0.24078544974E+03  0.62706349682E+03  0.10277032450E+03 0.  0.
        254    2    1    2    0    0  0.49990028714E+03 -0.27343913319E+03 -0.17105331287E+04  0.19964415991E+04  0.85743000736E+03 0.  0.
         23    2    4    4    0    0  0.12545150946E+03  0.29884604580E+03 -0.62923716540E+03  0.71378652708E+03  0.92221231863E+02 0.  0.
         23    2    4    4    0    0  0.37444877768E+03 -0.57228517898E+03 -0.10812959633E+04  0.12826550720E+04  0.90999232348E+02 0.  0.
         13    1    3    3    0    0 -0.15832734469E+03  0.91242045552E+02 -0.26681726727E+02  0.18467423614E+03  0.00000000000E+00 0.  1.
        -13    1    3    3    0    0 -0.34157294245E+03  0.18219708764E+03 -0.21410372301E+03  0.44238926068E+03  0.00000000000E+00 0. -1.
          2    1    5    5  502    0  0.46013119786E+02  0.90450282747E+02 -0.11562343818E+03  0.15384160782E+03  0.00000000000E+00 0. -1.
          4    1    6    6  503    0  0.34701804363E+03 -0.53091097725E+03 -0.10396851638E+04  0.12178806297E+04  0.00000000000E+00 0.  1.
         -2    1    5    5    0  502  0.79438389677E+02  0.20839576305E+03 -0.51361372723E+03  0.55994491926E+03  0.00000000000E+00 0.  1.
         -4    1    6    6    0  503  0.27430734043E+02 -0.41374201740E+02 -0.41610799472E+02  0.64774442278E+02  0.00000000000E+00 0. -1.
<mgrwt>
<rscale>  0 0.17536062E+04</rscale>
<asrwt>0</asrwt>
<pdfrwt beam="1">  1        1 0.51706657E-01 0.17536062E+04</pdfrwt>
<pdfrwt beam="2">  1       -1 0.35190950E+00 0.17536062E+04</pdfrwt>
<totfact> 0.10830893E+00</totfact>
</mgrwt>
</event>
<event>
12    1  0.4672461E-008  0.1608220E+04  0.7818608E-02  0.8815514E-01
          2   -1    0    0  501    0  0.00000000000E+00  0.00000000000E+00  0.84305417910E+03  0.84305417910E+03  0.00000000000E+00 0.  1.
         -2   -1    0    0    0  501 -0.00000000000E+00 -0.00000000000E+00 -0.76696495707E+03  0.76696495707E+03  0.00000000000E+00 0. -1.
         23    2    1    2    0    0 -0.26481180243E+03  0.16675789881E+03 -0.43954521311E+03  0.54722530578E+03  0.91225289251E+02 0.  0.
        254    2    1    2    0    0  0.26481180243E+03 -0.16675789881E+03  0.51563443515E+03  0.10627938304E+04  0.87505335133E+03 0.  0.
         23    2    4    4    0    0  0.19938377176E+03 -0.12441644991E+03 -0.20878088195E+03  0.32860014619E+03  0.95683112198E+02 0.  0.
         23    2    4    4    0    0  0.65428030669E+02 -0.42341448905E+02  0.72441531710E+03  0.73419368420E+03  0.90494136695E+02 0.  0.
         11    1    3    3    0    0 -0.53279688032E+02  0.67687904901E+02 -0.74734199620E+02  0.11404200200E+03  0.00000000000E+00 0.  1.
        -11    1    3    3    0    0 -0.21153211440E+03  0.99069993912E+02 -0.36481101349E+03  0.43318330379E+03  0.00000000000E+00 0. -1.
          4    1    5    5  502    0  0.17510475054E+03 -0.12878967077E+03 -0.21210745154E+03  0.30370713518E+03  0.00000000000E+00 0.  1.
          1    1    6    6  503    0 -0.69119275463E+01 -0.28005825208E+02  0.71093517780E+02  0.76722807941E+02  0.00000000000E+00 0. -1.
         -4    1    5    5    0  502  0.24279021215E+02  0.43732208652E+01  0.33265695895E+01  0.24893011010E+02  0.00000000000E+00 0. -1.
         -1    1    6    6    0  503  0.72339958215E+02 -0.14335623697E+02  0.65332179932E+03  0.65747087625E+03  0.00000000000E+00 0.  1.
<mgrwt>
<rscale>  0 0.16082201E+04</rscale>
<asrwt>0</asrwt>
<pdfrwt beam="1">  1        2 0.12970064E+00 0.16082201E+04</pdfrwt>
<pdfrwt beam="2">  1       -2 0.11799461E+00 0.16082201E+04</pdfrwt>
<totfact> 0.17029638E+01</totfact>
</mgrwt>
</event>
<event>
12    1  0.4672461E-008  0.1500236E+04  0.7818608E-02  0.8884296E-01
          1   -1    0    0  501    0  0.00000000000E+00  0.00000000000E+00  0.10726424450E+04  0.10726424450E+04  0.00000000000E+00 0. -1.
         -1   -1    0    0    0  501 -0.00000000000E+00 -0.00000000000E+00 -0.52457082013E+03  0.52457082013E+03  0.00000000000E+00 0.  1.
         23    2    1    2    0    0  0.14724668114E+03  0.25843485682E+03  0.57274373453E+03  0.65155119593E+03  0.89517680655E+02 0.  0.
        254    2    1    2    0    0 -0.14724668114E+03 -0.25843485682E+03 -0.24672109677E+02  0.94566206918E+03  0.89732818732E+03 0.  0.
         23    2    4    4    0    0 -0.10604516940E+03 -0.54464612111E+03 -0.19815281310E+03  0.59554316378E+03  0.86730314142E+02 0.  0.
         23    2    4    4    0    0 -0.41201511745E+02  0.28621126429E+03  0.17348070342E+03  0.35011890540E+03  0.94197882548E+02 0.  0.
         13    1    3    3    0    0  0.61548880004E+02  0.15516361381E+03  0.23613453376E+03  0.28917733264E+03  0.00000000000E+00 0. -1.
        -13    1    3    3    0    0  0.85697801136E+02  0.10327124301E+03  0.33660920077E+03  0.36237386329E+03  0.00000000000E+00 0.  1.
          3    1    5    5  502    0 -0.88014505016E+02 -0.31596882266E+03 -0.80447993244E+02  0.33771989815E+03  0.00000000000E+00 0. -1.
          3    1    6    6  503    0  0.14259974141E+02  0.89622288101E+01 -0.25841958555E+01  0.17039556214E+02  0.00000000000E+00 0. -1.
         -3    1    5    5    0  502 -0.18030664379E+02 -0.22867729845E+03 -0.11770481985E+03  0.25782326564E+03  0.00000000000E+00 0.  1.
         -3    1    6    6    0  503 -0.55461485886E+02  0.27724903548E+03  0.17606489928E+03  0.33307934918E+03  0.00000000000E+00 0.  1.
<mgrwt>
<rscale>  0 0.15002359E+04</rscale>
<asrwt>0</asrwt>
<pdfrwt beam="1">  1        1 0.16502191E+00 0.15002359E+04</pdfrwt>
<pdfrwt beam="2">  1       -1 0.80703203E-01 0.15002359E+04</pdfrwt>
<totfact> 0.19698626E+01</totfact>
</mgrwt>
</event>
<event>
12    1  0.4672461E-008  0.1615394E+04  0.7818608E-02  0.8811146E-01
          2   -1    0    0  501    0  0.00000000000E+00  0.00000000000E+00  0.13221647181E+04  0.13221647181E+04  0.00000000000E+00 0. -1.
         -2   -1    0    0    0  501 -0.00000000000E+00 -0.00000000000E+00 -0.49341417952E+03  0.49341417952E+03  0.00000000000E+00 0.  1.
         23    2    1    2    0    0 -0.35756313524E+03  0.41631372689E+03  0.23569289877E+03  0.60422469382E+03  0.91475806676E+02 0.  0.
        254    2    1    2    0    0  0.35756313524E+03 -0.41631372689E+03  0.59305763981E+03  0.12113542038E+04  0.90249273019E+03 0.  0.
         23    2    4    4    0    0 -0.21346241655E+03 -0.21669121282E+03 -0.52546327673E+02  0.32216545623E+03  0.92239794281E+02 0.  0.
         23    2    4    4    0    0  0.57102555179E+03 -0.19962251408E+03  0.64560396748E+03  0.88918874757E+03  0.89066363175E+02 0.  0.
         11    1    3    3    0    0 -0.25309168615E+02  0.77041240207E+02  0.26395752962E+02  0.85279789417E+02  0.00000000000E+00 0. -1.
        -11    1    3    3    0    0 -0.33225396663E+03  0.33927248669E+03  0.20929714581E+03  0.51894490440E+03  0.00000000000E+00 0.  1.
          3    1    6    6  502    0  0.27390538510E+03 -0.13494297575E+03  0.35952061029E+03  0.47168722255E+03  0.00000000000E+00 0. -1.
          3    1    5    5  503    0 -0.63276301273E+02 -0.15927002541E+02 -0.25232473566E+02  0.69958826712E+02  0.00000000000E+00 0. -1.
         -3    1    5    5    0  503 -0.15018611527E+03 -0.20076421028E+03 -0.27313854108E+02  0.25220662952E+03  0.00000000000E+00 0.  1.
         -3    1    6    6    0  502  0.29712016669E+03 -0.64679538332E+02  0.28608335719E+03  0.41750152502E+03  0.00000000000E+00 0.  1.
<mgrwt>
<rscale>  0 0.16153945E+04</rscale>
<asrwt>0</asrwt>
<pdfrwt beam="1">  1        2 0.20340995E+00 0.16153945E+04</pdfrwt>
<pdfrwt beam="2">  1       -2 0.75909875E-01 0.16153945E+04</pdfrwt>
<totfact> 0.23895058E+01</totfact>
</mgrwt>
</event>
<event>
12    1  0.4672461E-008  0.1443246E+04  0.7818608E-02  0.8923096E-01
          2   -1    0    0  501    0  0.00000000000E+00  0.00000000000E+00  0.11645417660E+04  0.11645417660E+04  0.00000000000E+00 0. -1.
         -2   -1    0    0    0  501 -0.00000000000E+00 -0.00000000000E+00 -0.44716276858E+03  0.44716276858E+03  0.00000000000E+00 0.  1.
         23    2    1    2    0    0  0.17822234999E+02 -0.21054243110E+02 -0.26115952472E+03  0.27849731176E+03  0.92712146398E+02 0.  0.
        254    2    1    2    0    0 -0.17822234999E+02  0.21054243110E+02  0.97853852218E+03  0.13332072229E+04  0.90506516145E+03 0.  0.
         23    2    4    4    0    0 -0.30626916657E+03  0.21561046666E+03  0.87911572684E+03  0.95999060717E+03  0.91917511701E+02 0.  0.
         23    2    4    4    0    0  0.28844693157E+03 -0.19455622355E+03  0.99422795339E+02  0.37321661568E+03  0.91389241882E+02 0.  0.
         13    1    3    3    0    0 -0.34336129824E+02  0.99452573522E+01 -0.86336526498E+02  0.93444495627E+02  0.00000000000E+00 0. -1.
        -13    1    3    3    0    0  0.52158364824E+02 -0.30999500462E+02 -0.17482299823E+03  0.18505281613E+03  0.00000000000E+00 0.  1.
          2    1    5    5  502    0 -0.57385705534E+02  0.83633403982E+02  0.18694139684E+03  0.21268462877E+03  0.00000000000E+00 0. -1.
          4    1    6    6  503    0  0.82157543952E+02 -0.73576554343E+02 -0.89694810731E+01  0.11065180960E+03  0.00000000000E+00 0. -1.
         -2    1    5    5    0  502 -0.24888346103E+03  0.13197706268E+03  0.69217433000E+03  0.74730597840E+03  0.00000000000E+00 0.  1.
         -4    1    6    6    0  503  0.20628938762E+03 -0.12097966921E+03  0.10839227641E+03  0.26256480608E+03  0.00000000000E+00 0.  1.
<mgrwt>
<rscale>  0 0.14432460E+04</rscale>
<asrwt>0</asrwt>
<pdfrwt beam="1">  1        2 0.17916027E+00 0.14432460E+04</pdfrwt>
<pdfrwt beam="2">  1       -2 0.68794272E-01 0.14432460E+04</pdfrwt>
<totfact> 0.37272960E+01</totfact>
</mgrwt>
</event>
<event>
12    1  0.4672461E-008  0.1567400E+04  0.7818608E-02  0.8840830E-01
         -1   -1    0    0    0  501 -0.00000000000E+00  0.00000000000E+00  0.64556637722E+03  0.64556637722E+03  0.00000000000E+00 0.  1.
          1   -1    0    0  501    0  0.00000000000E+00 -0.00000000000E+00 -0.95138999630E+03  0.95138999630E+03  0.00000000000E+00 0. -1.
         23    2    1    2    0    0 -0.21863443563E+03 -0.47063162439E+03 -0.70040445978E+02  0.53145767421E+03  0.90809983406E+02 0.  0.
        254    2    1    2    0    0  0.21863443563E+03  0.47063162439E+03 -0.23578317310E+03  0.10654986993E+04  0.90022143453E+03 0.  0.
         23    2    4    4    0    0  0.49693927403E+02  0.44458590342E+03 -0.53842313753E+03  0.70598938165E+03  0.91626524707E+02 0.  0.
         23    2    4    4    0    0  0.16894050823E+03  0.26045720972E+02  0.30263996443E+03  0.35950931766E+03  0.91851654917E+02 0.  0.
         13    1    3    3    0    0 -0.22035910817E+03 -0.47417575637E+03 -0.69354725809E+02  0.52745697689E+03  0.00000000000E+00 0.  1.
        -13    1    3    3    0    0  0.17246725398E+01  0.35441319809E+01 -0.68572016883E+00  0.40006973164E+01  0.00000000000E+00 0. -1.
          4    1    5    5  502    0 -0.10545264831E+01  0.13949177990E+03 -0.11029909522E+03  0.17783407742E+03  0.00000000000E+00 0.  1.
          4    1    6    6  503    0  0.91084332527E+02 -0.17256313478E+02  0.21682878522E+03  0.23581530503E+03  0.00000000000E+00 0. -1.
         -4    1    5    5    0  502  0.50748453886E+02  0.30509412352E+03 -0.42812404231E+03  0.52815530422E+03  0.00000000000E+00 0. -1.
         -4    1    6    6    0  503  0.77856175699E+02  0.43302034451E+02  0.85811179211E+02  0.12369401263E+03  0.00000000000E+00 0.  1.
<mgrwt>
<rscale>  0 0.15673996E+04</rscale>
<asrwt>0</asrwt>
<pdfrwt beam="1">  1        1 0.14636769E+00 0.15673996E+04</pdfrwt>
<pdfrwt beam="2">  1       -1 0.99317905E-01 0.15673996E+04</pdfrwt>
<totfact> 0.15403300E+01</totfact>
</mgrwt>
</event>
<event>
12    1  0.4672461E-008  0.2166908E+04  0.7818608E-02  0.8532329E-01
          1   -1    0    0  501    0  0.00000000000E+00  0.00000000000E+00  0.17484493402E+04  0.17484493402E+04  0.00000000000E+00 0. -1.
         -1   -1    0    0    0  501 -0.00000000000E+00 -0.00000000000E+00 -0.67137913449E+03  0.67137913449E+03  0.00000000000E+00 0.  1.
         23    2    1    2    0    0 -0.76768062546E+03 -0.45189362697E+03  0.48929688199E+03  0.10203503948E+04  0.90344322469E+02 0.  0.
        254    2    1    2    0    0  0.76768062546E+03  0.45189362697E+03  0.58777332373E+03  0.13994780799E+04  0.90527345220E+03 0.  0.
         23    2    4    4    0    0 -0.64532547987E+02  0.33843650118E+03 -0.23322544194E+02  0.35667710518E+03  0.89279903712E+02 0.  0.
         23    2    4    4    0    0  0.83221317344E+03  0.11345712579E+03  0.61109586792E+03  0.10428009747E+04  0.92436073418E+02 0.  0.
         13    1    3    3    0    0 -0.15106155190E+03 -0.10674294177E+03  0.64728264752E+02  0.19596784516E+03  0.00000000000E+00 0. -1.
        -13    1    3    3    0    0 -0.61661907356E+03 -0.34515068521E+03  0.42456861723E+03  0.82438254962E+03  0.00000000000E+00 0.  1.
          1    1    5    5  502    0 -0.55672358883E+02  0.31053455066E+03 -0.47074945087E+02  0.31897832082E+03  0.00000000000E+00 0. -1.
          3    1    6    6  503    0  0.65244076540E+03  0.87789950594E+02  0.52397140557E+03  0.84138698685E+03  0.00000000000E+00 0. -1.
         -1    1    5    5    0  502 -0.88601891035E+01  0.27901950524E+02  0.23752400893E+02  0.37698784359E+02  0.00000000000E+00 0.  1.
         -3    1    6    6    0  503  0.17977240804E+03  0.25667175199E+02  0.87124462354E+02  0.20141398789E+03  0.00000000000E+00 0.  1.
<mgrwt>
<rscale>  0 0.21669078E+04</rscale>
<asrwt>0</asrwt>
<pdfrwt beam="1">  1        1 0.26899221E+00 0.21669078E+04</pdfrwt>
<pdfrwt beam="2">  1       -1 0.10328910E+00 0.21669078E+04</pdfrwt>
<totfact> 0.35718054E+00</totfact>
</mgrwt>
</event>
<event>
12    1  0.4672461E-008  0.1607593E+04  0.7818608E-02  0.8815897E-01
         -2   -1    0    0    0  501 -0.00000000000E+00  0.00000000000E+00  0.71456206036E+03  0.71456206036E+03  0.00000000000E+00 0.  1.
          2   -1    0    0  501    0  0.00000000000E+00 -0.00000000000E+00 -0.90417436060E+03  0.90417436060E+03  0.00000000000E+00 0. -1.
         23    2    1    2    0    0 -0.33541102603E+03 -0.94004273238E+02  0.35844371905E+03  0.50821164220E+03  0.91977245962E+02 0.  0.
        254    2    1    2    0    0  0.33541102603E+03  0.94004273238E+02 -0.54805601929E+03  0.11105247788E+04  0.90086765076E+03 0.  0.
         23    2    4    4    0    0  0.62724796996E+03  0.11032590960E+02 -0.26293985475E+03  0.68619525856E+03  0.90359458707E+02 0.  0.
         23    2    4    4    0    0 -0.29183694393E+03  0.82971682277E+02 -0.28511616454E+03  0.42432952019E+03  0.81921990442E+02 0.  0.
         13    1    3    3    0    0 -0.23101522904E+03 -0.10780061731E+03  0.25712742153E+03  0.36208220067E+03  0.00000000000E+00 0.  1.
        -13    1    3    3    0    0 -0.10439579699E+03  0.13796344073E+02  0.10131629752E+03  0.14612944153E+03  0.00000000000E+00 0. -1.
          4    1    5    5  502    0  0.45335561430E+03 -0.30399945235E+02 -0.20293893414E+03  0.49763408312E+03  0.00000000000E+00 0. -1.
          3    1    6    6  503    0 -0.80018607378E+02  0.50087566990E+02 -0.52537921695E+02  0.10803691550E+03  0.00000000000E+00 0. -1.
         -4    1    5    5    0  502  0.17389235566E+03  0.41432536195E+02 -0.60000920602E+02  0.18856117545E+03  0.00000000000E+00 0.  1.
         -3    1    6    6    0  503 -0.21181833656E+03  0.32884115287E+02 -0.23257824285E+03  0.31629260470E+03  0.00000000000E+00 0.  1.
<mgrwt>
<rscale>  0 0.16075929E+04</rscale>
<asrwt>0</asrwt>
<pdfrwt beam="1">  1        2 0.13910375E+00 0.16075929E+04</pdfrwt>
<pdfrwt beam="2">  1       -2 0.10993263E+00 0.16075929E+04</pdfrwt>
<totfact> 0.18372535E+01</totfact>
</mgrwt>
</event>
<event>
12    1  0.4672461E-008  0.1654757E+04  0.7818608E-02  0.8787597E-01
         -1   -1    0    0    0  501 -0.00000000000E+00  0.00000000000E+00  0.23675575943E+03  0.23675575943E+03  0.00000000000E+00 0.  1.
          1   -1    0    0  501    0  0.00000000000E+00 -0.00000000000E+00 -0.28913996019E+04  0.28913996019E+04  0.00000000000E+00 0. -1.
         23    2    1    2    0    0  0.44952342138E+03  0.22060345516E+03 -0.41243091916E+03  0.65581711367E+03  0.96226985376E+02 0.  0.
        254    2    1    2    0    0 -0.44952342138E+03 -0.22060345516E+03 -0.22422129233E+04  0.24723382476E+04  0.91334573223E+03 0.  0.
         23    2    4    4    0    0 -0.41699493473E+03 -0.28193655309E+03 -0.46463833791E+03  0.69113595871E+03  0.91690418299E+02 0.  0.
         23    2    4    4    0    0 -0.32528486648E+02  0.61333097935E+02 -0.17775745854E+04  0.17812022889E+04  0.89946295896E+02 0.  0.
         13    1    3    3    0    0  0.24998505927E+03  0.15952731019E+03 -0.19779781195E+03  0.35646243416E+03  0.00000000000E+00 0.  1.
        -13    1    3    3    0    0  0.19953836211E+03  0.61076144968E+02 -0.21463310721E+03  0.29935467952E+03  0.00000000000E+00 0. -1.
          2    1    5    5  502    0 -0.28320309306E+03 -0.19768612652E+03 -0.25878487020E+03  0.43157085812E+03  0.00000000000E+00 0. -1.
          3    1    6    6  503    0 -0.34819425585E+02  0.39099310451E+02 -0.16903108191E+04  0.16911214663E+04  0.00000000000E+00 0. -1.
         -2    1    5    5    0  502 -0.13379184167E+03 -0.84250426576E+02 -0.20585346771E+03  0.25956510059E+03  0.00000000000E+00 0.  1.
         -3    1    6    6    0  503  0.22909389379E+01  0.22233787484E+02 -0.87263766255E+02  0.90080822643E+02  0.00000000000E+00 0.  1.
<mgrwt>
<rscale>  0 0.16547574E+04</rscale>
<asrwt>0</asrwt>
<pdfrwt beam="1">  1        1 0.44483071E+00 0.16547574E+04</pdfrwt>
<pdfrwt beam="2">  1       -1 0.36423962E-01 0.16547574E+04</pdfrwt>
<totfact> 0.49623709E+00</totfact>
</mgrwt>
</event>
<event>
12    1  0.4672461E-008  0.1304457E+04  0.7818608E-02  0.9026038E-01
          4   -1    0    0  501    0  0.00000000000E+00  0.00000000000E+00  0.41892118150E+03  0.41892118150E+03  0.00000000000E+00 0.  1.
         -4   -1    0    0    0  501 -0.00000000000E+00 -0.00000000000E+00 -0.10154699736E+04  0.10154699736E+04  0.00000000000E+00 0. -1.
         23    2    1    2    0    0 -0.26274219148E+03 -0.12807796349E+03 -0.32057379006E+03  0.44319309254E+03  0.90637401144E+02 0.  0.
        254    2    1    2    0    0  0.26274219148E+03  0.12807796349E+03 -0.27597500205E+03  0.99119806257E+03  0.90602095648E+03 0.  0.
         23    2    4    4    0    0  0.23724081365E+03  0.39547359812E+03 -0.45470098194E+03  0.65441090338E+03  0.93904616587E+02 0.  0.
         23    2    4    4    0    0  0.25501377832E+02 -0.26739563463E+03  0.17872597989E+03  0.33678715919E+03  0.96601599461E+02 0.  0.
         11    1    3    3    0    0 -0.44378596690E+02 -0.62159472373E+02 -0.10060022981E+03  0.12630782275E+03  0.00000000000E+00 0. -1.
        -11    1    3    3    0    0 -0.21836359479E+03 -0.65918491115E+02 -0.21997356025E+03  0.31688526979E+03  0.00000000000E+00 0.  1.
          2    1    5    5  502    0  0.20490832385E+03  0.38583286000E+03 -0.42399844596E+03  0.60879314977E+03  0.00000000000E+00 0. -1.
          3    1    6    6  503    0  0.22057067801E+02 -0.66413521962E+02  0.97431368480E+02  0.11995891673E+03  0.00000000000E+00 0. -1.
         -2    1    5    5    0  502  0.32332489804E+02  0.96407381182E+01 -0.30702535981E+02  0.45617753606E+02  0.00000000000E+00 0.  1.
         -3    1    6    6    0  503  0.34443100306E+01 -0.20098211267E+03  0.81294611407E+02  0.21682824246E+03  0.00000000000E+00 0.  1.
<mgrwt>
<rscale>  0 0.13044568E+04</rscale>
<asrwt>0</asrwt>
<pdfrwt beam="1">  1        4 0.64449413E-01 0.13044568E+04</pdfrwt>
<pdfrwt beam="2">  1       -4 0.15622615E+00 0.13044568E+04</pdfrwt>
<totfact> 0.11730260E+00</totfact>
</mgrwt>
</event>
<event>
12    1  0.4672461E-008  0.1305798E+04  0.7818608E-02  0.9024980E-01
          2   -1    0    0  501    0  0.00000000000E+00  0.00000000000E+00  0.14341837178E+04  0.14341837178E+04  0.00000000000E+00 0. -1.
         -2   -1    0    0    0  501 -0.00000000000E+00 -0.00000000000E+00 -0.29722615871E+03  0.29722615871E+03  0.00000000000E+00 0.  1.
         23    2    1    2    0    0 -0.23404824515E+03 -0.15745442206E+03  0.53602305975E+03  0.61209585603E+03  0.88148399307E+02 0.  0.
        254    2    1    2    0    0  0.23404824515E+03  0.15745442206E+03  0.60093449932E+03  0.11193140205E+04  0.90120537496E+03 0.  0.
         23    2    4    4    0    0  0.49674809797E+02 -0.93512093299E+02 -0.20636551066E+03  0.24918114565E+03  0.91062731334E+02 0.  0.
         23    2    4    4    0    0  0.18437343535E+03  0.25096651536E+03  0.80730000999E+03  0.87013287482E+03  0.91761420099E+02 0.  0.
         13    1    3    3    0    0 -0.22008366077E+03 -0.11516861392E+03  0.48062152942E+03  0.54101541745E+03  0.00000000000E+00 0. -1.
        -13    1    3    3    0    0 -0.13964584383E+02 -0.42285808133E+02  0.55401530329E+02  0.71080438584E+02  0.00000000000E+00 0.  1.
          4    1    5    5  502    0  0.58856521958E+02 -0.88265560748E+02 -0.21209921020E+03  0.23715179603E+03  0.00000000000E+00 0. -1.
          3    1    6    6  503    0  0.12814755679E+03  0.11557755494E+03  0.51475097356E+03  0.54290748042E+03  0.00000000000E+00 0. -1.
         -4    1    5    5    0  502 -0.91817121607E+01 -0.52465325518E+01  0.57336995410E+01  0.12029349627E+02  0.00000000000E+00 0.  1.
         -3    1    6    6    0  503  0.56225878559E+02  0.13538896042E+03  0.29254903643E+03  0.32722539440E+03  0.00000000000E+00 0.  1.
<mgrwt>
<rscale>  0 0.13057977E+04</rscale>
<asrwt>0</asrwt>
<pdfrwt beam="1">  1        2 0.22064365E+00 0.13057977E+04</pdfrwt>
<pdfrwt beam="2">  1       -2 0.45727102E-01 0.13057977E+04</pdfrwt>
<totfact> 0.61447233E+01</totfact>
</mgrwt>
</event>
<event>
12    1  0.4672461E-008  0.1850215E+04  0.7818608E-02  0.8680042E-01
         -1   -1    0    0    0  501 -0.00000000000E+00  0.00000000000E+00  0.12062336644E+04  0.12062336644E+04  0.00000000000E+00 0.  1.
          1   -1    0    0  501    0  0.00000000000E+00 -0.00000000000E+00 -0.70950062015E+03  0.70950062015E+03  0.00000000000E+00 0. -1.
         23    2    1    2    0    0 -0.21406810883E+03  0.18260812077E+03  0.85258298110E+03  0.90233931637E+03  0.90264174576E+02 0.  0.
        254    2    1    2    0    0  0.21406810883E+03 -0.18260812077E+03 -0.35584993685E+03  0.10133949682E+04  0.90618392339E+03 0.  0.
         23    2    4    4    0    0  0.50054068805E+03 -0.33105166041E+03 -0.17871551797E+03  0.63376183487E+03  0.97870550819E+02 0.  0.
         23    2    4    4    0    0 -0.28647257922E+03  0.14844353964E+03 -0.17713441888E+03  0.37963313332E+03  0.92966071526E+02 0.  0.
         13    1    3    3    0    0 -0.97219623997E+02  0.13923008561E+03  0.45380053477E+03  0.48453234917E+03  0.00000000000E+00 0. -1.
        -13    1    3    3    0    0 -0.11684848483E+03  0.43378035158E+02  0.39878244633E+03  0.41780696720E+03  0.00000000000E+00 0.  1.
          2    1    5    5  502    0  0.14038765971E+03 -0.53142743731E+02 -0.17484597566E+02  0.15112431096E+03  0.00000000000E+00 0. -1.
          1    1    6    6  503    0 -0.94848605213E+02  0.10766899733E+02 -0.79689670077E+02  0.12434881406E+03  0.00000000000E+00 0. -1.
         -2    1    5    5    0  502  0.36015302834E+03 -0.27790891668E+03 -0.16123092040E+03  0.48263752391E+03  0.00000000000E+00 0.  1.
         -1    1    6    6    0  503 -0.19162397401E+03  0.13767663991E+03 -0.97444748801E+02  0.25528431926E+03  0.00000000000E+00 0.  1.
<mgrwt>
<rscale>  0 0.18502146E+04</rscale>
<asrwt>0</asrwt>
<pdfrwt beam="1">  1        1 0.10915394E+00 0.18502146E+04</pdfrwt>
<pdfrwt beam="2">  1       -1 0.18557441E+00 0.18502146E+04</pdfrwt>
<totfact> 0.47609619E+00</totfact>
</mgrwt>
</event>
<event>
12    1  0.4672461E-008  0.1528059E+04  0.7818608E-02  0.8866006E-01
          2   -1    0    0  501    0  0.00000000000E+00  0.00000000000E+00  0.28741130117E+03  0.28741130117E+03  0.00000000000E+00 0. -1.
         -2   -1    0    0    0  501 -0.00000000000E+00 -0.00000000000E+00 -0.20310295909E+04  0.20310295909E+04  0.00000000000E+00 0.  1.
         23    2    1    2    0    0  0.13795960347E+03 -0.34787222238E+03 -0.10003135124E+04  0.10725956892E+04  0.98926509090E+02 0.  0.
        254    2    1    2    0    0 -0.13795960347E+03  0.34787222238E+03 -0.74330477735E+03  0.12458452028E+04  0.92713555757E+03 0.  0.
         23    2    4    4    0    0  0.38752737625E+03  0.11213077265E+03 -0.34884684692E+03  0.54189550139E+03  0.95947039035E+02 0.  0.
         23    2    4    4    0    0 -0.52548697972E+03  0.23574144973E+03 -0.39445793043E+03  0.70394970145E+03  0.90760819304E+02 0.  0.
         11    1    3    3    0    0  0.14892958878E+03 -0.33845435678E+03 -0.93008463083E+03  0.10008939977E+04  0.00000000000E+00 0.  1.
        -11    1    3    3    0    0 -0.10969985308E+02 -0.94178656043E+01 -0.70228881566E+02  0.71701691586E+02  0.00000000000E+00 0. -1.
          4    1    5    5  502    0  0.77994949885E+02 -0.78379091633E+01 -0.38005740344E+02  0.87115333476E+02  0.00000000000E+00 0. -1.
          3    1    6    6  503    0 -0.90201167620E+01  0.15423762798E+02 -0.21326968355E+00  0.17868980083E+02  0.00000000000E+00 0. -1.
         -4    1    5    5    0  502  0.30953242636E+03  0.11996868182E+03 -0.31084110658E+03  0.45478016791E+03  0.00000000000E+00 0.  1.
         -3    1    6    6    0  503 -0.51646686296E+03  0.22031768693E+03 -0.39424466074E+03  0.68608072137E+03  0.00000000000E+00 0.  1.
<mgrwt>
<rscale>  0 0.15280587E+04</rscale>
<asrwt>0</asrwt>
<pdfrwt beam="1">  1        2 0.44217122E-01 0.15280587E+04</pdfrwt>
<pdfrwt beam="2">  1       -2 0.31246610E+00 0.15280587E+04</pdfrwt>
<totfact> 0.29717660E+00</totfact>
</mgrwt>
</event>
<event>
12    1  0.4672461E-008  0.1329210E+04  0.7818608E-02  0.9006717E-01
         -1   -1    0    0    0  501 -0.00000000000E+00  0.00000000000E+00  0.30781724889E+03  0.30781724889E+03  0.00000000000E+00 0.  1.
          1   -1    0    0  501    0  0.00000000000E+00 -0.00000000000E+00 -0.14349416485E+04  0.14349416485E+04  0.00000000000E+00 0. -1.
         23    2    1    2    0    0 -0.80321288046E+02  0.26734395298E+03 -0.32582123156E+02  0.29670731471E+03  0.95128005028E+02 0.  0.
        254    2    1    2    0    0  0.80321288046E+02 -0.26734395298E+03 -0.10945422765E+04  0.14460515827E+04  0.90283890386E+03 0.  0.
         23    2    4    4    0    0 -0.24540444625E+03 -0.72824931224E+02  0.12983155275E+02  0.27210295081E+03  0.91349004761E+02 0.  0.
         23    2    4    4    0    0  0.32572573429E+03 -0.19451902176E+03 -0.11075254317E+04  0.11739486319E+04  0.87223302737E+02 0.  0.
         13    1    3    3    0    0 -0.33194982683E+02  0.22281746776E+03 -0.26380229678E+01  0.22529201047E+03  0.00000000000E+00 0.  1.
        -13    1    3    3    0    0 -0.47126305362E+02  0.44526485219E+02 -0.29944100188E+02  0.71415304236E+02  0.00000000000E+00 0. -1.
          2    1    5    5  502    0 -0.28471330498E+02  0.33920608898E+01  0.30053992039E+02  0.41537515271E+02  0.00000000000E+00 0. -1.
          2    1    6    6  503    0  0.59300965905E+02 -0.12256183356E+02 -0.26180310597E+03  0.26871487656E+03  0.00000000000E+00 0. -1.
         -2    1    5    5    0  502 -0.21693311575E+03 -0.76216992114E+02 -0.17070836764E+02  0.23056543554E+03  0.00000000000E+00 0.  1.
         -2    1    6    6    0  503  0.26642476839E+03 -0.18226283840E+03 -0.84572232576E+03  0.90523375532E+03  0.00000000000E+00 0.  1.
<mgrwt>
<rscale>  0 0.13292100E+04</rscale>
<asrwt>0</asrwt>
<pdfrwt beam="1">  1        1 0.22076026E+00 0.13292100E+04</pdfrwt>
<pdfrwt beam="2">  1       -1 0.47356499E-01 0.13292100E+04</pdfrwt>
<totfact> 0.31670534E+01</totfact>
</mgrwt>
</event>
<event>
12    1  0.4672461E-008  0.1636739E+04  0.7818608E-02  0.8798290E-01
         -1   -1    0    0    0  501 -0.00000000000E+00  0.00000000000E+00  0.70999794730E+03  0.70999794730E+03  0.00000000000E+00 0.  1.
          1   -1    0    0  501    0  0.00000000000E+00 -0.00000000000E+00 -0.94328253747E+03  0.94328253747E+03  0.00000000000E+00 0. -1.
         23    2    1    2    0    0 -0.14114396006E+03  0.29945569211E+02 -0.63190410295E+03  0.65453869045E+03  0.91102949435E+02 0.  0.
        254    2    1    2    0    0  0.14114396006E+03 -0.29945569211E+02  0.39861951278E+03  0.99874179432E+03  0.90430597763E+03 0.  0.
         23    2    4    4    0    0  0.26814761538E+03  0.36363786220E+03  0.81120972260E+02  0.46860610294E+03  0.94209495919E+02 0.  0.
         23    2    4    4    0    0 -0.12700365531E+03 -0.39358343141E+03  0.31749854052E+03  0.53013569138E+03  0.95920186059E+02 0.  0.
         11    1    3    3    0    0 -0.21965453632E+02  0.38428010744E+02 -0.26498760910E+03  0.26865894018E+03  0.00000000000E+00 0.  1.
        -11    1    3    3    0    0 -0.11917850643E+03 -0.84824415331E+01 -0.36691649385E+03  0.38587975027E+03  0.00000000000E+00 0. -1.
          2    1    5    5  502    0  0.21471981899E+03  0.26054594245E+03  0.22079610573E+02  0.33834346159E+03  0.00000000000E+00 0. -1.
          3    1    6    6  503    0 -0.76891515896E+02 -0.34868187449E+03  0.26110724894E+03  0.44234415364E+03  0.00000000000E+00 0. -1.
         -2    1    5    5    0  502  0.53427796381E+02  0.10309191975E+03  0.59041361687E+02  0.13026264136E+03  0.00000000000E+00 0.  1.
         -3    1    6    6    0  503 -0.50112139418E+02 -0.44901556919E+02  0.56391291584E+02  0.87791537731E+02  0.00000000000E+00 0.  1.
<mgrwt>
<rscale>  0 0.16367390E+04</rscale>
<asrwt>0</asrwt>
<pdfrwt beam="1">  1        1 0.14512039E+00 0.16367390E+04</pdfrwt>
<pdfrwt beam="2">  1       -1 0.10923045E+00 0.16367390E+04</pdfrwt>
<totfact> 0.12460270E+01</totfact>
</mgrwt>
</event>
<event>
12    1  0.4672461E-008  0.1110895E+04  0.7818608E-02  0.9194637E-01
         -1   -1    0    0    0  501 -0.00000000000E+00  0.00000000000E+00  0.15955088609E+04  0.15955088609E+04  0.00000000000E+00 0.  1.
          1   -1    0    0  501    0  0.00000000000E+00 -0.00000000000E+00 -0.19336903898E+03  0.19336903898E+03  0.00000000000E+00 0. -1.
         23    2    1    2    0    0  0.38210220984E+02 -0.11162855635E+03  0.41483625291E+03  0.44052713049E+03  0.89744528505E+02 0.  0.
        254    2    1    2    0    0 -0.38210220984E+02  0.11162855635E+03  0.98730356903E+03  0.13483507694E+04  0.91069232146E+03 0.  0.
         23    2    4    4    0    0 -0.19561092034E+03  0.41904835432E+02  0.11015552565E+04  0.11234545326E+04  0.93308393535E+02 0.  0.
         23    2    4    4    0    0  0.15740069935E+03  0.69723720916E+02 -0.11425168743E+03  0.22489623685E+03  0.88817182212E+02 0.  0.
         13    1    3    3    0    0 -0.34116248207E+01 -0.96983646346E+01 -0.10306857426E+01  0.10332462127E+02  0.00000000000E+00 0. -1.
        -13    1    3    3    0    0  0.41621845805E+02 -0.10193019171E+03  0.41586693865E+03  0.43019466837E+03  0.00000000000E+00 0.  1.
          1    1    5    5  502    0 -0.84089134139E+02  0.64409966350E+02  0.58590902488E+03  0.59540659358E+03  0.00000000000E+00 0. -1.
          3    1    6    6  503    0  0.16558503288E+03  0.51964349733E+02 -0.10781093055E+03  0.20430832950E+03  0.00000000000E+00 0. -1.
         -1    1    5    5    0  502 -0.11152178620E+03 -0.22505130918E+02  0.51564623158E+03  0.52804793898E+03  0.00000000000E+00 0.  1.
         -3    1    6    6    0  503 -0.81843335264E+01  0.17759371183E+02 -0.64407568747E+01  0.20587907354E+02  0.00000000000E+00 0.  1.
<mgrwt>
<rscale>  0 0.11108952E+04</rscale>
<asrwt>0</asrwt>
<pdfrwt beam="1">  1        1 0.29749084E-01 0.11108952E+04</pdfrwt>
<pdfrwt beam="2">  1       -1 0.24546289E+00 0.11108952E+04</pdfrwt>
<totfact> 0.11597105E+01</totfact>
</mgrwt>
</event>
<event>
12    1  0.4672461E-008  0.3614660E+04  0.7818608E-02  0.8087142E-01
         -1   -1    0    0    0  501 -0.00000000000E+00  0.00000000000E+00  0.10175101882E+04  0.10175101882E+04  0.00000000000E+00 0.  1.
          1   -1    0    0  501    0  0.00000000000E+00 -0.00000000000E+00 -0.32102298626E+04  0.32102298626E+04  0.00000000000E+00 0. -1.
         23    2    1    2    0    0 -0.59097440772E+03  0.15784820781E+04 -0.12626596915E+04  0.21079737400E+04  0.91582586862E+02 0.  0.
        254    2    1    2    0    0  0.59097440772E+03 -0.15784820781E+04 -0.93005998284E+03  0.21197663108E+04  0.88743519162E+03 0.  0.
         23    2    4    4    0    0  0.87307757737E+02 -0.66104454460E+03 -0.82415514988E+03  0.10639449740E+04  0.90247782340E+02 0.  0.
         23    2    4    4    0    0  0.50366664999E+03 -0.91743753350E+03 -0.10590483296E+03  0.10558213368E+04  0.90394354656E+02 0.  0.
         13    1    3    3    0    0 -0.41567484317E+03  0.11666161059E+04 -0.97086356896E+03  0.15736437918E+04  0.00000000000E+00 0.  1.
        -13    1    3    3    0    0 -0.17529956456E+03  0.41186597220E+03 -0.29179612259E+03  0.53432994820E+03  0.00000000000E+00 0. -1.
          4    1    5    5  502    0  0.92398746682E+02 -0.35812384060E+03 -0.44659661906E+03  0.57986097796E+03  0.00000000000E+00 0. -1.
          1    1    6    6  503    0  0.28687560671E+03 -0.53449728793E+03 -0.16840492986E+02  0.60685135473E+03  0.00000000000E+00 0. -1.
         -4    1    5    5    0  502 -0.50909889444E+01 -0.30292070400E+03 -0.37755853082E+03  0.48408399609E+03  0.00000000000E+00 0.  1.
         -1    1    6    6    0  503  0.21679104327E+03 -0.38294024556E+03 -0.89064339970E+02  0.44896998204E+03  0.00000000000E+00 0.  1.
<mgrwt>
<rscale>  0 0.36146599E+04</rscale>
<asrwt>0</asrwt>
<pdfrwt beam="1">  1        1 0.49388151E+00 0.36146599E+04</pdfrwt>
<pdfrwt beam="2">  1       -1 0.15654003E+00 0.36146599E+04</pdfrwt>
<totfact> 0.10468872E-01</totfact>
</mgrwt>
</event>
<event>
12    1  0.4672461E-008  0.1982893E+04  0.7818608E-02  0.8614661E-01
         -2   -1    0    0    0  501 -0.00000000000E+00  0.00000000000E+00  0.51677946659E+03  0.51677946659E+03  0.00000000000E+00 0.  1.
          2   -1    0    0  501    0  0.00000000000E+00 -0.00000000000E+00 -0.19021007504E+04  0.19021007504E+04  0.00000000000E+00 0. -1.
         23    2    1    2    0    0 -0.36395370626E+03  0.69970153968E+03 -0.60953647058E+03  0.10010972815E+04  0.92825175475E+02 0.  0.
        254    2    1    2    0    0  0.36395370626E+03 -0.69970153968E+03 -0.77578481318E+03  0.14177829354E+04  0.88669150814E+03 0.  0.
         23    2    4    4    0    0  0.26712549914E+02 -0.44151117658E+03  0.79195109710E+02  0.45867772647E+03  0.92020171643E+02 0.  0.
         23    2    4    4    0    0  0.33724115635E+03 -0.25819036310E+03 -0.85497992289E+03  0.95910520893E+03  0.92186073361E+02 0.  0.
         13    1    3    3    0    0 -0.36700930907E+03  0.67423723800E+03 -0.59743550030E+03  0.97273884628E+03  0.00000000000E+00 0. -1.
        -13    1    3    3    0    0  0.30556028010E+01  0.25464301683E+02 -0.12100970287E+02  0.28358435263E+02  0.00000000000E+00 0.  1.
          4    1    5    5  502    0  0.20353851125E+02 -0.40091296609E+03  0.98407295969E+02  0.41331523264E+03  0.00000000000E+00 0. -1.
          1    1    6    6  503    0  0.31817965802E+03 -0.25752176017E+03 -0.77032384061E+03  0.87232710100E+03  0.00000000000E+00 0. -1.
         -4    1    5    5    0  502  0.63586987894E+01 -0.40598210489E+02 -0.19212186260E+02  0.45362493826E+02  0.00000000000E+00 0.  1.
         -1    1    6    6    0  503  0.19061498329E+02 -0.66860293872E+00 -0.84656082281E+02  0.86778107928E+02  0.00000000000E+00 0.  1.
<mgrwt>
<rscale>  0 0.19828935E+04</rscale>
<asrwt>0</asrwt>
<pdfrwt beam="1">  1        2 0.29263088E+00 0.19828935E+04</pdfrwt>
<pdfrwt beam="2">  1       -2 0.79504534E-01 0.19828935E+04</pdfrwt>
<totfact> 0.98753100E+00</totfact>
</mgrwt>
</event>
<event>
12    1  0.4672461E-008  0.1452876E+04  0.7818608E-02  0.8916409E-01
         -2   -1    0    0    0  501 -0.00000000000E+00  0.00000000000E+00  0.83685922531E+03  0.83685922531E+03  0.00000000000E+00 0.  1.
          2   -1    0    0  501    0  0.00000000000E+00 -0.00000000000E+00 -0.63058636985E+03  0.63058636985E+03  0.00000000000E+00 0. -1.
         23    2    1    2    0    0 -0.39114338743E+03  0.97622335257E+02 -0.11739232085E+03  0.42995613652E+03  0.92509742528E+02 0.  0.
        254    2    1    2    0    0  0.39114338743E+03 -0.97622335257E+02  0.32366517631E+03  0.10374894586E+04  0.89950095085E+03 0.  0.
         23    2    4    4    0    0 -0.57688333201E+02  0.18494275217E+03 -0.19494375485E+03  0.28970077474E+03  0.91606255046E+02 0.  0.
         23    2    4    4    0    0  0.44883172063E+03 -0.28256508743E+03  0.51860893116E+03  0.74778868390E+03  0.94550252310E+02 0.  0.
         11    1    3    3    0    0 -0.38672249641E+03  0.81974388557E+02 -0.12076403875E+03  0.41334978246E+03  0.00000000000E+00 0. -1.
        -11    1    3    3    0    0 -0.44208910252E+01  0.15647946700E+02  0.33717179031E+01  0.16606354055E+02  0.00000000000E+00 0.  1.
          4    1    5    5  502    0 -0.29210332226E+02  0.25102760320E+01 -0.21334107847E+02  0.36258642448E+02  0.00000000000E+00 0. -1.
          3    1    6    6  503    0  0.18769591520E+03 -0.66614242722E+02  0.17368202508E+03  0.26425869854E+03  0.00000000000E+00 0. -1.
         -4    1    5    5    0  502 -0.28478000975E+02  0.18243247614E+03 -0.17360964700E+03  0.25344213230E+03  0.00000000000E+00 0.  1.
         -3    1    6    6    0  503  0.26113580543E+03 -0.21595084471E+03  0.34492690608E+03  0.48352998537E+03  0.00000000000E+00 0.  1.
<mgrwt>
<rscale>  0 0.14528758E+04</rscale>
<asrwt>0</asrwt>
<pdfrwt beam="1">  1        2 0.97013287E-01 0.14528758E+04</pdfrwt>
<pdfrwt beam="2">  1       -2 0.12874757E+00 0.14528758E+04</pdfrwt>
<totfact> 0.20135577E+01</totfact>
</mgrwt>
</event>
<event>
12    1  0.4672461E-008  0.1727684E+04  0.7818608E-02  0.8745731E-01
          2   -1    0    0  501    0  0.00000000000E+00  0.00000000000E+00  0.23094505914E+04  0.23094505914E+04  0.00000000000E+00 0.  1.
         -2   -1    0    0    0  501 -0.00000000000E+00 -0.00000000000E+00 -0.32311710603E+03  0.32311710603E+03  0.00000000000E+00 0. -1.
         23    2    1    2    0    0 -0.34457193731E+02 -0.42420811613E+03  0.14183608639E+04  0.14848395754E+04  0.10890913879E+03 0.  0.
        254    2    1    2    0    0  0.34457193731E+02  0.42420811613E+03  0.56797262155E+03  0.11477281221E+04  0.90196846919E+03 0.  0.
         23    2    4    4    0    0 -0.88404901046E+02 -0.21363598028E+03 -0.46224728607E+02  0.24907697101E+03  0.80292299460E+02 0.  0.
         23    2    4    4    0    0  0.12286209478E+03  0.63784409641E+03  0.61419735015E+03  0.89865115108E+03  0.91625982923E+02 0.  0.
         11    1    3    3    0    0 -0.68631065374E+02 -0.35073420485E+03  0.11913065711E+04  0.12437588399E+04  0.00000000000E+00 0.  1.
        -11    1    3    3    0    0  0.34173871643E+02 -0.73473911273E+02  0.22705429276E+03  0.24108073545E+03  0.00000000000E+00 0. -1.
          1    1    5    5  502    0 -0.77621279431E+02 -0.17933999796E+03 -0.68159015484E+02  0.20696267605E+03  0.00000000000E+00 0. -1.
          3    1    6    6  503    0  0.13399735853E+03  0.49876655648E+03  0.48671570658E+03  0.70965875531E+03  0.00000000000E+00 0. -1.
         -1    1    5    5    0  502 -0.10783621615E+02 -0.34295982322E+02  0.21934286878E+02  0.42114294953E+02  0.00000000000E+00 0.  1.
         -3    1    6    6    0  503 -0.11135263750E+02  0.13907753992E+03  0.12748164357E+03  0.18899239577E+03  0.00000000000E+00 0.  1.
<mgrwt>
<rscale>  0 0.17276840E+04</rscale>
<asrwt>0</asrwt>
<pdfrwt beam="1">  1        2 0.35530008E+00 0.17276840E+04</pdfrwt>
<pdfrwt beam="2">  1       -2 0.49710325E-01 0.17276840E+04</pdfrwt>
<totfact> 0.16294127E+01</totfact>
</mgrwt>
</event>
<event>
12    1  0.4672461E-008  0.1367812E+04  0.7818608E-02  0.8977453E-01
         -2   -1    0    0    0  501 -0.00000000000E+00  0.00000000000E+00  0.22583971156E+03  0.22583971156E+03  0.00000000000E+00 0.  1.
          2   -1    0    0  501    0  0.00000000000E+00 -0.00000000000E+00 -0.20710606286E+04  0.20710606286E+04  0.00000000000E+00 0. -1.
         23    2    1    2    0    0 -0.30176748345E+03  0.22653394341E+03 -0.56649040001E+03  0.68680534617E+03  0.91700428757E+02 0.  0.
        254    2    1    2    0    0  0.30176748345E+03 -0.22653394341E+03 -0.12787305170E+04  0.16100949940E+04  0.90270311449E+03 0.  0.
         23    2    4    4    0    0  0.52995541525E+03 -0.33380013089E+03 -0.11494025705E+04  0.13122056474E+04  0.92098438730E+02 0.  0.
         23    2    4    4    0    0 -0.22818793180E+03  0.10726618748E+03 -0.12932794647E+03  0.29788934657E+03  0.91850845745E+02 0.  0.
         11    1    3    3    0    0 -0.84372103735E+02  0.51035678940E+02 -0.85288463881E+02  0.13037413273E+03  0.00000000000E+00 0.  1.
        -11    1    3    3    0    0 -0.21739537972E+03  0.17549826447E+03 -0.48120193613E+03  0.55643121344E+03  0.00000000000E+00 0. -1.
          2    1    5    5  502    0  0.52523413635E+03 -0.31958998802E+03 -0.10952178363E+04  0.12559899551E+04  0.00000000000E+00 0. -1.
          1    1    6    6  503    0 -0.22274236838E+03  0.11828563805E+03 -0.13291840000E+03  0.28508412074E+03  0.00000000000E+00 0. -1.
         -2    1    5    5    0  502  0.47212788960E+01 -0.14210142870E+02 -0.54184734251E+02  0.56215692299E+02  0.00000000000E+00 0.  1.
         -1    1    6    6    0  503 -0.54455634214E+01 -0.11019450578E+02  0.35904535209E+01  0.12805225827E+02  0.00000000000E+00 0.  1.
<mgrwt>
<rscale>  0 0.13678125E+04</rscale>
<asrwt>0</asrwt>
<pdfrwt beam="1">  1        2 0.31862471E+00 0.13678125E+04</pdfrwt>
<pdfrwt beam="2">  1       -2 0.34744572E-01 0.13678125E+04</pdfrwt>
<totfact> 0.46269521E+01</totfact>
</mgrwt>
</event>
<event>
12    1  0.4672461E-008  0.1649852E+04  0.7818608E-02  0.8790494E-01
          1   -1    0    0  501    0  0.00000000000E+00  0.00000000000E+00  0.19932840718E+04  0.19932840718E+04  0.00000000000E+00 0. -1.
         -1   -1    0    0    0  501 -0.00000000000E+00 -0.00000000000E+00 -0.34139780105E+03  0.34139780105E+03  0.00000000000E+00 0.  1.
         23    2    1    2    0    0 -0.46998075634E+03 -0.56091193609E+02  0.10652553818E+04  0.11692629105E+04  0.91534648653E+02 0.  0.
        254    2    1    2    0    0  0.46998075634E+03  0.56091193609E+02  0.58663088896E+03  0.11654189624E+04  0.88884049458E+03 0.  0.
         23    2    4    4    0    0  0.87035974952E+02  0.64931149458E+02  0.73214397007E+03  0.74565680016E+03  0.90432049682E+02 0.  0.
         23    2    4    4    0    0  0.38294478138E+03 -0.88399558492E+01 -0.14551308110E+03  0.41976216228E+03  0.91111830744E+02 0.  0.
         13    1    3    3    0    0 -0.19581373285E+01  0.40699339684E+01  0.39401269823E+00  0.45336420581E+01  0.00000000000E+00 0.  1.
        -13    1    3    3    0    0 -0.46802261901E+03 -0.60161127577E+02  0.10648613691E+04  0.11647292684E+04  0.00000000000E+00 0. -1.
          1    1    5    5  502    0  0.10016364114E+03  0.58307357845E+02  0.70772767383E+03  0.71715476941E+03  0.00000000000E+00 0. -1.
          3    1    6    6  503    0  0.17147687130E+03  0.32665974792E+02 -0.36825405968E+02  0.17840261721E+03  0.00000000000E+00 0. -1.
         -1    1    5    5    0  502 -0.13127666183E+02  0.66237916128E+01  0.24416296240E+02  0.28502030749E+02  0.00000000000E+00 0.  1.
         -3    1    6    6    0  503  0.21146791008E+03 -0.41505930641E+02 -0.10868767514E+03  0.24135954507E+03  0.00000000000E+00 0.  1.
<mgrwt>
<rscale>  0 0.16498519E+04</rscale>
<asrwt>0</asrwt>
<pdfrwt beam="1">  1        1 0.30665908E+00 0.16498519E+04</pdfrwt>
<pdfrwt beam="2">  1       -1 0.52522739E-01 0.16498519E+04</pdfrwt>
<totfact> 0.10514765E+01</totfact>
</mgrwt>
</event>
<event>
12    1  0.4672461E-008  0.2465348E+04  0.7818608E-02  0.8415436E-01
         -1   -1    0    0    0  501 -0.00000000000E+00  0.00000000000E+00  0.10565560645E+04  0.10565560645E+04  0.00000000000E+00 0.  1.
          1   -1    0    0  501    0  0.00000000000E+00 -0.00000000000E+00 -0.14381488863E+04  0.14381488863E+04  0.00000000000E+00 0. -1.
         23    2    1    2    0    0 -0.17429649896E+03  0.10514467937E+04 -0.13008514424E+03  0.10782529095E+04  0.98932110929E+02 0.  0.
        254    2    1    2    0    0  0.17429649896E+03 -0.10514467937E+04 -0.25150767758E+03  0.14164520414E+04  0.89842119527E+03 0.  0.
         23    2    4    4    0    0  0.33894415840E+02 -0.88503030318E+02  0.27632813474E+03  0.30572757164E+03  0.90169242048E+02 0.  0.
         23    2    4    4    0    0  0.14040208312E+03 -0.96294376337E+03 -0.52783581231E+03  0.11107244697E+04  0.90137486900E+02 0.  0.
         13    1    3    3    0    0 -0.66142420620E+02  0.64670219590E+03 -0.10555473936E+03  0.65858966967E+03  0.00000000000E+00 0. -1.
        -13    1    3    3    0    0 -0.10815407834E+03  0.40474459779E+03 -0.24530404879E+02  0.41966323983E+03  0.00000000000E+00 0.  1.
          2    1    5    5  502    0  0.45754479271E+02 -0.53608913655E+02  0.25174896580E+03  0.26142863228E+03  0.00000000000E+00 0.  1.
          3    1    6    6  503    0  0.89655923617E+02 -0.63639025464E+03 -0.39628061988E+03  0.75502918522E+03  0.00000000000E+00 0. -1.
         -2    1    5    5    0  502 -0.11860063431E+02 -0.34894116664E+02  0.24579168940E+02  0.44298939357E+02  0.00000000000E+00 0. -1.
         -3    1    6    6    0  503  0.50746159502E+02 -0.32655350874E+03 -0.13155519243E+03  0.35569528452E+03  0.00000000000E+00 0.  1.
<mgrwt>
<rscale>  0 0.24653478E+04</rscale>
<asrwt>0</asrwt>
<pdfrwt beam="1">  1        1 0.22125367E+00 0.24653478E+04</pdfrwt>
<pdfrwt beam="2">  1       -1 0.16254709E+00 0.24653478E+04</pdfrwt>
<totfact> 0.17997337E+00</totfact>
</mgrwt>
</event>
<event>
12    1  0.4672461E-008  0.1730722E+04  0.7818608E-02  0.8744034E-01
         -1   -1    0    0    0  501 -0.00000000000E+00  0.00000000000E+00  0.78972004076E+03  0.78972004076E+03  0.00000000000E+00 0.  1.
          1   -1    0    0  501    0  0.00000000000E+00 -0.00000000000E+00 -0.94824699807E+03  0.94824699807E+03  0.00000000000E+00 0. -1.
         23    2    1    2    0    0  0.46630835123E+03 -0.21968219036E+03 -0.40490270627E+03  0.66211848045E+03  0.93546445269E+02 0.  0.
        254    2    1    2    0    0 -0.46630835123E+03  0.21968219036E+03  0.24637574897E+03  0.10758485584E+04  0.91161689743E+03 0.  0.
         23    2    4    4    0    0 -0.29930363085E+03 -0.31932465247E+03 -0.12966273885E+02  0.44823071668E+03  0.95873635604E+02 0.  0.
         23    2    4    4    0    0 -0.16700472038E+03  0.53900684283E+03  0.25934202285E+03  0.62761784169E+03  0.90702354637E+02 0.  0.
         11    1    3    3    0    0  0.41046695096E+03 -0.15938476061E+03 -0.35798786605E+03  0.56748738486E+03  0.00000000000E+00 0. -1.
        -11    1    3    3    0    0  0.55841400270E+02 -0.60297429752E+02 -0.46914840228E+02  0.94631095589E+02  0.00000000000E+00 0.  1.
          2    1    5    5  502    0 -0.27752093993E+02 -0.13733100028E+02 -0.24147620294E+02  0.39266834902E+02  0.00000000000E+00 0. -1.
          4    1    6    6  503    0 -0.83748318705E+02  0.13552460126E+03  0.80417209895E+02  0.17845903194E+03  0.00000000000E+00 0. -1.
         -2    1    5    5    0  502 -0.27155153686E+03 -0.30559155244E+03  0.11181346409E+02  0.40896388178E+03  0.00000000000E+00 0.  1.
         -4    1    6    6    0  503 -0.83256401677E+02  0.40348224157E+03  0.17892481296E+03  0.44915880975E+03  0.00000000000E+00 0.  1.
<mgrwt>
<rscale>  0 0.17307220E+04</rscale>
<asrwt>0</asrwt>
<pdfrwt beam="1">  1        1 0.14588415E+00 0.17307220E+04</pdfrwt>
<pdfrwt beam="2">  1       -1 0.12149539E+00 0.17307220E+04</pdfrwt>
<totfact> 0.94796706E+00</totfact>
</mgrwt>
</event>
<event>
12    1  0.4672461E-008  0.1524680E+04  0.7818608E-02  0.8868205E-01
          1   -1    0    0  501    0  0.00000000000E+00  0.00000000000E+00  0.72897034851E+03  0.72897034851E+03  0.00000000000E+00 0. -1.
         -1   -1    0    0    0  501 -0.00000000000E+00 -0.00000000000E+00 -0.79723754365E+03  0.79723754365E+03  0.00000000000E+00 0.  1.
         23    2    1    2    0    0 -0.92827345784E+02 -0.92383867601E+02  0.44961438999E+03  0.47713997451E+03  0.91420787950E+02 0.  0.
        254    2    1    2    0    0  0.92827345784E+02  0.92383867601E+02 -0.51788158513E+03  0.10490679176E+04  0.90287898662E+03 0.  0.
         23    2    4    4    0    0 -0.67926130059E+02  0.25623680072E+03 -0.69395925077E+03  0.74841461138E+03  0.90960055028E+02 0.  0.
         23    2    4    4    0    0  0.16075347584E+03 -0.16385293312E+03  0.17607766563E+03  0.30065330626E+03  0.81851099846E+02 0.  0.
         11    1    3    3    0    0 -0.21773861330E+02 -0.19466401261E+01  0.21232550276E+03  0.21344790832E+03  0.00000000000E+00 0. -1.
        -11    1    3    3    0    0 -0.71053484454E+02 -0.90437227475E+02  0.23728888723E+03  0.26369206619E+03  0.00000000000E+00 0.  1.
          2    1    5    5  502    0  0.22331188978E+02  0.57977854844E+02 -0.16860092085E+03  0.17968412329E+03  0.00000000000E+00 0. -1.
          3    1    6    6  503    0 -0.91556080398E+01 -0.14511590797E+02  0.86096898991E+01  0.19197348415E+02  0.00000000000E+00 0. -1.
         -2    1    5    5    0  502 -0.90257319037E+02  0.19825894587E+03 -0.52535832992E+03  0.56873048808E+03  0.00000000000E+00 0.  1.
         -3    1    6    6    0  503  0.16990908388E+03 -0.14934134232E+03  0.16746797574E+03  0.28145595785E+03  0.00000000000E+00 0.  1.
<mgrwt>
<rscale>  0 0.15246803E+04</rscale>
<asrwt>0</asrwt>
<pdfrwt beam="1">  1        1 0.11214929E+00 0.15246803E+04</pdfrwt>
<pdfrwt beam="2">  1       -1 0.12265193E+00 0.15246803E+04</pdfrwt>
<totfact> 0.14502254E+01</totfact>
</mgrwt>
</event>
<event>
12    1  0.4672461E-008  0.2067671E+04  0.7818608E-02  0.8575620E-01
         -2   -1    0    0    0  501 -0.00000000000E+00  0.00000000000E+00  0.25476544525E+03  0.25476544525E+03  0.00000000000E+00 0.  1.
          2   -1    0    0  501    0  0.00000000000E+00 -0.00000000000E+00 -0.41952925350E+04  0.41952925350E+04  0.00000000000E+00 0. -1.
         23    2    1    2    0    0  0.31306105415E+02 -0.51834569976E+03 -0.19442727386E+03  0.56231327404E+03  0.93444725021E+02 0.  0.
        254    2    1    2    0    0 -0.31306105415E+02  0.51834569976E+03 -0.37460998159E+04  0.38877447062E+04  0.90090661747E+03 0.  0.
         23    2    4    4    0    0  0.11625353000E+03  0.34642386325E+03 -0.46749394986E+03  0.60009378712E+03  0.89652573394E+02 0.  0.
         23    2    4    4    0    0 -0.14755963542E+03  0.17192183652E+03 -0.32786058660E+04  0.32876509191E+04  0.89784058844E+02 0.  0.
         13    1    3    3    0    0 -0.27643800900E+02 -0.10672744124E+03 -0.23449557516E+02  0.11271560757E+03  0.00000000000E+00 0. -1.
        -13    1    3    3    0    0  0.58949906315E+02 -0.41161825852E+03 -0.17097771635E+03  0.44959766646E+03  0.00000000000E+00 0.  1.
          1    1    5    5  502    0  0.12450713654E+03  0.31777397669E+03 -0.45233191569E+03  0.56664494109E+03  0.00000000000E+00 0. -1.
          1    1    6    6  503    0 -0.12934177657E+03  0.15898799363E+03 -0.31776289140E+04  0.31842317743E+04  0.00000000000E+00 0. -1.
         -1    1    5    5    0  502 -0.82536065356E+01  0.28649886552E+02 -0.15162034171E+02  0.33448846026E+02  0.00000000000E+00 0.  1.
         -1    1    6    6    0  503 -0.18217858843E+02  0.12933842885E+02 -0.10097695196E+03  0.10341914475E+03  0.00000000000E+00 0.  1.
<mgrwt>
<rscale>  0 0.20676707E+04</rscale>
<asrwt>0</asrwt>
<pdfrwt beam="1">  1        2 0.64542960E+00 0.20676707E+04</pdfrwt>
<pdfrwt beam="2">  1       -2 0.39194685E-01 0.20676707E+04</pdfrwt>
<totfact> 0.13500792E+00</totfact>
</mgrwt>
</event>
<event>
12    1  0.4672461E-008  0.1588974E+04  0.7818608E-02  0.8827350E-01
          2   -1    0    0  501    0  0.00000000000E+00  0.00000000000E+00  0.69151732443E+03  0.69151732443E+03  0.00000000000E+00 0. -1.
         -2   -1    0    0    0  501 -0.00000000000E+00 -0.00000000000E+00 -0.91278981098E+03  0.91278981098E+03  0.00000000000E+00 0.  1.
         23    2    1    2    0    0  0.12652494615E+03 -0.45273137104E+03 -0.33922227858E+03  0.58740099178E+03  0.94836251179E+02 0.  0.
        254    2    1    2    0    0 -0.12652494615E+03  0.45273137104E+03  0.11794979202E+03  0.10169061436E+04  0.89398640660E+03 0.  0.
         23    2    4    4    0    0 -0.46984714919E+03  0.20012690066E+03 -0.10147284564E+03  0.52862737569E+03  0.91340264751E+02 0.  0.
         23    2    4    4    0    0  0.34332220304E+03  0.25260447039E+03  0.21942263766E+03  0.48827876794E+03  0.92686070883E+02 0.  0.
         13    1    3    3    0    0  0.16942699141E+02 -0.22161418015E+03 -0.13456845319E+03  0.25982411068E+03  0.00000000000E+00 0. -1.
        -13    1    3    3    0    0  0.10958224700E+03 -0.23111719089E+03 -0.20465382539E+03  0.32757688110E+03  0.00000000000E+00 0.  1.
          2    1    5    5  502    0 -0.20778960981E+02  0.62858838400E+01  0.14298525891E+02  0.25994718652E+02  0.00000000000E+00 0. -1.
          1    1    6    6  503    0  0.74897923128E+02  0.39196725804E+02  0.85213194328E+02  0.12003070728E+03  0.00000000000E+00 0. -1.
         -2    1    5    5    0  502 -0.44906818821E+03  0.19384101682E+03 -0.11577137153E+03  0.50263265704E+03  0.00000000000E+00 0.  1.
         -1    1    6    6    0  503  0.26842427992E+03  0.21340774458E+03  0.13420944334E+03  0.36824806066E+03  0.00000000000E+00 0.  1.
<mgrwt>
<rscale>  0 0.15889745E+04</rscale>
<asrwt>0</asrwt>
<pdfrwt beam="1">  1        2 0.10638728E+00 0.15889745E+04</pdfrwt>
<pdfrwt beam="2">  1       -2 0.14042920E+00 0.15889745E+04</pdfrwt>
<totfact> 0.14222764E+01</totfact>
</mgrwt>
</event>
<event>
12    1  0.4672461E-008  0.1846633E+04  0.7818608E-02  0.8681886E-01
          2   -1    0    0  501    0  0.00000000000E+00  0.00000000000E+00  0.13416880184E+04  0.13416880184E+04  0.00000000000E+00 0. -1.
         -2   -1    0    0    0  501 -0.00000000000E+00 -0.00000000000E+00 -0.63540354096E+03  0.63540354096E+03  0.00000000000E+00 0.  1.
         23    2    1    2    0    0 -0.33387951063E+03  0.37731678267E+03  0.81642683906E+03  0.96385661551E+03  0.92861776970E+02 0.  0.
        254    2    1    2    0    0  0.33387951063E+03 -0.37731678267E+03 -0.11014236158E+03  0.10132349439E+04  0.87216410705E+03 0.  0.
         23    2    4    4    0    0 -0.18800563088E+03 -0.17235610061E+02  0.20744121848E+03  0.29821489619E+03  0.10127725160E+03 0.  0.
         23    2    4    4    0    0  0.52188514150E+03 -0.36008117261E+03 -0.31758358006E+03  0.71502004770E+03  0.91497467224E+02 0.  0.
         11    1    3    3    0    0 -0.16862453634E+03  0.22965481011E+03  0.52975608268E+03  0.60151232173E+03  0.00000000000E+00 0. -1.
        -11    1    3    3    0    0 -0.16525497429E+03  0.14766197256E+03  0.28667075638E+03  0.36234429378E+03  0.00000000000E+00 0.  1.
          4    1    5    5  502    0 -0.10260457181E+03 -0.75588675311E+01  0.18116559210E+03  0.20834060189E+03  0.00000000000E+00 0. -1.
          1    1    6    6  503    0  0.42308496107E+03 -0.33091619657E+03 -0.27646442510E+03  0.60410180581E+03  0.00000000000E+00 0. -1.
         -4    1    5    5    0  502 -0.85401059061E+02 -0.96767425300E+01  0.26275626381E+02  0.89874294303E+02  0.00000000000E+00 0.  1.
         -1    1    6    6    0  503  0.98800180432E+02 -0.29164976042E+02 -0.41119154953E+02  0.11091824189E+03  0.00000000000E+00 0.  1.
<mgrwt>
<rscale>  0 0.18466330E+04</rscale>
<asrwt>0</asrwt>
<pdfrwt beam="1">  1        2 0.20641354E+00 0.18466330E+04</pdfrwt>
<pdfrwt beam="2">  1       -2 0.97754391E-01 0.18466330E+04</pdfrwt>
<totfact> 0.12817516E+01</totfact>
</mgrwt>
</event>
<event>
12    1  0.4672461E-008  0.1214613E+04  0.7818608E-02  0.9100161E-01
         -2   -1    0    0    0  501 -0.00000000000E+00  0.00000000000E+00  0.20154376834E+03  0.20154376834E+03  0.00000000000E+00 0. -1.
          2   -1    0    0  501    0  0.00000000000E+00 -0.00000000000E+00 -0.18299812521E+04  0.18299812521E+04  0.00000000000E+00 0.  1.
         23    2    1    2    0    0 -0.15599491357E+03 -0.19284267767E+03 -0.24011872720E+03  0.35914734196E+03  0.99030796687E+02 0.  0.
        254    2    1    2    0    0  0.15599491357E+03  0.19284267767E+03 -0.13883187566E+04  0.16723776785E+04  0.89883002745E+03 0.  0.
         23    2    4    4    0    0  0.11467652121E+03  0.36503585448E+03 -0.14172801554E+04  0.14708390095E+04  0.91008095283E+02 0.  0.
         23    2    4    4    0    0  0.41318392360E+02 -0.17219317681E+03  0.28961398799E+02  0.20153866901E+03  0.91768038006E+02 0.  0.
         11    1    3    3    0    0  0.73462421857E+01 -0.17656841151E+02  0.11715796011E+01  0.19159955961E+02  0.00000000000E+00 0.  1.
        -11    1    3    3    0    0 -0.16334115576E+03 -0.17518583652E+03 -0.24129030680E+03  0.33998738600E+03  0.00000000000E+00 0. -1.
          4    1    5    5  502    0  0.12926335994E+03  0.33267954873E+03 -0.12578351115E+04  0.13074914401E+04  0.00000000000E+00 0. -1.
          1    1    6    6  503    0 -0.42643242732E+00 -0.12480808775E+03 -0.13354859066E+02  0.12552128454E+03  0.00000000000E+00 0. -1.
         -4    1    5    5    0  502 -0.14586838728E+02  0.32356305751E+02 -0.15944504390E+03  0.16334756934E+03  0.00000000000E+00 0.  1.
         -1    1    6    6    0  503  0.41744824787E+02 -0.47385089056E+02  0.42316257865E+02  0.76017384466E+02  0.00000000000E+00 0.  1.
<mgrwt>
<rscale>  0 0.12146132E+04</rscale>
<asrwt>0</asrwt>
<pdfrwt beam="1">  1        2 0.28153559E+00 0.12146132E+04</pdfrwt>
<pdfrwt beam="2">  1       -2 0.31006732E-01 0.12146132E+04</pdfrwt>
<totfact> 0.78941354E+01</totfact>
</mgrwt>
</event>
<event>
12    1  0.4672461E-008  0.1248710E+04  0.7818608E-02  0.9071258E-01
         -2   -1    0    0    0  501 -0.00000000000E+00  0.00000000000E+00  0.84069474079E+03  0.84069474079E+03  0.00000000000E+00 0.  1.
          2   -1    0    0  501    0  0.00000000000E+00 -0.00000000000E+00 -0.46368698244E+03  0.46368698244E+03  0.00000000000E+00 0. -1.
         23    2    1    2    0    0 -0.72079953464E+02  0.32071973220E+03 -0.11469782986E+03  0.35942856181E+03  0.89311995627E+02 0.  0.
        254    2    1    2    0    0  0.72079953464E+02 -0.32071973220E+03  0.49170558821E+03  0.94495316141E+03  0.73695686812E+03 0.  0.
         23    2    4    4    0    0 -0.16780567507E+03  0.14316425915E+03  0.26162756021E+02  0.23959171439E+03  0.89805067306E+02 0.  0.
         23    2    4    4    0    0  0.23988562854E+03 -0.46388399135E+03  0.46554283219E+03  0.70536144703E+03  0.89839691336E+02 0.  0.
         13    1    3    3    0    0 -0.58861995247E+02  0.15015237858E+03 -0.95106463113E+02  0.18723170299E+03  0.00000000000E+00 0. -1.
        -13    1    3    3    0    0 -0.13217958217E+02  0.17056735362E+03 -0.19591366746E+02  0.17219685883E+03  0.00000000000E+00 0.  1.
          2    1    5    5  502    0 -0.48059049249E+02 -0.37900420886E+01  0.10815883223E+02  0.49406679342E+02  0.00000000000E+00 0. -1.
          1    1    6    6  503    0 -0.24023751176E+01 -0.47123664364E+00  0.14742317476E+02  0.14944209405E+02  0.00000000000E+00 0. -1.
         -2    1    5    5    0  502 -0.11974662583E+03  0.14695430124E+03  0.15346872799E+02  0.19018503504E+03  0.00000000000E+00 0.  1.
         -1    1    6    6    0  503  0.24228800366E+03 -0.46341275470E+03  0.45080051471E+03  0.69041723762E+03  0.00000000000E+00 0.  1.
<mgrwt>
<rscale>  0 0.12487101E+04</rscale>
<asrwt>0</asrwt>
<pdfrwt beam="1">  1        2 0.71336459E-01 0.12487101E+04</pdfrwt>
<pdfrwt beam="2">  1       -2 0.12933765E+00 0.12487101E+04</pdfrwt>
<totfact> 0.29061969E+01</totfact>
</mgrwt>
</event>
<event>
12    1  0.4672461E-008  0.1681152E+04  0.7818608E-02  0.8772187E-01
          1   -1    0    0  501    0  0.00000000000E+00  0.00000000000E+00  0.94528788360E+03  0.94528788360E+03  0.00000000000E+00 0. -1.
         -1   -1    0    0    0  501 -0.00000000000E+00 -0.00000000000E+00 -0.74746370489E+03  0.74746370489E+03  0.00000000000E+00 0.  1.
         23    2    1    2    0    0 -0.15730480649E+03 -0.69579923776E+02 -0.50657983778E+03  0.54284750851E+03  0.92054970037E+02 0.  0.
        254    2    1    2    0    0  0.15730480649E+03  0.69579923776E+02  0.70440401650E+03  0.11499040800E+04  0.89247308462E+03 0.  0.
         23    2    4    4    0    0  0.49775199983E+03 -0.10135692484E+03  0.42222129568E+03  0.66694222303E+03  0.92254142388E+02 0.  0.
         23    2    4    4    0    0 -0.34044719334E+03  0.17093684861E+03  0.28218272081E+03  0.48296185695E+03  0.92202872397E+02 0.  0.
         13    1    3    3    0    0 -0.14477964961E+02 -0.18509608983E+02 -0.13801405438E+02  0.27252447343E+02  0.00000000000E+00 0. -1.
        -13    1    3    3    0    0 -0.14282684153E+03 -0.51070314793E+02 -0.49277843234E+03  0.51559506116E+03  0.00000000000E+00 0.  1.
          4    1    5    5  502    0  0.16617044519E+03 -0.19291571311E+02  0.19382770820E+03  0.25603507972E+03  0.00000000000E+00 0. -1.
          3    1    6    6  503    0 -0.36636637452E+02 -0.80928793050E+01  0.41900946330E+02  0.56244352628E+02  0.00000000000E+00 0. -1.
         -4    1    5    5    0  502  0.33158155463E+03 -0.82065353528E+02  0.22839358748E+03  0.41090714331E+03  0.00000000000E+00 0.  1.
         -3    1    6    6    0  503 -0.30381055589E+03  0.17902972792E+03  0.24028177448E+03  0.42671750432E+03  0.00000000000E+00 0.  1.
<mgrwt>
<rscale>  0 0.16811524E+04</rscale>
<asrwt>0</asrwt>
<pdfrwt beam="1">  1        1 0.14542891E+00 0.16811524E+04</pdfrwt>
<pdfrwt beam="2">  1       -1 0.11499442E+00 0.16811524E+04</pdfrwt>
<totfact> 0.10941978E+01</totfact>
</mgrwt>
</event>
<event>
12    1  0.4672461E-008  0.2124331E+04  0.7818608E-02  0.8550601E-01
          2   -1    0    0  501    0  0.00000000000E+00  0.00000000000E+00  0.38454317443E+04  0.38454317443E+04  0.00000000000E+00 0. -1.
         -2   -1    0    0    0  501 -0.00000000000E+00 -0.00000000000E+00 -0.29338585125E+03  0.29338585125E+03  0.00000000000E+00 0.  1.
         23    2    1    2    0    0  0.23283677847E+03 -0.79667211269E+03  0.15531708244E+04  0.17634041411E+04  0.91406425277E+02 0.  0.
        254    2    1    2    0    0 -0.23283677847E+03  0.79667211269E+03  0.19988750687E+04  0.23754134545E+04  0.97887083872E+03 0.  0.
         23    2    4    4    0    0 -0.45371614229E+03  0.17753848774E+03  0.13870759891E+04  0.14729792061E+04  0.91157498992E+02 0.  0.
         23    2    4    4    0    0  0.22087936382E+03  0.61913362495E+03  0.61179907961E+03  0.90243424840E+03  0.89304646961E+02 0.  0.
         13    1    3    3    0    0  0.13237886494E+03 -0.51778021030E+03  0.91267855842E+03  0.10576401378E+04  0.00000000000E+00 0. -1.
        -13    1    3    3    0    0  0.10045791353E+03 -0.27889190238E+03  0.64049226596E+03  0.70576400331E+03  0.00000000000E+00 0.  1.
          1    1    5    5  502    0 -0.22914934900E+03  0.12585897541E+03  0.82736036645E+03  0.86768374527E+03  0.00000000000E+00 0. -1.
          3    1    6    6  503    0  0.75032111697E+02  0.24720064801E+03  0.18444482322E+03  0.31742380342E+03  0.00000000000E+00 0. -1.
         -1    1    5    5    0  502 -0.22456679329E+03  0.51679512327E+02  0.55971562263E+03  0.60529546079E+03  0.00000000000E+00 0.  1.
         -3    1    6    6    0  503  0.14584725212E+03  0.37193297694E+03  0.42735425639E+03  0.58501044498E+03  0.00000000000E+00 0.  1.
<mgrwt>
<rscale>  0 0.21243307E+04</rscale>
<asrwt>0</asrwt>
<pdfrwt beam="1">  1        2 0.59160485E+00 0.21243307E+04</pdfrwt>
<pdfrwt beam="2">  1       -2 0.45136287E-01 0.21243307E+04</pdfrwt>
<totfact> 0.19541891E+00</totfact>
</mgrwt>
</event>
<event>
12    1  0.4672461E-008  0.1835224E+04  0.7818608E-02  0.8687789E-01
          1   -1    0    0  501    0  0.00000000000E+00  0.00000000000E+00  0.91431483311E+03  0.91431483311E+03  0.00000000000E+00 0. -1.
         -1   -1    0    0    0  501 -0.00000000000E+00 -0.00000000000E+00 -0.92092069972E+03  0.92092069972E+03  0.00000000000E+00 0.  1.
         23    2    1    2    0    0  0.61976622554E+03  0.29874462807E+03  0.61868914959E+01  0.69455102929E+03  0.94891135197E+02 0.  0.
        254    2    1    2    0    0 -0.61976622554E+03 -0.29874462807E+03 -0.12792758099E+02  0.11406845035E+04  0.90974664321E+03 0.  0.
         23    2    4    4    0    0 -0.76095021034E+03 -0.45602030009E+03  0.71324583793E+02  0.89506755209E+03  0.95178725821E+02 0.  0.
         23    2    4    4    0    0  0.14118398480E+03  0.15727567202E+03 -0.84117341892E+02  0.24561695145E+03  0.92646667826E+02 0.  0.
         11    1    3    3    0    0  0.21865786464E+03  0.71874980688E+02 -0.30924996405E+02  0.23223615140E+03  0.00000000000E+00 0.  1.
        -11    1    3    3    0    0  0.40110836090E+03  0.22686964739E+03  0.37111887901E+02  0.46231487789E+03  0.00000000000E+00 0. -1.
          4    1    5    5  502    0 -0.26035005955E+02  0.10008490839E+01  0.83069253730E+01  0.27346448455E+02  0.00000000000E+00 0. -1.
          3    1    6    6  503    0  0.52762126987E+02  0.66201413302E+01 -0.36876492802E+01  0.53303537149E+02  0.00000000000E+00 0. -1.
         -4    1    5    5    0  502 -0.73491520438E+03 -0.45702114917E+03  0.63017658420E+02  0.86772110364E+03  0.00000000000E+00 0.  1.
         -3    1    6    6    0  503  0.88421857811E+02  0.15065553069E+03 -0.80429692612E+02  0.19231341430E+03  0.00000000000E+00 0.  1.
<mgrwt>
<rscale>  0 0.18352236E+04</rscale>
<asrwt>0</asrwt>
<pdfrwt beam="1">  1        1 0.14066382E+00 0.18352236E+04</pdfrwt>
<pdfrwt beam="2">  1       -1 0.14168011E+00 0.18352236E+04</pdfrwt>
<totfact> 0.67699963E+00</totfact>
</mgrwt>
</event>
<event>
12    1  0.4672461E-008  0.1472043E+04  0.7818608E-02  0.8903260E-01
          1   -1    0    0  501    0  0.00000000000E+00  0.00000000000E+00  0.28996068973E+04  0.28996068973E+04  0.00000000000E+00 0. -1.
         -1   -1    0    0    0  501 -0.00000000000E+00 -0.00000000000E+00 -0.18682793043E+03  0.18682793043E+03  0.00000000000E+00 0.  1.
         23    2    1    2    0    0 -0.84122212884E+02 -0.94744099933E+02  0.18061480308E+04  0.18128404610E+04  0.90370551299E+02 0.  0.
        254    2    1    2    0    0  0.84122212884E+02  0.94744099933E+02  0.90663093604E+03  0.12735943667E+04  0.88544337235E+03 0.  0.
         23    2    4    4    0    0  0.16983548192E+03  0.45822653609E+03  0.61610347342E+03  0.79195820661E+03  0.93801182072E+02 0.  0.
         23    2    4    4    0    0 -0.85713269040E+02 -0.36348243615E+03  0.29052746261E+03  0.48163616013E+03  0.90005212779E+02 0.  0.
         13    1    3    3    0    0 -0.11709380294E+02 -0.69156474419E+02  0.11648906079E+04  0.11670003667E+04  0.00000000000E+00 0.  1.
        -13    1    3    3    0    0 -0.72412832590E+02 -0.25587625514E+02  0.64125742288E+03  0.64584009422E+03  0.00000000000E+00 0. -1.
          2    1    5    5  502    0  0.16118236988E+03  0.32674925399E+03  0.47880582621E+03  0.60166423407E+03  0.00000000000E+00 0. -1.
          1    1    6    6  503    0 -0.88969676314E+02 -0.24836154532E+03  0.16444098351E+03  0.31086958288E+03  0.00000000000E+00 0. -1.
         -2    1    5    5    0  502  0.86531120406E+01  0.13147728210E+03  0.13729764722E+03  0.19029397255E+03  0.00000000000E+00 0.  1.
         -1    1    6    6    0  503  0.32564072747E+01 -0.11512089083E+03  0.12608647910E+03  0.17076657725E+03  0.00000000000E+00 0.  1.
<mgrwt>
<rscale>  0 0.14720429E+04</rscale>
<asrwt>0</asrwt>
<pdfrwt beam="1">  1        1 0.44609334E+00 0.14720429E+04</pdfrwt>
<pdfrwt beam="2">  1       -1 0.28742761E-01 0.14720429E+04</pdfrwt>
<totfact> 0.75824517E+00</totfact>
</mgrwt>
</event>
<event>
12    1  0.4672461E-008  0.2582672E+04  0.7818608E-02  0.8374111E-01
          2   -1    0    0  501    0  0.00000000000E+00  0.00000000000E+00  0.10199587061E+04  0.10199587061E+04  0.00000000000E+00 0. -1.
         -2   -1    0    0    0  501 -0.00000000000E+00 -0.00000000000E+00 -0.16349172059E+04  0.16349172059E+04  0.00000000000E+00 0.  1.
         23    2    1    2    0    0 -0.37882075555E+02 -0.49539941723E+01 -0.14372102962E+04  0.14408012360E+04  0.94208132960E+02 0.  0.
        254    2    1    2    0    0  0.37882075555E+02  0.49539941723E+01  0.82225179641E+03  0.12140746761E+04  0.89242350301E+03 0.  0.
         23    2    4    4    0    0  0.10039334014E+03  0.66277275064E+02 -0.16178881791E+03  0.22183235834E+03  0.92533635350E+02 0.  0.
         23    2    4    4    0    0 -0.62511264585E+02 -0.61323280892E+02  0.98404061432E+03  0.99224231776E+03  0.92415818664E+02 0.  0.
         13    1    3    3    0    0 -0.61345521315E+02 -0.22511166843E+02 -0.12015940184E+04  0.12033695238E+04  0.00000000000E+00 0.  1.
        -13    1    3    3    0    0  0.23463445760E+02  0.17557172670E+02 -0.23561627780E+03  0.23743171221E+03  0.00000000000E+00 0. -1.
          3    1    6    6  502    0  0.18251375920E+02 -0.22453128874E+02  0.11470029652E+03  0.11829376037E+03  0.00000000000E+00 0. -1.
          3    1    5    5  503    0  0.67167615731E+01  0.59638860383E+01  0.12247684591E+02  0.15188436409E+02  0.00000000000E+00 0. -1.
         -3    1    5    5    0  503  0.93676578567E+02  0.60313389026E+02 -0.17403650250E+03  0.20664392193E+03  0.00000000000E+00 0.  1.
         -3    1    6    6    0  502 -0.80762640505E+02 -0.38870152018E+02  0.86934031779E+03  0.87394855739E+03  0.00000000000E+00 0.  1.
<mgrwt>
<rscale>  0 0.25826715E+04</rscale>
<asrwt>0</asrwt>
<pdfrwt beam="1">  1        2 0.15691672E+00 0.25826715E+04</pdfrwt>
<pdfrwt beam="2">  1       -2 0.25152572E+00 0.25826715E+04</pdfrwt>
<totfact> 0.13623460E+00</totfact>
</mgrwt>
</event>
<event>
12    1  0.4672461E-008  0.1790358E+04  0.7818608E-02  0.8711444E-01
          1   -1    0    0  501    0  0.00000000000E+00  0.00000000000E+00  0.12563592993E+04  0.12563592993E+04  0.00000000000E+00 0. -1.
         -1   -1    0    0    0  501 -0.00000000000E+00 -0.00000000000E+00 -0.63783154617E+03  0.63783154617E+03  0.00000000000E+00 0.  1.
         23    2    1    2    0    0 -0.20014131062E+03  0.82382212498E+02 -0.45175997671E+03  0.50970570006E+03  0.94177762583E+02 0.  0.
        254    2    1    2    0    0  0.20014131062E+03 -0.82382212498E+02  0.10702877299E+04  0.13844851454E+04  0.85114036449E+03 0.  0.
         23    2    4    4    0    0 -0.10633505576E+03 -0.13864651734E+03 -0.62481857014E+02  0.20676626468E+03  0.91204741652E+02 0.  0.
         23    2    4    4    0    0  0.30647636638E+03  0.56264304841E+02  0.11327695869E+04  0.11777188808E+04  0.82227671555E+02 0.  0.
         11    1    3    3    0    0 -0.19536811566E+03  0.81932990432E+02 -0.35919393167E+03  0.41701558255E+03  0.00000000000E+00 0.  1.
        -11    1    3    3    0    0 -0.47731949609E+01  0.44922206574E+00 -0.92566045044E+02  0.92690117519E+02  0.00000000000E+00 0. -1.
          4    1    5    5  502    0 -0.70326262672E+02 -0.64606359110E+02  0.11360968340E+02  0.96170871164E+02  0.00000000000E+00 0. -1.
          3    1    6    6  503    0  0.25938299391E+01  0.15432827974E+02  0.55995858961E+02  0.58141520051E+02  0.00000000000E+00 0. -1.
         -4    1    5    5    0  502 -0.36008793085E+02 -0.74040158229E+02 -0.73842825355E+02  0.11059539351E+03  0.00000000000E+00 0.  1.
         -3    1    6    6    0  503  0.30388253644E+03  0.40831476867E+02  0.10767737279E+04  0.11195773607E+04  0.00000000000E+00 0.  1.
<mgrwt>
<rscale>  0 0.17903582E+04</rscale>
<asrwt>0</asrwt>
<pdfrwt beam="1">  1        1 0.19328604E+00 0.17903582E+04</pdfrwt>
<pdfrwt beam="2">  1       -1 0.98127931E-01 0.17903582E+04</pdfrwt>
<totfact> 0.91384496E+00</totfact>
</mgrwt>
</event>
<event>
12    1  0.4672461E-008  0.3728268E+04  0.7818608E-02  0.8061726E-01
          2   -1    0    0  501    0  0.00000000000E+00  0.00000000000E+00  0.49233723943E+04  0.49233723943E+04  0.00000000000E+00 0.  1.
         -2   -1    0    0    0  501 -0.00000000000E+00 -0.00000000000E+00 -0.70581611543E+03  0.70581611543E+03  0.00000000000E+00 0. -1.
         23    2    1    2    0    0 -0.30777882054E+02 -0.54843525714E+03 -0.52843234455E+03  0.76686927099E+03  0.84375510261E+02 0.  0.
        254    2    1    2    0    0  0.30777882054E+02  0.54843525714E+03  0.47459886234E+04  0.48623192387E+04  0.90333374589E+03 0.  0.
         23    2    4    4    0    0  0.27779407438E+02  0.47425663187E+02  0.36731401232E+04  0.36746930769E+04  0.91596702146E+02 0.  0.
         23    2    4    4    0    0  0.29984746160E+01  0.50100959395E+03  0.10728485003E+04  0.11876261619E+04  0.91828055380E+02 0.  0.
         11    1    3    3    0    0 -0.54294800688E+02 -0.32470611474E+03 -0.28539823667E+03  0.43569959815E+03  0.00000000000E+00 0. -1.
        -11    1    3    3    0    0  0.23516918634E+02 -0.22372914240E+03 -0.24303410788E+03  0.33116967285E+03  0.00000000000E+00 0.  1.
          1    1    5    5  502    0  0.13560407741E+02  0.73768673095E+02  0.29090547777E+04  0.29100215466E+04  0.00000000000E+00 0. -1.
          3    1    6    6  503    0  0.45796306357E+02  0.31785398005E+03  0.66312611022E+03  0.73679352085E+03  0.00000000000E+00 0. -1.
         -1    1    5    5    0  502  0.14218999697E+02 -0.26343009908E+02  0.76408534546E+03  0.76467153032E+03  0.00000000000E+00 0.  1.
         -3    1    6    6    0  503 -0.42797831741E+02  0.18315561390E+03  0.40972239004E+03  0.45083264102E+03  0.00000000000E+00 0.  1.
<mgrwt>
<rscale>  0 0.37282680E+04</rscale>
<asrwt>0</asrwt>
<pdfrwt beam="1">  1        2 0.75744189E+00 0.37282680E+04</pdfrwt>
<pdfrwt beam="2">  1       -2 0.10858710E+00 0.37282680E+04</pdfrwt>
<totfact> 0.23137549E-02</totfact>
</mgrwt>
</event>
<event>
12    1  0.4672461E-008  0.1278902E+04  0.7818608E-02  0.9046465E-01
         -1   -1    0    0    0  501 -0.00000000000E+00  0.00000000000E+00  0.35271171386E+03  0.35271171386E+03  0.00000000000E+00 0.  1.
          1   -1    0    0  501    0  0.00000000000E+00 -0.00000000000E+00 -0.11592977179E+04  0.11592977179E+04  0.00000000000E+00 0. -1.
         23    2    1    2    0    0  0.94907284775E+02  0.25440331714E+03 -0.26587162403E+02  0.28873126297E+03  0.94500923467E+02 0.  0.
        254    2    1    2    0    0 -0.94907284775E+02 -0.25440331714E+03 -0.77999884164E+03  0.12232781688E+04  0.90237622132E+03 0.  0.
         23    2    4    4    0    0  0.46626334862E+02 -0.45759216391E+03 -0.81605915375E+02  0.47632775750E+03  0.93080629343E+02 0.  0.
         23    2    4    4    0    0 -0.14153361964E+03  0.20318884677E+03 -0.69839292627E+03  0.74695041129E+03  0.94152878528E+02 0.  0.
         13    1    3    3    0    0  0.52415896816E+01  0.15097766348E+02  0.23398967496E+02  0.28335992854E+02  0.00000000000E+00 0. -1.
        -13    1    3    3    0    0  0.89665695094E+02  0.23930555080E+03 -0.49986129899E+02  0.26039527012E+03  0.00000000000E+00 0.  1.
          1    1    5    5  502    0  0.54677997026E+02 -0.39472745319E+03 -0.39968462303E+02  0.40049584722E+03  0.00000000000E+00 0. -1.
          1    1    6    6  503    0 -0.14379463588E+03  0.18987784412E+03 -0.69232006540E+03  0.73214586384E+03  0.00000000000E+00 0. -1.
         -1    1    5    5    0  502 -0.80516621638E+01 -0.62864710724E+02 -0.41637453072E+02  0.75831910277E+02  0.00000000000E+00 0.  1.
         -1    1    6    6    0  503  0.22610162442E+01  0.13311002651E+02 -0.60728608704E+01  0.14804547450E+02  0.00000000000E+00 0.  1.
<mgrwt>
<rscale>  0 0.12789025E+04</rscale>
<asrwt>0</asrwt>
<pdfrwt beam="1">  1        1 0.17835350E+00 0.12789025E+04</pdfrwt>
<pdfrwt beam="2">  1       -1 0.54263340E-01 0.12789025E+04</pdfrwt>
<totfact> 0.38635131E+01</totfact>
</mgrwt>
</event>
<event>
12    1  0.4672461E-008  0.3657662E+04  0.7818608E-02  0.8077410E-01
         -2   -1    0    0    0  501 -0.00000000000E+00  0.00000000000E+00  0.21210162244E+04  0.21210162244E+04  0.00000000000E+00 0.  1.
          2   -1    0    0  501    0  0.00000000000E+00 -0.00000000000E+00 -0.15768961724E+04  0.15768961724E+04  0.00000000000E+00 0. -1.
         23    2    1    2    0    0 -0.99684066318E+03 -0.65286272496E+03 -0.99826620612E+03  0.15570735149E+04  0.89562644034E+02 0.  0.
        254    2    1    2    0    0  0.99684066318E+03  0.65286272496E+03  0.15423862581E+04  0.21408388819E+04  0.88561543773E+03 0.  0.
         23    2    4    4    0    0  0.80126272884E+01 -0.11977758771E+03  0.21922567819E+01  0.15229890895E+03  0.93697806617E+02 0.  0.
         23    2    4    4    0    0  0.98882803589E+03  0.77264031268E+03  0.15401940013E+04  0.19885399729E+04  0.85672194178E+02 0.  0.
         11    1    3    3    0    0 -0.35159965020E+03 -0.23678268027E+03 -0.30046841231E+03  0.51958600683E+03  0.00000000000E+00 0.  1.
        -11    1    3    3    0    0 -0.64524101298E+03 -0.41608004470E+03 -0.69779779381E+03  0.10374875081E+04  0.00000000000E+00 0. -1.
          2    1    5    5  502    0  0.29734236041E+02 -0.10744557352E+03  0.29469362863E+02  0.11531313632E+03  0.00000000000E+00 0. -1.
          1    1    6    6  503    0  0.65925319584E+02  0.77122024955E+02  0.14336428390E+03  0.17563391584E+03  0.00000000000E+00 0. -1.
         -2    1    5    5    0  502 -0.21721608753E+02 -0.12332014195E+02 -0.27277106082E+02  0.36985772631E+02  0.00000000000E+00 0.  1.
         -1    1    6    6    0  503  0.92290271631E+03  0.69551828772E+03  0.13968297174E+04  0.18129060571E+04  0.00000000000E+00 0.  1.
<mgrwt>
<rscale>  0 0.36576617E+04</rscale>
<asrwt>0</asrwt>
<pdfrwt beam="1">  1        2 0.24259941E+00 0.36576617E+04</pdfrwt>
<pdfrwt beam="2">  1       -2 0.32631019E+00 0.36576617E+04</pdfrwt>
<totfact> 0.20391586E-01</totfact>
</mgrwt>
</event>
<event>
12    1  0.4672461E-008  0.4314144E+04  0.7818608E-02  0.7944008E-01
         -2   -1    0    0    0  501 -0.00000000000E+00  0.00000000000E+00  0.17259776544E+04  0.17259776544E+04  0.00000000000E+00 0.  1.
          2   -1    0    0  501    0  0.00000000000E+00 -0.00000000000E+00 -0.26958402277E+04  0.26958402277E+04  0.00000000000E+00 0. -1.
         23    2    1    2    0    0 -0.60584292054E+03  0.19510290196E+04 -0.16068578067E+03  0.20514649576E+04  0.95544087294E+02 0.  0.
        254    2    1    2    0    0  0.60584292054E+03 -0.19510290196E+04 -0.80917679262E+03  0.23703529245E+04  0.88895783087E+03 0.  0.
         23    2    4    4    0    0  0.52789523055E+03 -0.12366042682E+04 -0.91837056949E+02  0.13507302025E+04  0.90413186957E+02 0.  0.
         23    2    4    4    0    0  0.77947689993E+02 -0.71442475143E+03 -0.71733973567E+03  0.10196227220E+04  0.92604702679E+02 0.  0.
         11    1    3    3    0    0 -0.20971843992E+03  0.56149688502E+03 -0.74635328575E+02  0.60401242388E+03  0.00000000000E+00 0.  1.
        -11    1    3    3    0    0 -0.39612448062E+03  0.13895321346E+04 -0.86050452099E+02  0.14474525338E+04  0.00000000000E+00 0. -1.
          2    1    5    5  502    0  0.46412351700E+03 -0.11454403031E+04 -0.93856070581E+02  0.12394567717E+04  0.00000000000E+00 0. -1.
          3    1    6    6  503    0  0.35433937224E+02 -0.18234456962E+03 -0.24044055475E+03  0.30383674292E+03  0.00000000000E+00 0. -1.
         -2    1    5    5    0  502  0.63771713551E+02 -0.91163965099E+02  0.20190136324E+01  0.11127343078E+03  0.00000000000E+00 0.  1.
         -3    1    6    6    0  503  0.42513752769E+02 -0.53208018181E+03 -0.47689918092E+03  0.71578597905E+03  0.00000000000E+00 0.  1.
<mgrwt>
<rscale>  0 0.43141442E+04</rscale>
<asrwt>0</asrwt>
<pdfrwt beam="1">  1        2 0.41474465E+00 0.43141442E+04</pdfrwt>
<pdfrwt beam="2">  1       -2 0.26553502E+00 0.43141442E+04</pdfrwt>
<totfact> 0.10600436E-01</totfact>
</mgrwt>
</event>
<event>
12    1  0.4672461E-008  0.2421050E+04  0.7818608E-02  0.8431665E-01
          2   -1    0    0  501    0  0.00000000000E+00  0.00000000000E+00  0.19329941005E+04  0.19329941005E+04  0.00000000000E+00 0. -1.
         -2   -1    0    0    0  501 -0.00000000000E+00 -0.00000000000E+00 -0.75808346554E+03  0.75808346554E+03  0.00000000000E+00 0.  1.
         23    2    1    2    0    0 -0.40450672893E+03  0.54833941987E+03  0.13816633593E+04  0.15432293647E+04  0.90892357242E+02 0.  0.
        254    2    1    2    0    0  0.40450672893E+03 -0.54833941987E+03 -0.20675272435E+03  0.11478482013E+04  0.90028161765E+03 0.  0.
         23    2    4    4    0    0  0.51106822304E+03 -0.49539979782E+03 -0.46122135679E+03  0.85304887426E+03  0.91408717521E+02 0.  0.
         23    2    4    4    0    0 -0.10656149411E+03 -0.52939622045E+02  0.25446863244E+03  0.29479932704E+03  0.89411423878E+02 0.  0.
         13    1    3    3    0    0 -0.19430861684E+03  0.21210318068E+03  0.65590269165E+03  0.71620663132E+03  0.00000000000E+00 0.  1.
        -13    1    3    3    0    0 -0.21019811209E+03  0.33623623919E+03  0.72576066761E+03  0.82702273337E+03  0.00000000000E+00 0. -1.
          4    1    5    5  502    0  0.22053295169E+03 -0.18927709469E+03 -0.13952085683E+03  0.32237659786E+03  0.00000000000E+00 0. -1.
          1    1    6    6  503    0 -0.38755443332E+01  0.20162164728E+02  0.20365492978E+02  0.28918610524E+02  0.00000000000E+00 0. -1.
         -4    1    5    5    0  502  0.29053527135E+03 -0.30612270313E+03 -0.32170049996E+03  0.53067227640E+03  0.00000000000E+00 0.  1.
         -1    1    6    6    0  503 -0.10268594977E+03 -0.73101786773E+02  0.23410313946E+03  0.26588071652E+03  0.00000000000E+00 0.  1.
<mgrwt>
<rscale>  0 0.24210501E+04</rscale>
<asrwt>0</asrwt>
<pdfrwt beam="1">  1        2 0.29738371E+00 0.24210501E+04</pdfrwt>
<pdfrwt beam="2">  1       -2 0.11662823E+00 0.24210501E+04</pdfrwt>
<totfact> 0.37230203E+00</totfact>
</mgrwt>
</event>
<event>
12    1  0.4672461E-008  0.3075886E+04  0.7818608E-02  0.8222387E-01
         -2   -1    0    0    0  501 -0.00000000000E+00  0.00000000000E+00  0.24073905194E+04  0.24073905194E+04  0.00000000000E+00 0.  1.
          2   -1    0    0  501    0  0.00000000000E+00 -0.00000000000E+00 -0.98250334941E+03  0.98250334941E+03  0.00000000000E+00 0. -1.
         23    2    1    2    0    0 -0.11852285555E+04  0.10173576839E+03 -0.17167902951E+03  0.12053802460E+04  0.91383547716E+02 0.  0.
        254    2    1    2    0    0  0.11852285555E+04 -0.10173576839E+03  0.15965661994E+04  0.21845136228E+04  0.89886553144E+03 0.  0.
         23    2    4    4    0    0  0.41813099075E+03  0.23825666824E+03  0.11024381286E+04  0.12064770524E+04  0.92829333899E+02 0.  0.
         23    2    4    4    0    0  0.76709756477E+03 -0.33999243663E+03  0.49412807087E+03  0.97803657041E+03  0.91430037736E+02 0.  0.
         13    1    3    3    0    0 -0.61281110862E+03  0.34585405360E+02 -0.13095304628E+03  0.62760043454E+03  0.00000000000E+00 0. -1.
        -13    1    3    3    0    0 -0.57241744690E+03  0.67150363027E+02 -0.40725983227E+02  0.57777981142E+03  0.00000000000E+00 0.  1.
          2    1    5    5  502    0  0.85277709917E+00  0.28782889441E+00 -0.19467687669E+01  0.21447570690E+01  0.00000000000E+00 0. -1.
          1    1    6    6  503    0  0.13634817653E+03 -0.93777104262E+02  0.74788843057E+02  0.18159939860E+03  0.00000000000E+00 0. -1.
         -2    1    5    5    0  502  0.41727821365E+03  0.23796883935E+03  0.11043848973E+04  0.12043322953E+04  0.00000000000E+00 0.  1.
         -1    1    6    6    0  503  0.63074938823E+03 -0.24621533236E+03  0.41933922782E+03  0.79643717181E+03  0.00000000000E+00 0.  1.
<mgrwt>
<rscale>  0 0.30758864E+04</rscale>
<asrwt>0</asrwt>
<pdfrwt beam="1">  1        2 0.15115436E+00 0.30758864E+04</pdfrwt>
<pdfrwt beam="2">  1       -2 0.37036777E+00 0.30758864E+04</pdfrwt>
<totfact> 0.25383358E-01</totfact>
</mgrwt>
</event>
<event>
12    1  0.4672461E-008  0.1550794E+04  0.7818608E-02  0.8851361E-01
         -1   -1    0    0    0  501 -0.00000000000E+00  0.00000000000E+00  0.76558869783E+03  0.76558869783E+03  0.00000000000E+00 0.  1.
          1   -1    0    0  501    0  0.00000000000E+00 -0.00000000000E+00 -0.78533093339E+03  0.78533093339E+03  0.00000000000E+00 0. -1.
         23    2    1    2    0    0 -0.42507874046E+03  0.76449153324E+01  0.25581204203E+03  0.50928392013E+03  0.11480387682E+03 0.  0.
        254    2    1    2    0    0  0.42507874046E+03 -0.76449153324E+01 -0.27555427759E+03  0.10416357111E+04  0.91012329627E+03 0.  0.
         23    2    4    4    0    0  0.25076928128E+03  0.44057044298E+03 -0.14408156348E+03  0.53478994063E+03  0.90847322484E+02 0.  0.
         23    2    4    4    0    0  0.17430945918E+03 -0.44821535831E+03 -0.13147271412E+03  0.50684577047E+03  0.91251112332E+02 0.  0.
         11    1    3    3    0    0 -0.36273736929E+03  0.22782860222E+02  0.25697229916E+03  0.44512045598E+03  0.00000000000E+00 0.  1.
        -11    1    3    3    0    0 -0.62341371166E+02 -0.15137944890E+02 -0.11602571293E+01  0.64163464144E+02  0.00000000000E+00 0. -1.
          3    1    6    6  502    0  0.14141306112E+03 -0.28290291427E+03 -0.11866423285E+03  0.33780602853E+03  0.00000000000E+00 0. -1.
          3    1    5    5  503    0  0.21724827334E+03  0.39843072827E+03 -0.98813826273E+02  0.46444378536E+03  0.00000000000E+00 0. -1.
         -3    1    5    5    0  503  0.33521007940E+02  0.42139714708E+02 -0.45267737204E+02  0.70346155265E+02  0.00000000000E+00 0.  1.
         -3    1    6    6    0  502  0.32896398055E+02 -0.16531244404E+03 -0.12808481262E+02  0.16903974193E+03  0.00000000000E+00 0.  1.
<mgrwt>
<rscale>  0 0.15507940E+04</rscale>
<asrwt>0</asrwt>
<pdfrwt beam="1">  1        1 0.12082014E+00 0.15507940E+04</pdfrwt>
<pdfrwt beam="2">  1       -1 0.11778288E+00 0.15507940E+04</pdfrwt>
<totfact> 0.14220326E+01</totfact>
</mgrwt>
</event>
<event>
12    1  0.4672461E-008  0.1799978E+04  0.7818608E-02  0.8706311E-01
         -2   -1    0    0    0  501 -0.00000000000E+00  0.00000000000E+00  0.19045229269E+03  0.19045229269E+03  0.00000000000E+00 0.  1.
          2   -1    0    0  501    0  0.00000000000E+00 -0.00000000000E+00 -0.42529314989E+04  0.42529314989E+04  0.00000000000E+00 0. -1.
         23    2    1    2    0    0  0.16506786730E+03 -0.48174150349E+03 -0.45214540259E+03  0.68700981327E+03  0.90690360228E+02 0.  0.
        254    2    1    2    0    0 -0.16506786730E+03  0.48174150349E+03 -0.36103338036E+04  0.37563739783E+04  0.90361109697E+03 0.  0.
         23    2    4    4    0    0 -0.49301074275E+02  0.10415216712E+03 -0.31059362292E+04  0.31094231250E+04  0.91618996980E+02 0.  0.
         23    2    4    4    0    0 -0.11576679302E+03  0.37758933637E+03 -0.50439757434E+03  0.64695085326E+03  0.90293057424E+02 0.  0.
         13    1    3    3    0    0  0.12792152878E+03 -0.32486059872E+03 -0.25504555937E+03  0.43237317618E+03  0.00000000000E+00 0.  1.
        -13    1    3    3    0    0  0.37146338519E+02 -0.15688090476E+03 -0.19709984323E+03  0.25463663708E+03  0.00000000000E+00 0. -1.
          2    1    5    5  502    0 -0.22787324464E+02  0.11548861733E+03 -0.23687188684E+04  0.23716420389E+04  0.00000000000E+00 0.  1.
          1    1    6    6  503    0  0.10239085140E+02  0.74289749933E+02 -0.11820503363E+03  0.13998655573E+03  0.00000000000E+00 0. -1.
         -2    1    5    5    0  502 -0.26513749811E+02 -0.11336450209E+02 -0.73721736079E+03  0.73778108615E+03  0.00000000000E+00 0. -1.
         -1    1    6    6    0  503 -0.12600587816E+03  0.30329958644E+03 -0.38619254072E+03  0.50696429753E+03  0.00000000000E+00 0.  1.
<mgrwt>
<rscale>  0 0.17999784E+04</rscale>
<asrwt>0</asrwt>
<pdfrwt beam="1">  1        2 0.65429712E+00 0.17999784E+04</pdfrwt>
<pdfrwt beam="2">  1       -2 0.29300354E-01 0.17999784E+04</pdfrwt>
<totfact> 0.21533784E+00</totfact>
</mgrwt>
</event>
<event>
12    1  0.4672461E-008  0.1117723E+04  0.7818608E-02  0.9188088E-01
         -1   -1    0    0    0  501 -0.00000000000E+00  0.00000000000E+00  0.36595674979E+03  0.36595674979E+03  0.00000000000E+00 0.  1.
          1   -1    0    0  501    0  0.00000000000E+00 -0.00000000000E+00 -0.85345129253E+03  0.85345129253E+03  0.00000000000E+00 0. -1.
         23    2    1    2    0    0  0.83390547335E+02 -0.16577880346E+03 -0.44742705242E+02  0.21057773884E+03  0.88907138974E+02 0.  0.
        254    2    1    2    0    0 -0.83390547335E+02  0.16577880346E+03 -0.44275183750E+03  0.10088303035E+04  0.88728394360E+03 0.  0.
         23    2    4    4    0    0 -0.44128359838E+03 -0.53874747794E+02 -0.11211599514E+03  0.46684120573E+03  0.87960288508E+02 0.  0.
         23    2    4    4    0    0  0.35789305104E+03  0.21965355125E+03 -0.33063584236E+03  0.54198909776E+03  0.89983349973E+02 0.  0.
         13    1    3    3    0    0  0.47791145114E+02 -0.72428239091E+02  0.23119069541E+02  0.89801641107E+02  0.00000000000E+00 0.  1.
        -13    1    3    3    0    0  0.35599402220E+02 -0.93350564369E+02 -0.67861774783E+02  0.12077609773E+03  0.00000000000E+00 0. -1.
          1    1    5    5  502    0 -0.41164006255E+02  0.34533524552E+01  0.13676831342E+02  0.43513868705E+02  0.00000000000E+00 0. -1.
          3    1    6    6  503    0  0.10481961572E+03  0.10411052517E+03 -0.14848118803E+03  0.20945838845E+03  0.00000000000E+00 0. -1.
         -1    1    5    5    0  502 -0.40011959212E+03 -0.57328100250E+02 -0.12579282648E+03  0.42332733702E+03  0.00000000000E+00 0.  1.
         -3    1    6    6    0  503  0.25307343532E+03  0.11554302608E+03 -0.18215465433E+03  0.33253070931E+03  0.00000000000E+00 0.  1.
<mgrwt>
<rscale>  0 0.11177232E+04</rscale>
<asrwt>0</asrwt>
<pdfrwt beam="1">  1        1 0.13130020E+00 0.11177232E+04</pdfrwt>
<pdfrwt beam="2">  1       -1 0.56301039E-01 0.11177232E+04</pdfrwt>
<totfact> 0.63206049E+01</totfact>
</mgrwt>
</event>
<event>
12    1  0.4672461E-008  0.1317255E+04  0.7818608E-02  0.9015993E-01
          1   -1    0    0  501    0  0.00000000000E+00  0.00000000000E+00  0.40470476480E+03  0.40470476480E+03  0.00000000000E+00 0. -1.
         -1   -1    0    0    0  501 -0.00000000000E+00 -0.00000000000E+00 -0.10718674851E+04  0.10718674851E+04  0.00000000000E+00 0.  1.
         23    2    1    2    0    0 -0.18693574939E+03  0.22177353193E+03 -0.40591558962E+03  0.50704993321E+03  0.90574251337E+02 0.  0.
        254    2    1    2    0    0  0.18693574939E+03 -0.22177353193E+03 -0.26124713063E+03  0.96952231664E+03  0.88746548403E+03 0.  0.
         23    2    4    4    0    0  0.22425966669E+03 -0.20360249699E+03 -0.56659015059E+03  0.64895573205E+03  0.91502833427E+02 0.  0.
         23    2    4    4    0    0 -0.37323917300E+02 -0.18171034933E+02  0.30534301996E+03  0.32056658459E+03  0.88347688192E+02 0.  0.
         13    1    3    3    0    0 -0.13572422568E+03  0.16376707407E+03 -0.35683798258E+03  0.41542034832E+03  0.00000000000E+00 0.  1.
        -13    1    3    3    0    0 -0.51211523712E+02  0.58006457854E+02 -0.49077607037E+02  0.91629584885E+02  0.00000000000E+00 0. -1.
          1    1    5    5  502    0  0.10335240864E+03 -0.12536285076E+03 -0.21879407224E+03  0.27252231243E+03  0.00000000000E+00 0. -1.
          3    1    6    6  503    0 -0.28468090874E+02  0.15920711722E+02  0.34632885521E+02  0.47574552223E+02  0.00000000000E+00 0. -1.
         -1    1    5    5    0  502  0.12090725805E+03 -0.78239646231E+02 -0.34779607835E+03  0.37643341962E+03  0.00000000000E+00 0.  1.
         -3    1    6    6    0  503 -0.88558264265E+01 -0.34091746656E+02  0.27071013444E+03  0.27299203237E+03  0.00000000000E+00 0.  1.
<mgrwt>
<rscale>  0 0.13172545E+04</rscale>
<asrwt>0</asrwt>
<pdfrwt beam="1">  1        1 0.62262273E-01 0.13172545E+04</pdfrwt>
<pdfrwt beam="2">  1       -1 0.16490269E+00 0.13172545E+04</pdfrwt>
<totfact> 0.15557731E+01</totfact>
</mgrwt>
</event>
<event>
12    1  0.4672461E-008  0.1670361E+04  0.7818608E-02  0.8778451E-01
          1   -1    0    0  501    0  0.00000000000E+00  0.00000000000E+00  0.20511864993E+04  0.20511864993E+04  0.00000000000E+00 0. -1.
         -1   -1    0    0    0  501 -0.00000000000E+00 -0.00000000000E+00 -0.34006011514E+03  0.34006011514E+03  0.00000000000E+00 0.  1.
         23    2    1    2    0    0 -0.58359493381E+03 -0.12276159393E+03  0.73481254929E+03  0.95086420313E+03  0.92411008476E+02 0.  0.
        254    2    1    2    0    0  0.58359493381E+03  0.12276159393E+03  0.97631383484E+03  0.14403824113E+04  0.87513389314E+03 0.  0.
         23    2    4    4    0    0  0.73176065028E+03  0.19448377243E+03  0.46085499971E+03  0.89179586698E+03  0.98055854380E+02 0.  0.
         23    2    4    4    0    0 -0.14816571646E+03 -0.71722178496E+02  0.51545883513E+03  0.54858654430E+03  0.90289730615E+02 0.  0.
         11    1    3    3    0    0 -0.16095372346E+03 -0.35506074758E+02  0.14167486353E+03  0.21734431071E+03  0.00000000000E+00 0. -1.
        -11    1    3    3    0    0 -0.42264121035E+03 -0.87255519174E+02  0.59313768576E+03  0.73351989242E+03  0.00000000000E+00 0.  1.
          1    1    5    5  502    0  0.23853621585E+03  0.50974984769E+02  0.20134182988E+03  0.31628548466E+03  0.00000000000E+00 0. -1.
          3    1    6    6  503    0 -0.46679331589E+02  0.91704912400E+01  0.70207327693E+02  0.84806407594E+02  0.00000000000E+00 0. -1.
         -1    1    5    5    0  502  0.49322443442E+03  0.14350878766E+03  0.25951316983E+03  0.57551038232E+03  0.00000000000E+00 0.  1.
         -3    1    6    6    0  503 -0.10148638487E+03 -0.80892669736E+02  0.44525150743E+03  0.46378013671E+03  0.00000000000E+00 0.  1.
<mgrwt>
<rscale>  0 0.16703613E+04</rscale>
<asrwt>0</asrwt>
<pdfrwt beam="1">  1        1 0.31556715E+00 0.16703613E+04</pdfrwt>
<pdfrwt beam="2">  1       -1 0.52316942E-01 0.16703613E+04</pdfrwt>
<totfact> 0.96616501E+00</totfact>
</mgrwt>
</event>
<event>
12    1  0.4672461E-008  0.2782781E+04  0.7818608E-02  0.8308634E-01
          1   -1    0    0  501    0  0.00000000000E+00  0.00000000000E+00  0.14899070479E+04  0.14899070479E+04  0.00000000000E+00 0. -1.
         -1   -1    0    0    0  501 -0.00000000000E+00 -0.00000000000E+00 -0.12993878166E+04  0.12993878166E+04  0.00000000000E+00 0.  1.
         23    2    1    2    0    0 -0.88641030980E+03 -0.85750937870E+03  0.20806019828E+03  0.12542322915E+04  0.93616360547E+02 0.  0.
        254    2    1    2    0    0  0.88641030980E+03  0.85750937870E+03 -0.17540966929E+02  0.15350625730E+04  0.91381827829E+03 0.  0.
         23    2    4    4    0    0  0.59144624737E+03  0.84841231071E+03  0.31149661242E+03  0.10837906479E+04  0.89218363953E+02 0.  0.
         23    2    4    4    0    0  0.29496406243E+03  0.90970679918E+01 -0.32903757935E+03  0.45127192512E+03  0.91071768426E+02 0.  0.
         11    1    3    3    0    0 -0.41703425371E+03 -0.44222630560E+03  0.64324587397E+02  0.61124408109E+03  0.00000000000E+00 0.  1.
        -11    1    3    3    0    0 -0.46937605609E+03 -0.41528307310E+03  0.14373561089E+03  0.64298821037E+03  0.00000000000E+00 0. -1.
          4    1    5    5  502    0  0.15224479684E+03  0.23302670898E+03  0.43916191105E+02  0.28179523968E+03  0.00000000000E+00 0. -1.
          3    1    6    6  503    0  0.61776161756E+01 -0.65828193611E+01  0.42656412471E+01  0.99845955153E+01  0.00000000000E+00 0. -1.
         -4    1    5    5    0  502  0.43920145053E+03  0.61538560172E+03  0.26758042132E+03  0.80199540823E+03  0.00000000000E+00 0.  1.
         -3    1    6    6    0  503  0.28878644626E+03  0.15679887353E+02 -0.33330322060E+03  0.44128732961E+03  0.00000000000E+00 0.  1.
<mgrwt>
<rscale>  0 0.27827807E+04</rscale>
<asrwt>0</asrwt>
<pdfrwt beam="1">  1        1 0.22921647E+00 0.27827807E+04</pdfrwt>
<pdfrwt beam="2">  1       -1 0.19990582E+00 0.27827807E+04</pdfrwt>
<totfact> 0.86883198E-01</totfact>
</mgrwt>
</event>
<event>
12    1  0.4672461E-008  0.1688659E+04  0.7818608E-02  0.8767859E-01
          1   -1    0    0  501    0  0.00000000000E+00  0.00000000000E+00  0.20075907711E+04  0.20075907711E+04  0.00000000000E+00 0. -1.
         -1   -1    0    0    0  501 -0.00000000000E+00 -0.00000000000E+00 -0.35509837296E+03  0.35509837296E+03  0.00000000000E+00 0.  1.
         23    2    1    2    0    0 -0.52493891311E+03 -0.25197564848E+03  0.80506939501E+03  0.99781140889E+03  0.91860149110E+02 0.  0.
        254    2    1    2    0    0  0.52493891311E+03  0.25197564848E+03  0.84742300311E+03  0.13648777352E+04  0.89761511562E+03 0.  0.
         23    2    4    4    0    0  0.63403470031E+03 -0.12639759957E+03  0.62472388386E+03  0.90345319477E+03  0.89282639364E+02 0.  0.
         23    2    4    4    0    0 -0.10909578721E+03  0.37837324805E+03  0.22269911925E+03  0.46142454039E+03  0.90826775401E+02 0.  0.
         11    1    3    3    0    0 -0.14633656656E+02  0.80935879149E+01  0.22066305170E+02  0.27687034806E+02  0.00000000000E+00 0.  1.
        -11    1    3    3    0    0 -0.51030525645E+03 -0.26006923639E+03  0.78300308984E+03  0.97012437408E+03  0.00000000000E+00 0. -1.
          2    1    5    5  502    0  0.63416349627E+03 -0.12773001882E+03  0.61154129926E+03  0.89020281869E+03  0.00000000000E+00 0. -1.
          1    1    6    6  503    0 -0.24164593234E+02  0.26037482087E+02  0.46274872147E+02  0.58337310804E+02  0.00000000000E+00 0.  1.
         -2    1    5    5    0  502 -0.12879595265E+00  0.13324192486E+01  0.13182584599E+02  0.13250376077E+02  0.00000000000E+00 0.  1.
         -1    1    6    6    0  503 -0.84931193971E+02  0.35233576596E+03  0.17642424710E+03  0.40308722958E+03  0.00000000000E+00 0. -1.
<mgrwt>
<rscale>  0 0.16886589E+04</rscale>
<asrwt>0</asrwt>
<pdfrwt beam="1">  1        1 0.30886011E+00 0.16886589E+04</pdfrwt>
<pdfrwt beam="2">  1       -1 0.54630520E-01 0.16886589E+04</pdfrwt>
<totfact> 0.94980781E+00</totfact>
</mgrwt>
</event>
<event>
12    1  0.4672461E-008  0.1387844E+04  0.7818608E-02  0.8962665E-01
          2   -1    0    0  501    0  0.00000000000E+00  0.00000000000E+00  0.17380645457E+04  0.17380645457E+04  0.00000000000E+00 0. -1.
         -2   -1    0    0    0  501 -0.00000000000E+00 -0.00000000000E+00 -0.27704844673E+03  0.27704844673E+03  0.00000000000E+00 0.  1.
         23    2    1    2    0    0  0.27376618686E+03 -0.28916394421E+03  0.42794309188E+03  0.59053550813E+03  0.83864085117E+02 0.  0.
        254    2    1    2    0    0 -0.27376618686E+03  0.28916394421E+03  0.10330730071E+04  0.14245774843E+04  0.89644713123E+03 0.  0.
         23    2    4    4    0    0 -0.37809351406E+03  0.23789418655E+03  0.11487651764E+04  0.12359068158E+04  0.90861859955E+02 0.  0.
         23    2    4    4    0    0  0.10432732719E+03  0.51269757658E+02 -0.11569216927E+03  0.18867066848E+03  0.93269308280E+02 0.  0.
         11    1    3    3    0    0  0.10082477990E+03 -0.92026207966E+02  0.93152612430E+02  0.16526302792E+03  0.00000000000E+00 0. -1.
        -11    1    3    3    0    0  0.17294140697E+03 -0.19713773624E+03  0.33479047945E+03  0.42527248021E+03  0.00000000000E+00 0.  1.
          2    1    5    5  502    0 -0.19383067257E+03  0.70085452684E+02  0.54947662166E+03  0.58686187307E+03  0.00000000000E+00 0. -1.
          1    1    6    6  503    0  0.11562989777E+03  0.63714095238E+02 -0.10563133179E+03  0.16907908636E+03  0.00000000000E+00 0. -1.
         -2    1    5    5    0  502 -0.18426284148E+03  0.16780873387E+03  0.59928855472E+03  0.64904494276E+03  0.00000000000E+00 0.  1.
         -1    1    6    6    0  503 -0.11302570572E+02 -0.12444337580E+02 -0.10060837476E+02  0.19591582122E+02  0.00000000000E+00 0.  1.
<mgrwt>
<rscale>  0 0.13878445E+04</rscale>
<asrwt>0</asrwt>
<pdfrwt beam="1">  1        2 0.26739454E+00 0.13878445E+04</pdfrwt>
<pdfrwt beam="2">  1       -2 0.42622839E-01 0.13878445E+04</pdfrwt>
<totfact> 0.47475355E+01</totfact>
</mgrwt>
</event>
<event>
12    1  0.4672461E-008  0.2843286E+04  0.7818608E-02  0.8289954E-01
          2   -1    0    0  501    0  0.00000000000E+00  0.00000000000E+00  0.29073361826E+04  0.29073361826E+04  0.00000000000E+00 0.  1.
         -2   -1    0    0    0  501 -0.00000000000E+00 -0.00000000000E+00 -0.69516158639E+03  0.69516158639E+03  0.00000000000E+00 0. -1.
         23    2    1    2    0    0 -0.94938906851E+03 -0.85288681681E+03  0.10396337910E+04  0.16488672071E+04  0.95755530698E+02 0.  0.
        254    2    1    2    0    0  0.94938906851E+03  0.85288681681E+03  0.11725408052E+04  0.19536305619E+04  0.90170111827E+03 0.  0.
         23    2    4    4    0    0  0.10759041577E+04  0.64494577640E+03  0.11291562886E+04  0.16902761768E+04  0.92275774288E+02 0.  0.
         23    2    4    4    0    0 -0.12651508924E+03  0.20794104041E+03  0.43384516597E+02  0.26335438508E+03  0.90707065711E+02 0.  0.
         11    1    3    3    0    0 -0.89475219888E+03 -0.83011237128E+03  0.98711200014E+03  0.15697318711E+04  0.00000000000E+00 0. -1.
        -11    1    3    3    0    0 -0.54636869625E+02 -0.22774445535E+02  0.52521790854E+02  0.79135336016E+02  0.00000000000E+00 0.  1.
          4    1    5    5  502    0  0.57490394214E+03  0.29164779640E+03  0.58941347314E+03  0.87348796337E+03  0.00000000000E+00 0. -1.
          1    1    6    6  503    0 -0.70757378936E+02  0.18146383029E+03  0.50525755627E+02  0.20121774364E+03  0.00000000000E+00 0. -1.
         -4    1    5    5    0  502  0.50100021561E+03  0.35329798000E+03  0.53974281550E+03  0.81678821343E+03  0.00000000000E+00 0.  1.
         -1    1    6    6    0  503 -0.55757710306E+02  0.26477210125E+02 -0.71412390296E+01  0.62136641440E+02  0.00000000000E+00 0.  1.
<mgrwt>
<rscale>  0 0.28432857E+04</rscale>
<asrwt>0</asrwt>
<pdfrwt beam="1">  1        2 0.44728248E+00 0.28432857E+04</pdfrwt>
<pdfrwt beam="2">  1       -2 0.10694794E+00 0.28432857E+04</pdfrwt>
<totfact> 0.12118815E+00</totfact>
</mgrwt>
</event>
<event>
12    1  0.4672461E-008  0.2065210E+04  0.7818608E-02  0.8576726E-01
          2   -1    0    0  501    0  0.00000000000E+00  0.00000000000E+00  0.26108481510E+04  0.26108481510E+04  0.00000000000E+00 0.  1.
         -2   -1    0    0    0  501 -0.00000000000E+00 -0.00000000000E+00 -0.40840089338E+03  0.40840089338E+03  0.00000000000E+00 0. -1.
         23    2    1    2    0    0 -0.35388778909E+03  0.38975452092E+03  0.18380288428E+04  0.19140577051E+04  0.90120572232E+02 0.  0.
        254    2    1    2    0    0  0.35388778909E+03 -0.38975452092E+03  0.36441841485E+03  0.11051913393E+04  0.90083403667E+03 0.  0.
         23    2    4    4    0    0 -0.32478927953E+02 -0.19775287435E+03  0.57517192832E+03  0.61589092207E+03  0.91311558330E+02 0.  0.
         23    2    4    4    0    0  0.38636671705E+03 -0.19200164656E+03 -0.21075351347E+03  0.48930041727E+03  0.94095603400E+02 0.  0.
         13    1    3    3    0    0 -0.15948839819E+03  0.19064214004E+03  0.71144200980E+03  0.75361177540E+03  0.00000000000E+00 0. -1.
        -13    1    3    3    0    0 -0.19439939091E+03  0.19911238088E+03  0.11265868330E+04  0.11604459297E+04  0.00000000000E+00 0.  1.
          2    1    5    5  502    0  0.23795524119E+02 -0.17483179791E+02  0.53795433895E+02  0.61366417947E+02  0.00000000000E+00 0. -1.
          1    1    6    6  503    0 -0.44734091601E+01 -0.85474790306E+01 -0.26139402340E+01  0.99951723766E+01  0.00000000000E+00 0. -1.
         -2    1    5    5    0  502 -0.56274452072E+02 -0.18026969456E+03  0.52137649443E+03  0.55452450412E+03  0.00000000000E+00 0.  1.
         -1    1    6    6    0  503  0.39084012621E+03 -0.18345416753E+03 -0.20813957324E+03  0.47930524490E+03  0.00000000000E+00 0.  1.
<mgrwt>
<rscale>  0 0.20652096E+04</rscale>
<asrwt>0</asrwt>
<pdfrwt beam="1">  1        2 0.40166894E+00 0.20652096E+04</pdfrwt>
<pdfrwt beam="2">  1       -2 0.62830908E-01 0.20652096E+04</pdfrwt>
<totfact> 0.65115046E+00</totfact>
</mgrwt>
</event>
<event>
12    1  0.4672461E-008  0.1413257E+04  0.7818608E-02  0.8944278E-01
          2   -1    0    0  501    0  0.00000000000E+00  0.00000000000E+00  0.76734305198E+03  0.76734305198E+03  0.00000000000E+00 0. -1.
         -2   -1    0    0    0  501 -0.00000000000E+00 -0.00000000000E+00 -0.65071770612E+03  0.65071770612E+03  0.00000000000E+00 0.  1.
         23    2    1    2    0    0  0.10498674183E+03  0.34816843533E+03  0.23990306509E+03  0.44505947679E+03  0.90999900675E+02 0.  0.
        254    2    1    2    0    0 -0.10498674183E+03 -0.34816843533E+03 -0.12327771923E+03  0.97300128131E+03  0.89403054873E+03 0.  0.
         23    2    4    4    0    0 -0.44250566865E+03 -0.35091066402E+03  0.60745559630E+02  0.57544438911E+03  0.92177334710E+02 0.  0.
         23    2    4    4    0    0  0.33751892682E+03  0.27422286855E+01 -0.18402327886E+03  0.39755689220E+03  0.10129348252E+03 0.  0.
         11    1    3    3    0    0  0.82037533820E+02  0.33476739369E+03  0.20443793525E+03  0.40074210436E+03  0.00000000000E+00 0. -1.
        -11    1    3    3    0    0  0.22949208011E+02  0.13401041640E+02  0.35465129835E+02  0.44317372435E+02  0.00000000000E+00 0.  1.
          1    1    6    6  502    0  0.14997685689E+03  0.38568516859E+02 -0.44646030117E+02  0.16116406579E+03  0.00000000000E+00 0. -1.
          1    1    5    5  503    0 -0.30695440215E+02 -0.25642231410E+01  0.14613879010E+02  0.34093265464E+02  0.00000000000E+00 0. -1.
         -1    1    5    5    0  503 -0.41181022843E+03 -0.34834644088E+03  0.46131680620E+02  0.54135112364E+03  0.00000000000E+00 0.  1.
         -1    1    6    6    0  502  0.18754206992E+03 -0.35826288174E+02 -0.13937724874E+03  0.23639282642E+03  0.00000000000E+00 0.  1.
<mgrwt>
<rscale>  0 0.14132568E+04</rscale>
<asrwt>0</asrwt>
<pdfrwt beam="1">  1        2 0.11805278E+00 0.14132568E+04</pdfrwt>
<pdfrwt beam="2">  1       -2 0.10011042E+00 0.14132568E+04</pdfrwt>
<totfact> 0.29164455E+01</totfact>
</mgrwt>
</event>
<event>
12    1  0.4672461E-008  0.1955279E+04  0.7818608E-02  0.8627819E-01
         -2   -1    0    0    0  501 -0.00000000000E+00  0.00000000000E+00  0.78989209576E+03  0.78989209576E+03  0.00000000000E+00 0. -1.
          2   -1    0    0  501    0  0.00000000000E+00 -0.00000000000E+00 -0.12100118233E+04  0.12100118233E+04  0.00000000000E+00 0.  1.
         23    2    1    2    0    0 -0.85869868537E+02  0.43001790438E+03 -0.77564613521E+03  0.89568387195E+03  0.91288767061E+02 0.  0.
        254    2    1    2    0    0  0.85869868537E+02 -0.43001790438E+03  0.35552640765E+03  0.11042200471E+04  0.94900677214E+03 0.  0.
         23    2    4    4    0    0 -0.10977574545E+03 -0.65645744109E+03  0.61969776931E+02  0.67468402263E+03  0.91494212343E+02 0.  0.
         23    2    4    4    0    0  0.19564561399E+03  0.22643953671E+03  0.29355663072E+03  0.42953602451E+03  0.93667661737E+02 0.  0.
         11    1    3    3    0    0 -0.89906068080E+02  0.23850898194E+03 -0.47833099744E+03  0.54200569984E+03  0.00000000000E+00 0.  1.
        -11    1    3    3    0    0  0.40361995426E+01  0.19150892244E+03 -0.29731513777E+03  0.35367817211E+03  0.00000000000E+00 0. -1.
          4    1    5    5  502    0 -0.79223313412E+01 -0.30906230027E+03  0.13764913900E+02  0.30947009813E+03  0.00000000000E+00 0. -1.
          3    1    6    6  503    0  0.95374802475E+02  0.94207753231E+02  0.70341964824E+02  0.15139169637E+03  0.00000000000E+00 0.  1.
         -4    1    5    5    0  502 -0.10185341411E+03 -0.34739514082E+03  0.48204863031E+02  0.36521392450E+03  0.00000000000E+00 0.  1.
         -3    1    6    6    0  503  0.10027081151E+03  0.13223178348E+03  0.22321466590E+03  0.27814432813E+03  0.00000000000E+00 0. -1.
<mgrwt>
<rscale>  0 0.19552788E+04</rscale>
<asrwt>0</asrwt>
<pdfrwt beam="1">  1        2 0.18615566E+00 0.19552788E+04</pdfrwt>
<pdfrwt beam="2">  1       -2 0.12152186E+00 0.19552788E+04</pdfrwt>
<totfact> 0.89650587E+00</totfact>
</mgrwt>
</event>
<event>
12    1  0.4672461E-008  0.2003324E+04  0.7818608E-02  0.8605068E-01
          1   -1    0    0  501    0  0.00000000000E+00  0.00000000000E+00  0.16149720512E+04  0.16149720512E+04  0.00000000000E+00 0.  1.
         -1   -1    0    0    0  501 -0.00000000000E+00 -0.00000000000E+00 -0.62126597157E+03  0.62126597157E+03  0.00000000000E+00 0. -1.
         23    2    1    2    0    0 -0.88029474962E+02 -0.78720662002E+03  0.49881448987E+03  0.94025952275E+03  0.88479510286E+02 0.  0.
        254    2    1    2    0    0  0.88029474962E+02  0.78720662002E+03  0.49489158972E+03  0.12959785000E+04  0.89844261686E+03 0.  0.
         23    2    4    4    0    0 -0.49809553366E+02  0.61557500223E+03 -0.12072474369E+03  0.63579684549E+03  0.90827253753E+02 0.  0.
         23    2    4    4    0    0  0.13783902833E+03  0.17163161780E+03  0.61561633342E+03  0.66018165450E+03  0.91647896926E+02 0.  0.
         13    1    3    3    0    0 -0.10171760877E+03 -0.74867653743E+03  0.48091582346E+03  0.89562439609E+03  0.00000000000E+00 0.  1.
        -13    1    3    3    0    0  0.13688133804E+02 -0.38530082598E+02  0.17898666411E+02  0.44635126653E+02  0.00000000000E+00 0. -1.
          2    1    5    5  502    0  0.25783066315E+02  0.10784472084E+03 -0.19530660789E+02  0.11259083903E+03  0.00000000000E+00 0. -1.
          1    1    6    6  503    0  0.64470144865E+01  0.67588191487E+02  0.13365037306E+03  0.14990713740E+03  0.00000000000E+00 0. -1.
         -2    1    5    5    0  502 -0.75592619681E+02  0.50773028139E+03 -0.10119408290E+03  0.52320600647E+03  0.00000000000E+00 0.  1.
         -1    1    6    6    0  503  0.13139201384E+03  0.10404342631E+03  0.48196596035E+03  0.51027451710E+03  0.00000000000E+00 0.  1.
<mgrwt>
<rscale>  0 0.20033244E+04</rscale>
<asrwt>0</asrwt>
<pdfrwt beam="1">  1        1 0.24845724E+00 0.20033244E+04</pdfrwt>
<pdfrwt beam="2">  1       -1 0.95579381E-01 0.20033244E+04</pdfrwt>
<totfact> 0.53374197E+00</totfact>
</mgrwt>
</event>
<event>
12    1  0.4672461E-008  0.1683319E+04  0.7818608E-02  0.8770936E-01
         -2   -1    0    0    0  501 -0.00000000000E+00  0.00000000000E+00  0.28546316909E+04  0.28546316909E+04  0.00000000000E+00 0.  1.
          2   -1    0    0  501    0  0.00000000000E+00 -0.00000000000E+00 -0.24815482337E+03  0.24815482337E+03  0.00000000000E+00 0. -1.
         23    2    1    2    0    0  0.22385418108E+03 -0.27015974226E+03  0.18252526637E+04  0.18609056871E+04  0.91245324402E+02 0.  0.
        254    2    1    2    0    0 -0.22385418108E+03  0.27015974226E+03  0.78122420381E+03  0.12418808271E+04  0.89936630550E+03 0.  0.
         23    2    4    4    0    0 -0.26831143064E+03  0.48005358460E+03  0.83372249448E+03  0.10029373878E+04  0.91365957121E+02 0.  0.
         23    2    4    4    0    0  0.44457249556E+02 -0.20989384234E+03 -0.52498290670E+02  0.23894343935E+03  0.91137394056E+02 0.  0.
         11    1    3    3    0    0  0.18476647576E+03 -0.21507860850E+03  0.12530260475E+04  0.12847068670E+04  0.00000000000E+00 0.  1.
        -11    1    3    3    0    0  0.39087705318E+02 -0.55081133767E+02  0.57222661618E+03  0.57619882009E+03  0.00000000000E+00 0. -1.
          4    1    5    5  502    0 -0.66421820348E+02  0.70836381280E+02  0.10397185225E+03  0.14226664117E+03  0.00000000000E+00 0. -1.
          1    1    6    6  503    0  0.27181237550E+02 -0.99604549459E+02  0.20900763133E+02  0.10534100743E+03  0.00000000000E+00 0. -1.
         -4    1    5    5    0  502 -0.20188961029E+03  0.40921720332E+03  0.72975064223E+03  0.86067074661E+03  0.00000000000E+00 0.  1.
         -1    1    6    6    0  503  0.17276012006E+02 -0.11028929288E+03 -0.73399053803E+02  0.13360243192E+03  0.00000000000E+00 0.  1.
<mgrwt>
<rscale>  0 0.16833189E+04</rscale>
<asrwt>0</asrwt>
<pdfrwt beam="1">  1        2 0.38177667E-01 0.16833189E+04</pdfrwt>
<pdfrwt beam="2">  1       -2 0.43917408E+00 0.16833189E+04</pdfrwt>
<totfact> 0.53236856E-01</totfact>
</mgrwt>
</event>
<event>
12    1  0.4672461E-008  0.3667790E+04  0.7818608E-02  0.8075138E-01
          2   -1    0    0  501    0  0.00000000000E+00  0.00000000000E+00  0.11497259422E+04  0.11497259422E+04  0.00000000000E+00 0. -1.
         -2   -1    0    0    0  501 -0.00000000000E+00 -0.00000000000E+00 -0.29251930943E+04  0.29251930943E+04  0.00000000000E+00 0.  1.
         23    2    1    2    0    0 -0.94384011346E+03  0.65045372806E+03  0.59323176707E+03  0.12941656394E+04  0.94955571482E+02 0.  0.
        254    2    1    2    0    0  0.94384011346E+03 -0.65045372806E+03 -0.23686989192E+04  0.27807533971E+04  0.89884963891E+03 0.  0.
         23    2    4    4    0    0  0.49252477252E+02 -0.18921518632E+03 -0.11812879973E+02  0.21637013728E+03  0.91914628460E+02 0.  0.
         23    2    4    4    0    0  0.89458763621E+03 -0.46123854174E+03 -0.23568860393E+04  0.25643832598E+04  0.90120308017E+02 0.  0.
         11    1    3    3    0    0 -0.32721946056E+03  0.26029183777E+03  0.25649740549E+03  0.49052557039E+03  0.00000000000E+00 0. -1.
        -11    1    3    3    0    0 -0.61662065290E+03  0.39016189030E+03  0.33673436157E+03  0.80364006899E+03  0.00000000000E+00 0.  1.
          3    1    6    6  502    0  0.21840366785E+03 -0.73672651477E+02 -0.57722934782E+03  0.62154769864E+03  0.00000000000E+00 0. -1.
          3    1    5    5  503    0  0.52798771752E+02 -0.95637897176E+02 -0.43388929971E+02  0.11754538238E+03  0.00000000000E+00 0. -1.
         -3    1    5    5    0  503 -0.35462944994E+01 -0.93577289145E+02  0.31576049998E+02  0.98824754904E+02  0.00000000000E+00 0.  1.
         -3    1    6    6    0  502  0.67618396836E+03 -0.38756589026E+03 -0.17796566914E+04  0.19428355612E+04  0.00000000000E+00 0.  1.
<mgrwt>
<rscale>  0 0.36677897E+04</rscale>
<asrwt>0</asrwt>
<pdfrwt beam="1">  1        2 0.17688092E+00 0.36677897E+04</pdfrwt>
<pdfrwt beam="2">  1       -2 0.45002970E+00 0.36677897E+04</pdfrwt>
<totfact> 0.57067624E-02</totfact>
</mgrwt>
</event>
<event>
12    1  0.4672461E-008  0.1224566E+04  0.7818608E-02  0.9091622E-01
         -2   -1    0    0    0  501 -0.00000000000E+00  0.00000000000E+00  0.60450500416E+03  0.60450500416E+03  0.00000000000E+00 0. -1.
          2   -1    0    0  501    0  0.00000000000E+00 -0.00000000000E+00 -0.62016058568E+03  0.62016058568E+03  0.00000000000E+00 0.  1.
         23    2    1    2    0    0  0.17969318271E+03  0.16914707388E+02  0.19851369233E+03  0.28336567144E+03  0.91173847513E+02 0.  0.
        254    2    1    2    0    0 -0.17969318271E+03 -0.16914707388E+02 -0.21416927384E+03  0.94129991840E+03  0.89866640712E+03 0.  0.
         23    2    4    4    0    0  0.19781047479E+03  0.24229152580E+03 -0.32635219749E+03  0.46131352471E+03  0.92033927775E+02 0.  0.
         23    2    4    4    0    0 -0.37750365750E+03 -0.25920623318E+03  0.11218292365E+03  0.47998639369E+03  0.90028034673E+02 0.  0.
         11    1    3    3    0    0  0.25543098491E+02  0.37410590252E+02  0.31565570509E+02  0.55212203226E+02  0.00000000000E+00 0.  1.
        -11    1    3    3    0    0  0.15415008422E+03 -0.20495882864E+02  0.16694812182E+03  0.22815346821E+03  0.00000000000E+00 0. -1.
          3    1    6    6  502    0 -0.32563264218E+03 -0.20178189459E+03  0.12186575179E+03  0.40199976629E+03  0.00000000000E+00 0. -1.
          3    1    5    5  503    0  0.13910883194E+03  0.21793782613E+03 -0.23093433635E+03  0.34666818558E+03  0.00000000000E+00 0. -1.
         -3    1    5    5    0  503  0.58701642847E+02  0.24353699661E+02 -0.95417861135E+02  0.11464533913E+03  0.00000000000E+00 0.  1.
         -3    1    6    6    0  502 -0.51871015317E+02 -0.57424338597E+02 -0.96828281398E+01  0.77986627406E+02  0.00000000000E+00 0.  1.
<mgrwt>
<rscale>  0 0.12245655E+04</rscale>
<asrwt>0</asrwt>
<pdfrwt beam="1">  1        2 0.95409321E-01 0.12245655E+04</pdfrwt>
<pdfrwt beam="2">  1       -2 0.93000770E-01 0.12245655E+04</pdfrwt>
<totfact> 0.45985344E+01</totfact>
</mgrwt>
</event>
<event>
12    1  0.4672461E-008  0.1325665E+04  0.7818608E-02  0.9009456E-01
          1   -1    0    0  501    0  0.00000000000E+00  0.00000000000E+00  0.55489190076E+03  0.55489190076E+03  0.00000000000E+00 0. -1.
         -1   -1    0    0    0  501 -0.00000000000E+00 -0.00000000000E+00 -0.79177042503E+03  0.79177042503E+03  0.00000000000E+00 0.  1.
         23    2    1    2    0    0  0.23173799321E+03  0.14614806361E+03  0.15262677662E+03  0.32454570061E+03  0.83505837214E+02 0.  0.
        254    2    1    2    0    0 -0.23173799321E+03 -0.14614806361E+03 -0.38950530089E+03  0.10221166252E+04  0.90440381581E+03 0.  0.
         23    2    4    4    0    0  0.16832893602E+03 -0.26197726312E+03 -0.48609993291E+03  0.58467209926E+03  0.92636935316E+02 0.  0.
         23    2    4    4    0    0 -0.40006692923E+03  0.11582919951E+03  0.96594632015E+02  0.43744452592E+03  0.92505345802E+02 0.  0.
         13    1    3    3    0    0  0.35030577639E+02 -0.42624695002E+01  0.34445532991E+01  0.35456663173E+02  0.00000000000E+00 0.  1.
        -13    1    3    3    0    0  0.19670741557E+03  0.15041053311E+03  0.14918222332E+03  0.28908903743E+03  0.00000000000E+00 0. -1.
          4    1    5    5  502    0  0.65420779204E+02 -0.71740450647E+02 -0.22876309070E+03  0.24851382714E+03  0.00000000000E+00 0. -1.
          1    1    6    6  503    0 -0.58656618700E+01 -0.90281666443E+01  0.10572502027E+02  0.15089452649E+02  0.00000000000E+00 0. -1.
         -4    1    5    5    0  502  0.10290815682E+03 -0.19023681247E+03 -0.25733684221E+03  0.33615827212E+03  0.00000000000E+00 0.  1.
         -1    1    6    6    0  503 -0.39420126736E+03  0.12485736616E+03  0.86022129987E+02  0.42235507327E+03  0.00000000000E+00 0.  1.
<mgrwt>
<rscale>  0 0.13256651E+04</rscale>
<asrwt>0</asrwt>
<pdfrwt beam="1">  1        1 0.85367985E-01 0.13256651E+04</pdfrwt>
<pdfrwt beam="2">  1       -1 0.12181083E+00 0.13256651E+04</pdfrwt>
<totfact> 0.22422619E+01</totfact>
</mgrwt>
</event>
<event>
12    1  0.4672461E-008  0.1960577E+04  0.7818608E-02  0.8625277E-01
          2   -1    0    0  501    0  0.00000000000E+00  0.00000000000E+00  0.31362190659E+04  0.31362190659E+04  0.00000000000E+00 0. -1.
         -2   -1    0    0    0  501 -0.00000000000E+00 -0.00000000000E+00 -0.30640889670E+03  0.30640889670E+03  0.00000000000E+00 0.  1.
         23    2    1    2    0    0  0.40398016801E+03 -0.17165991628E+03  0.22117681773E+04  0.22567500799E+04  0.91298139408E+02 0.  0.
        254    2    1    2    0    0 -0.40398016801E+03  0.17165991628E+03  0.61804199192E+03  0.11858778827E+04  0.91195578063E+03 0.  0.
         23    2    4    4    0    0 -0.62837909285E+03  0.33634904149E+03  0.43551737367E+03  0.84040789958E+03  0.92839069783E+02 0.  0.
         23    2    4    4    0    0  0.22439892483E+03 -0.16468912521E+03  0.18252461825E+03  0.34546998309E+03  0.92503445969E+02 0.  0.
         13    1    3    3    0    0  0.31348891385E+03 -0.13188151398E+03  0.18820908592E+04  0.19125726222E+04  0.00000000000E+00 0. -1.
        -13    1    3    3    0    0  0.90491254166E+02 -0.39778402300E+02  0.32967731808E+03  0.34417745775E+03  0.00000000000E+00 0.  1.
          2    1    5    5  502    0 -0.48683519621E+02  0.13343025138E+02  0.58150627481E+02  0.77004005603E+02  0.00000000000E+00 0.  1.
          2    1    6    6  503    0  0.17530087182E+03 -0.14052813993E+03  0.98775389029E+02  0.24542846463E+03  0.00000000000E+00 0. -1.
         -2    1    5    5    0  502 -0.57969557323E+03  0.32300601635E+03  0.37736674619E+03  0.76340389398E+03  0.00000000000E+00 0. -1.
         -2    1    6    6    0  503  0.49098053011E+02 -0.24160985285E+02  0.83749229225E+02  0.10004151846E+03  0.00000000000E+00 0.  1.
<mgrwt>
<rscale>  0 0.19605769E+04</rscale>
<asrwt>0</asrwt>
<pdfrwt beam="1">  1        2 0.48249522E+00 0.19605769E+04</pdfrwt>
<pdfrwt beam="2">  1       -2 0.47139833E-01 0.19605769E+04</pdfrwt>
<totfact> 0.56900159E+00</totfact>
</mgrwt>
</event>
<event>
12    1  0.4672461E-008  0.1332771E+04  0.7818608E-02  0.9003974E-01
          1   -1    0    0  501    0  0.00000000000E+00  0.00000000000E+00  0.19375250927E+04  0.19375250927E+04  0.00000000000E+00 0. -1.
         -1   -1    0    0    0  501 -0.00000000000E+00 -0.00000000000E+00 -0.22919419074E+03  0.22919419074E+03  0.00000000000E+00 0.  1.
         23    2    1    2    0    0  0.22226685513E+02  0.61134712620E+02 -0.10019689037E+03  0.14948306516E+03  0.89857060343E+02 0.  0.
        254    2    1    2    0    0 -0.22226685513E+02 -0.61134712620E+02  0.18085277924E+04  0.20172362183E+04  0.89120014930E+03 0.  0.
         23    2    4    4    0    0  0.35023727120E+03  0.21405003421E+03  0.90393850476E+03  0.99724774630E+03  0.94417603326E+02 0.  0.
         23    2    4    4    0    0 -0.37246395672E+03 -0.27518474683E+03  0.90458928761E+03  0.10199884720E+04  0.87399427194E+02 0.  0.
         13    1    3    3    0    0 -0.18759181468E+02 -0.11269072275E+01 -0.63839347828E+02  0.66548021311E+02  0.00000000000E+00 0.  1.
        -13    1    3    3    0    0  0.40985866981E+02  0.62261619847E+02 -0.36357542537E+02  0.82935043845E+02  0.00000000000E+00 0. -1.
          1    1    5    5  502    0 -0.60510225577E+01  0.51590933152E+01  0.22012113506E+02  0.23404364098E+02  0.00000000000E+00 0. -1.
          3    1    6    6  503    0 -0.80555264972E+01 -0.32295223766E+02  0.67685801376E+02  0.75427055446E+02  0.00000000000E+00 0. -1.
         -1    1    5    5    0  502  0.35628829376E+03  0.20889094090E+03  0.88192639126E+03  0.97384338220E+03  0.00000000000E+00 0.  1.
         -3    1    6    6    0  503 -0.36440843022E+03 -0.24288952307E+03  0.83690348623E+03  0.94456141658E+03  0.00000000000E+00 0.  1.
<mgrwt>
<rscale>  0 0.13327708E+04</rscale>
<asrwt>0</asrwt>
<pdfrwt beam="1">  1        1 0.29808077E+00 0.13327708E+04</pdfrwt>
<pdfrwt beam="2">  1       -1 0.35260646E-01 0.13327708E+04</pdfrwt>
<totfact> 0.24680211E+01</totfact>
</mgrwt>
</event>
<event>
12    1  0.4672461E-008  0.2064026E+04  0.7818608E-02  0.8577258E-01
          2   -1    0    0  501    0  0.00000000000E+00  0.00000000000E+00  0.35934161799E+04  0.35934161799E+04  0.00000000000E+00 0. -1.
         -2   -1    0    0    0  501 -0.00000000000E+00 -0.00000000000E+00 -0.29638946262E+03  0.29638946262E+03  0.00000000000E+00 0.  1.
         23    2    1    2    0    0  0.22967727749E+03 -0.17818082544E+03  0.28329235121E+04  0.28492819783E+04  0.91935348007E+02 0.  0.
        254    2    1    2    0    0 -0.22967727749E+03  0.17818082544E+03  0.46410320524E+03  0.10405236643E+04  0.88475852774E+03 0.  0.
         23    2    4    4    0    0  0.11274234055E+02 -0.10630119525E+02 -0.24540956069E+03  0.26236281523E+03  0.91478339207E+02 0.  0.
         23    2    4    4    0    0 -0.24095151154E+03  0.18881094496E+03  0.70951276592E+03  0.77816084902E+03  0.91753681652E+02 0.  0.
         11    1    3    3    0    0  0.22439521659E+03 -0.18840062140E+03  0.26954032735E+04  0.27112813971E+04  0.00000000000E+00 0. -1.
        -11    1    3    3    0    0  0.52820608908E+01  0.10219795959E+02  0.13752023857E+03  0.13800058120E+03  0.00000000000E+00 0.  1.
          4    1    5    5  502    0  0.39962168249E+00 -0.10217732251E+02  0.52311724960E+01  0.11485944259E+02  0.00000000000E+00 0. -1.
          1    1    6    6  503    0  0.56107329263E+01  0.19825398721E+02  0.42331991270E+02  0.47079977095E+02  0.00000000000E+00 0. -1.
         -4    1    5    5    0  502  0.10874612373E+02 -0.41238727374E+00 -0.25064073318E+03  0.25087687097E+03  0.00000000000E+00 0.  1.
         -1    1    6    6    0  503 -0.24656224447E+03  0.16898554624E+03  0.66718077465E+03  0.73108087193E+03  0.00000000000E+00 0.  1.
<mgrwt>
<rscale>  0 0.20640259E+04</rscale>
<asrwt>0</asrwt>
<pdfrwt beam="1">  1        2 0.55283323E+00 0.20640259E+04</pdfrwt>
<pdfrwt beam="2">  1       -2 0.45598381E-01 0.20640259E+04</pdfrwt>
<totfact> 0.29587282E+00</totfact>
</mgrwt>
</event>
<event>
12    1  0.4672461E-008  0.1596762E+04  0.7818608E-02  0.8822540E-01
         -1   -1    0    0    0  501 -0.00000000000E+00  0.00000000000E+00  0.28658747750E+03  0.28658747750E+03  0.00000000000E+00 0.  1.
          1   -1    0    0  501    0  0.00000000000E+00 -0.00000000000E+00 -0.22241460227E+04  0.22241460227E+04  0.00000000000E+00 0. -1.
         23    2    1    2    0    0  0.51691840895E+03 -0.96606516344E+02 -0.85614055058E+03  0.10080634951E+04  0.81718463629E+02 0.  0.
        254    2    1    2    0    0 -0.51691840895E+03  0.96606516344E+02 -0.10814179946E+04  0.15026700051E+04  0.90111864072E+03 0.  0.
         23    2    4    4    0    0 -0.54289448982E+03 -0.30157849167E+03 -0.72863047536E+03  0.96232742712E+03  0.97404792755E+02 0.  0.
         23    2    4    4    0    0  0.25976080878E+02  0.39818500801E+03 -0.35278751928E+03  0.54034257800E+03  0.91022032803E+02 0.  0.
         11    1    3    3    0    0  0.12239347833E+03 -0.53718586820E+02 -0.18238275174E+03  0.22611792994E+03  0.00000000000E+00 0.  1.
        -11    1    3    3    0    0  0.39452493062E+03 -0.42887929523E+02 -0.67375779884E+03  0.78194556516E+03  0.00000000000E+00 0. -1.
          2    1    5    5  502    0 -0.61254840280E+02 -0.79534500835E+01 -0.47346397769E+02  0.77827335864E+02  0.00000000000E+00 0. -1.
          3    1    6    6  503    0 -0.29175921308E+02  0.15330074229E+03 -0.10840846740E+03  0.19001249374E+03  0.00000000000E+00 0. -1.
         -2    1    5    5    0  502 -0.48163964954E+03 -0.29362504158E+03 -0.68128407759E+03  0.88450009126E+03  0.00000000000E+00 0.  1.
         -3    1    6    6    0  503  0.55152002187E+02  0.24488426572E+03 -0.24437905188E+03  0.35033008426E+03  0.00000000000E+00 0.  1.
<mgrwt>
<rscale>  0 0.15967622E+04</rscale>
<asrwt>0</asrwt>
<pdfrwt beam="1">  1        1 0.34217632E+00 0.15967622E+04</pdfrwt>
<pdfrwt beam="2">  1       -1 0.44090380E-01 0.15967622E+04</pdfrwt>
<totfact> 0.10252229E+01</totfact>
</mgrwt>
</event>
<event>
12    1  0.4672461E-008  0.1069053E+04  0.7818608E-02  0.9235891E-01
         -2   -1    0    0    0  501 -0.00000000000E+00  0.00000000000E+00  0.31378520578E+03  0.31378520578E+03  0.00000000000E+00 0.  1.
          2   -1    0    0  501    0  0.00000000000E+00 -0.00000000000E+00 -0.91055537276E+03  0.91055537276E+03  0.00000000000E+00 0. -1.
         23    2    1    2    0    0  0.50940602344E+02  0.11135991638E+03 -0.13673418400E+03  0.20491363694E+03  0.91089986200E+02 0.  0.
        254    2    1    2    0    0 -0.50940602344E+02 -0.11135991638E+03 -0.46003598298E+03  0.10194269416E+04  0.90144451171E+03 0.  0.
         23    2    4    4    0    0 -0.21824942210E+03 -0.11091267817E+03  0.20209307588E+03  0.33041050512E+03  0.91624549935E+02 0.  0.
         23    2    4    4    0    0  0.16730881976E+03 -0.44723820868E+00 -0.66212905886E+03  0.68901643648E+03  0.91303438953E+02 0.  0.
         13    1    3    3    0    0  0.62457694646E+02  0.76521162127E+02 -0.49939649003E+02  0.11068161734E+03  0.00000000000E+00 0.  1.
        -13    1    3    3    0    0 -0.11517092301E+02  0.34838754253E+02 -0.86794534995E+02  0.94232019600E+02  0.00000000000E+00 0. -1.
          2    1    5    5  502    0 -0.36803743810E+02 -0.46874210808E+02  0.13756751991E+02  0.61163350322E+02  0.00000000000E+00 0. -1.
          4    1    6    6  503    0 -0.27572618805E-02 -0.17557666092E+02 -0.12346627579E+03  0.12470843157E+03  0.00000000000E+00 0. -1.
         -2    1    5    5    0  502 -0.18144567829E+03 -0.64038467364E+02  0.18833632389E+03  0.26924715480E+03  0.00000000000E+00 0.  1.
         -4    1    6    6    0  503  0.16731157702E+03  0.17110427883E+02 -0.53866278307E+03  0.56430800491E+03  0.00000000000E+00 0.  1.
<mgrwt>
<rscale>  0 0.10690534E+04</rscale>
<asrwt>0</asrwt>
<pdfrwt beam="1">  1        2 0.14008544E+00 0.10690534E+04</pdfrwt>
<pdfrwt beam="2">  1       -2 0.48274648E-01 0.10690534E+04</pdfrwt>
<totfact> 0.11659090E+02</totfact>
</mgrwt>
</event>
<event>
12    1  0.4672461E-008  0.1924160E+04  0.7818608E-02  0.8642923E-01
          2   -1    0    0  501    0  0.00000000000E+00  0.00000000000E+00  0.59597383271E+03  0.59597383271E+03  0.00000000000E+00 0.  1.
         -2   -1    0    0    0  501 -0.00000000000E+00 -0.00000000000E+00 -0.15530846198E+04  0.15530846198E+04  0.00000000000E+00 0. -1.
         23    2    1    2    0    0  0.61015792981E+02 -0.26907791607E+03  0.39838128666E+03  0.49286770228E+03  0.89917019982E+02 0.  0.
        254    2    1    2    0    0 -0.61015792981E+02  0.26907791607E+03 -0.13554920737E+04  0.16561907502E+04  0.91075967591E+03 0.  0.
         23    2    4    4    0    0  0.19835410600E+03  0.47893288724E+03 -0.11213870772E+04  0.12387565982E+04  0.91037744724E+02 0.  0.
         23    2    4    4    0    0 -0.25936989898E+03 -0.20985497117E+03 -0.23410499657E+03  0.41743415199E+03  0.90190179122E+02 0.  0.
         11    1    3    3    0    0  0.79445752884E+02 -0.25340686023E+03  0.37207932661E+03  0.45713202661E+03  0.00000000000E+00 0.  1.
        -11    1    3    3    0    0 -0.18429959904E+02 -0.15671055839E+02  0.26301960052E+02  0.35735675672E+02  0.00000000000E+00 0. -1.
          1    1    5    5  502    0  0.13122086466E+03  0.39315786934E+03 -0.93741017453E+03  0.10249535896E+04  0.00000000000E+00 0. -1.
          1    1    6    6  503    0 -0.23645336770E+03 -0.19048188863E+03 -0.23977858720E+03  0.38689445056E+03  0.00000000000E+00 0. -1.
         -1    1    5    5    0  502  0.67133241340E+02  0.85775017903E+02 -0.18397690264E+03  0.21380300861E+03  0.00000000000E+00 0.  1.
         -1    1    6    6    0  503 -0.22916531280E+02 -0.19373082547E+02  0.56735906325E+01  0.30539701438E+02  0.00000000000E+00 0.  1.
<mgrwt>
<rscale>  0 0.19241599E+04</rscale>
<asrwt>0</asrwt>
<pdfrwt beam="1">  1        2 0.91688284E-01 0.19241599E+04</pdfrwt>
<pdfrwt beam="2">  1       -2 0.23893609E+00 0.19241599E+04</pdfrwt>
<totfact> 0.35139644E+00</totfact>
</mgrwt>
</event>
<event>
12    1  0.4672461E-008  0.1788718E+04  0.7818608E-02  0.8712322E-01
         -2   -1    0    0    0  501 -0.00000000000E+00  0.00000000000E+00  0.37797861692E+03  0.37797861692E+03  0.00000000000E+00 0.  1.
          2   -1    0    0  501    0  0.00000000000E+00 -0.00000000000E+00 -0.21161988077E+04  0.21161988077E+04  0.00000000000E+00 0. -1.
         23    2    1    2    0    0  0.32424061119E+03  0.12204521680E+03  0.13875793612E+03  0.38236177725E+03  0.83185064644E+02 0.  0.
        254    2    1    2    0    0 -0.32424061119E+03 -0.12204521680E+03 -0.18769781269E+04  0.21118156474E+04  0.90370981557E+03 0.  0.
         23    2    4    4    0    0 -0.44849232957E+03 -0.30219547518E+03 -0.60002591806E+03  0.81300945966E+03  0.92118425120E+02 0.  0.
         23    2    4    4    0    0  0.12425171839E+03  0.18015025838E+03 -0.12769522089E+04  0.12988061878E+04  0.91640408471E+02 0.  0.
         13    1    3    3    0    0  0.77160944946E+02  0.61085310139E+02  0.15612945817E+02  0.99644320545E+02  0.00000000000E+00 0. -1.
        -13    1    3    3    0    0  0.24707966624E+03  0.60959906659E+02  0.12314499030E+03  0.28271745671E+03  0.00000000000E+00 0.  1.
          1    1    5    5  502    0 -0.23980888809E+03 -0.11885042584E+03 -0.25091883269E+03  0.36687053183E+03  0.00000000000E+00 0. -1.
          3    1    6    6  503    0  0.12760160880E+03  0.11579895476E+03 -0.96589116918E+03  0.98114082536E+03  0.00000000000E+00 0. -1.
         -1    1    5    5    0  502 -0.20868344149E+03 -0.18334504934E+03 -0.34910708537E+03  0.44613892783E+03  0.00000000000E+00 0.  1.
         -3    1    6    6    0  503 -0.33498904124E+01  0.64351303628E+02 -0.31106103971E+03  0.31766536240E+03  0.00000000000E+00 0.  1.
<mgrwt>
<rscale>  0 0.17887179E+04</rscale>
<asrwt>0</asrwt>
<pdfrwt beam="1">  1        2 0.32556905E+00 0.17887179E+04</pdfrwt>
<pdfrwt beam="2">  1       -2 0.58150556E-01 0.17887179E+04</pdfrwt>
<totfact> 0.15047324E+01</totfact>
</mgrwt>
</event>
<event>
12    1  0.4672461E-008  0.1670009E+04  0.7818608E-02  0.8778657E-01
          1   -1    0    0  501    0  0.00000000000E+00  0.00000000000E+00  0.36341265175E+04  0.36341265175E+04  0.00000000000E+00 0. -1.
         -1   -1    0    0    0  501 -0.00000000000E+00 -0.00000000000E+00 -0.19185688987E+03  0.19185688987E+03  0.00000000000E+00 0.  1.
         23    2    1    2    0    0  0.26275602288E+03  0.52444809227E+03  0.11085101682E+04  0.12574884063E+04  0.91628433506E+02 0.  0.
        254    2    1    2    0    0 -0.26275602288E+03 -0.52444809227E+03  0.23337594594E+04  0.25684950011E+04  0.89813519429E+03 0.  0.
         23    2    4    4    0    0  0.71790558400E+01  0.31600593481E+02  0.16067452037E+04  0.16097986094E+04  0.93655095720E+02 0.  0.
         23    2    4    4    0    0 -0.26993507872E+03 -0.55604868576E+03  0.72701425571E+03  0.95869639167E+03  0.92162659166E+02 0.  0.
         11    1    3    3    0    0  0.25524726153E+03  0.51606491857E+03  0.10460702775E+04  0.11940423737E+04  0.00000000000E+00 0.  1.
        -11    1    3    3    0    0  0.75087613504E+01  0.83831737078E+01  0.62439890710E+02  0.63446032581E+02  0.00000000000E+00 0. -1.
          1    1    5    5  502    0  0.61814581623E+01  0.60913005549E+02  0.73002271814E+03  0.73258567667E+03  0.00000000000E+00 0. -1.
          3    1    6    6  503    0 -0.19284457486E+03 -0.35247755233E+03  0.53017125611E+03  0.66521501468E+03  0.00000000000E+00 0. -1.
         -1    1    5    5    0  502  0.99759767766E+00 -0.29312412068E+02  0.87672248554E+03  0.87721293273E+03  0.00000000000E+00 0.  1.
         -3    1    6    6    0  503 -0.77090503860E+02 -0.20357113343E+03  0.19684299960E+03  0.29348137700E+03  0.00000000000E+00 0.  1.
<mgrwt>
<rscale>  0 0.16700086E+04</rscale>
<asrwt>0</asrwt>
<pdfrwt beam="1">  1        1 0.55909634E+00 0.16700086E+04</pdfrwt>
<pdfrwt beam="2">  1       -1 0.29516447E-01 0.16700086E+04</pdfrwt>
<totfact> 0.19750586E+00</totfact>
</mgrwt>
</event>
<event>
12    1  0.4672461E-008  0.1408518E+04  0.7818608E-02  0.8947676E-01
         -2   -1    0    0    0  501 -0.00000000000E+00  0.00000000000E+00  0.17800544610E+03  0.17800544610E+03  0.00000000000E+00 0.  1.
          2   -1    0    0  501    0  0.00000000000E+00 -0.00000000000E+00 -0.27863247402E+04  0.27863247402E+04  0.00000000000E+00 0. -1.
         23    2    1    2    0    0  0.40241146724E+03 -0.20388975624E+02 -0.61051189735E+03  0.73694522869E+03  0.89514211124E+02 0.  0.
        254    2    1    2    0    0 -0.40241146724E+03  0.20388975624E+02 -0.19978073968E+04  0.22273849576E+04  0.89869831175E+03 0.  0.
         23    2    4    4    0    0 -0.45782934063E+03  0.31132910010E+03 -0.17265153593E+04  0.18154458589E+04  0.91950348991E+02 0.  0.
         23    2    4    4    0    0  0.55417873391E+02 -0.29094012447E+03 -0.27129203742E+03  0.41193909876E+03  0.91526798256E+02 0.  0.
         13    1    3    3    0    0  0.32104684477E+03  0.81778959723E+01 -0.52542960967E+03  0.61580372623E+03  0.00000000000E+00 0.  1.
        -13    1    3    3    0    0  0.81364622466E+02 -0.28566871596E+02 -0.85082287683E+02  0.12114150246E+03  0.00000000000E+00 0. -1.
          3    1    6    6  502    0 -0.35443672831E+01 -0.20865164090E+03 -0.17834074337E+03  0.27450590255E+03  0.00000000000E+00 0. -1.
          3    1    5    5  503    0 -0.46150892738E+03  0.30945971781E+03 -0.16972994952E+04  0.17859399160E+04  0.00000000000E+00 0. -1.
         -3    1    5    5    0  503  0.36795867535E+01  0.18693822886E+01 -0.29215864109E+02  0.29505942867E+02  0.00000000000E+00 0.  1.
         -3    1    6    6    0  502  0.58962240674E+02 -0.82288483569E+02 -0.92951294054E+02  0.13743319621E+03  0.00000000000E+00 0.  1.
<mgrwt>
<rscale>  0 0.14085183E+04</rscale>
<asrwt>0</asrwt>
<pdfrwt beam="1">  1        2 0.42866529E+00 0.14085183E+04</pdfrwt>
<pdfrwt beam="2">  1       -2 0.27385457E-01 0.14085183E+04</pdfrwt>
<totfact> 0.28019771E+01</totfact>
</mgrwt>
</event>
<event>
12    1  0.4672461E-008  0.1368133E+04  0.7818608E-02  0.8977214E-01
          2   -1    0    0  501    0  0.00000000000E+00  0.00000000000E+00  0.45301035855E+03  0.45301035855E+03  0.00000000000E+00 0. -1.
         -2   -1    0    0    0  501 -0.00000000000E+00 -0.00000000000E+00 -0.10329726440E+04  0.10329726440E+04  0.00000000000E+00 0.  1.
         23    2    1    2    0    0  0.12484406435E+02  0.37954149710E+03 -0.16257886702E+03  0.42268868476E+03  0.89589216974E+02 0.  0.
        254    2    1    2    0    0 -0.12484406435E+02 -0.37954149710E+03 -0.41738341843E+03  0.10632943178E+04  0.90120934296E+03 0.  0.
         23    2    4    4    0    0  0.13712578447E+02 -0.60917672450E+03 -0.50626001085E+03  0.79742421626E+03  0.91114574104E+02 0.  0.
         23    2    4    4    0    0 -0.26196984883E+02  0.22963522739E+03  0.88876592419E+02  0.26587010153E+03  0.96794847657E+02 0.  0.
         11    1    3    3    0    0  0.11240573076E+02  0.26092834740E+03 -0.15527909265E+03  0.30384461420E+03  0.00000000000E+00 0. -1.
        -11    1    3    3    0    0  0.12438333598E+01  0.11861314970E+03 -0.72997743699E+01  0.11884407057E+03  0.00000000000E+00 0.  1.
          2    1    6    6  502    0  0.33095822988E+02  0.10755300669E+03  0.58357047611E+02  0.12676169671E+03  0.00000000000E+00 0. -1.
          2    1    5    5  503    0  0.34333073228E+02 -0.47907838049E+03 -0.35764512014E+03  0.59883627690E+03  0.00000000000E+00 0. -1.
         -2    1    5    5    0  503 -0.20620494781E+02 -0.13009834401E+03 -0.14861489071E+03  0.19858793936E+03  0.00000000000E+00 0.  1.
         -2    1    6    6    0  502 -0.59292807871E+02  0.12208222071E+03  0.30519544808E+02  0.13910840483E+03  0.00000000000E+00 0.  1.
<mgrwt>
<rscale>  0 0.13681335E+04</rscale>
<asrwt>0</asrwt>
<pdfrwt beam="1">  1        2 0.69693903E-01 0.13681335E+04</pdfrwt>
<pdfrwt beam="2">  1       -2 0.15891887E+00 0.13681335E+04</pdfrwt>
<totfact> 0.17257238E+01</totfact>
</mgrwt>
</event>
<event>
12    1  0.4672461E-008  0.1451964E+04  0.7818608E-02  0.8917040E-01
         -1   -1    0    0    0  501 -0.00000000000E+00  0.00000000000E+00  0.77207205821E+03  0.77207205821E+03  0.00000000000E+00 0.  1.
          1   -1    0    0  501    0  0.00000000000E+00 -0.00000000000E+00 -0.68264333429E+03  0.68264333429E+03  0.00000000000E+00 0. -1.
         23    2    1    2    0    0  0.83949734302E+02  0.35290781537E+03 -0.21998262199E+03  0.43399952772E+03  0.91497278862E+02 0.  0.
        254    2    1    2    0    0 -0.83949734302E+02 -0.35290781537E+03  0.30941134590E+03  0.10207158648E+04  0.90251538026E+03 0.  0.
         23    2    4    4    0    0 -0.44235897218E+03 -0.38656057800E+03  0.24888539931E+03  0.64453227965E+03  0.91473366539E+02 0.  0.
         23    2    4    4    0    0  0.35840923788E+03  0.33652762623E+02  0.60525946594E+02  0.37618358513E+03  0.90890094522E+02 0.  0.
         11    1    3    3    0    0  0.83462177240E+02  0.32115040836E+03 -0.16518096446E+03  0.37065923817E+03  0.00000000000E+00 0.  1.
        -11    1    3    3    0    0  0.48755706171E+00  0.31757407016E+02 -0.54801657530E+02  0.63340289550E+02  0.00000000000E+00 0. -1.
          4    1    5    5  502    0 -0.42315803458E+03 -0.38483744705E+03  0.25194822053E+03  0.62501239085E+03  0.00000000000E+00 0. -1.
          1    1    6    6  503    0  0.35430280917E+03  0.18399716942E+02  0.62570743072E+02  0.36025564264E+03  0.00000000000E+00 0. -1.
         -4    1    5    5    0  502 -0.19200937603E+02 -0.17231309464E+01 -0.30628212170E+01  0.19519888804E+02  0.00000000000E+00 0.  1.
         -1    1    6    6    0  503  0.41064287128E+01  0.15253045681E+02 -0.20447964782E+01  0.15927942490E+02  0.00000000000E+00 0.  1.
<mgrwt>
<rscale>  0 0.14519640E+04</rscale>
<asrwt>0</asrwt>
<pdfrwt beam="1">  1        1 0.10502205E+00 0.14519640E+04</pdfrwt>
<pdfrwt beam="2">  1       -1 0.11878032E+00 0.14519640E+04</pdfrwt>
<totfact> 0.17451414E+01</totfact>
</mgrwt>
</event>
<event>
12    1  0.4672461E-008  0.1342144E+04  0.7818608E-02  0.8996796E-01
         -4   -1    0    0    0  501 -0.00000000000E+00  0.00000000000E+00  0.12730276323E+04  0.12730276323E+04  0.00000000000E+00 0.  1.
          4   -1    0    0  501    0  0.00000000000E+00 -0.00000000000E+00 -0.35375341526E+03  0.35375341526E+03  0.00000000000E+00 0. -1.
         23    2    1    2    0    0  0.54129656870E+02 -0.26258203749E+03 -0.37883768763E+02  0.28598468419E+03  0.92047343754E+02 0.  0.
        254    2    1    2    0    0 -0.54129656870E+02  0.26258203749E+03  0.95715798578E+03  0.13407963634E+04  0.89983561392E+03 0.  0.
         23    2    4    4    0    0 -0.77181419392E+02  0.26346718889E+03 -0.79492320428E+02  0.29989680709E+03  0.90813736704E+02 0.  0.
         23    2    4    4    0    0  0.23051762522E+02 -0.88515140098E+00  0.10366503062E+04  0.10408995563E+04  0.91081620647E+02 0.  0.
         13    1    3    3    0    0  0.29331696948E+02 -0.74924231239E+02  0.28549764058E+02  0.85376096774E+02  0.00000000000E+00 0.  1.
        -13    1    3    3    0    0  0.24797959922E+02 -0.18765780625E+03 -0.66433532821E+02  0.20060858742E+03  0.00000000000E+00 0. -1.
          2    1    5    5  502    0 -0.55195081360E+02  0.17442381136E+03 -0.96154256334E+02  0.20667802008E+03  0.00000000000E+00 0. -1.
          3    1    6    6  503    0  0.38402522754E+02 -0.29499724614E+02  0.85496038060E+03  0.85633068374E+03  0.00000000000E+00 0. -1.
         -2    1    5    5    0  502 -0.21986338032E+02  0.89043377533E+02  0.16661935906E+02  0.93218787005E+02  0.00000000000E+00 0.  1.
         -3    1    6    6    0  503 -0.15350760232E+02  0.28614573213E+02  0.18168992561E+03  0.18456887253E+03  0.00000000000E+00 0.  1.
<mgrwt>
<rscale>  0 0.13421444E+04</rscale>
<asrwt>0</asrwt>
<pdfrwt beam="1">  1        4 0.54423603E-01 0.13421444E+04</pdfrwt>
<pdfrwt beam="2">  1       -4 0.19585040E+00 0.13421444E+04</pdfrwt>
<totfact> 0.88447606E-01</totfact>
</mgrwt>
</event>
<event>
12    1  0.4672461E-008  0.1132515E+04  0.7818608E-02  0.9174067E-01
         -2   -1    0    0    0  501 -0.00000000000E+00  0.00000000000E+00  0.37372782342E+03  0.37372782342E+03  0.00000000000E+00 0.  1.
          2   -1    0    0  501    0  0.00000000000E+00 -0.00000000000E+00 -0.85797138616E+03  0.85797138616E+03  0.00000000000E+00 0. -1.
         23    2    1    2    0    0 -0.13207925422E+03 -0.41031162533E+02  0.57964112734E+02  0.17389597674E+03  0.88042527597E+02 0.  0.
        254    2    1    2    0    0  0.13207925422E+03  0.41031162533E+02 -0.54220767548E+03  0.10578032328E+04  0.89768036091E+03 0.  0.
         23    2    4    4    0    0 -0.37016769171E+03  0.89344663365E+02 -0.28097550691E+03  0.48231676076E+03  0.93143080104E+02 0.  0.
         23    2    4    4    0    0  0.50224694594E+03 -0.48313500832E+02 -0.26123216857E+03  0.57548647208E+03  0.91412496889E+02 0.  0.
         11    1    3    3    0    0 -0.37278034235E+02 -0.21904987196E+02  0.63729971572E+02  0.77012918248E+02  0.00000000000E+00 0.  1.
        -11    1    3    3    0    0 -0.94801219987E+02 -0.19126175336E+02 -0.57658588381E+01  0.96883058489E+02  0.00000000000E+00 0. -1.
          2    1    5    5  502    0 -0.12621015393E+03  0.73392207428E+02 -0.84620250694E+02  0.16874835079E+03  0.00000000000E+00 0. -1.
          4    1    6    6  503    0  0.22209234662E+03 -0.55518844538E+02 -0.15152604152E+03  0.27453140765E+03  0.00000000000E+00 0. -1.
         -2    1    5    5    0  502 -0.24395753778E+03  0.15952455936E+02 -0.19635525622E+03  0.31356840997E+03  0.00000000000E+00 0.  1.
         -4    1    6    6    0  503  0.28015459932E+03  0.72053437063E+01 -0.10970612705E+03  0.30095506444E+03  0.00000000000E+00 0.  1.
<mgrwt>
<rscale>  0 0.11325154E+04</rscale>
<asrwt>0</asrwt>
<pdfrwt beam="1">  1        2 0.13199560E+00 0.11325154E+04</pdfrwt>
<pdfrwt beam="2">  1       -2 0.57496589E-01 0.11325154E+04</pdfrwt>
<totfact> 0.87998479E+01</totfact>
</mgrwt>
</event>
<event>
12    1  0.4672461E-008  0.1558831E+04  0.7818608E-02  0.8846247E-01
         -2   -1    0    0    0  501 -0.00000000000E+00  0.00000000000E+00  0.18532399798E+04  0.18532399798E+04  0.00000000000E+00 0.  1.
          2   -1    0    0  501    0  0.00000000000E+00 -0.00000000000E+00 -0.32779803369E+03  0.32779803369E+03  0.00000000000E+00 0. -1.
         23    2    1    2    0    0  0.42148475698E+03  0.90303368254E+02  0.84679895756E+03  0.95471856457E+03  0.92816832110E+02 0.  0.
        254    2    1    2    0    0 -0.42148475698E+03 -0.90303368254E+02  0.67864298851E+03  0.12263194489E+04  0.92601241144E+03 0.  0.
         23    2    4    4    0    0 -0.27038506821E+03  0.20651162966E+03  0.78964379286E+03  0.86462528011E+03  0.91018773351E+02 0.  0.
         23    2    4    4    0    0 -0.15109968877E+03 -0.29681499791E+03 -0.11100080435E+03  0.36169416877E+03  0.87012839433E+02 0.  0.
         11    1    3    3    0    0  0.10675305593E+03  0.62822309761E+02  0.20864543689E+03  0.24264331000E+03  0.00000000000E+00 0. -1.
        -11    1    3    3    0    0  0.31473170105E+03  0.27481058493E+02  0.63815352067E+03  0.71207525457E+03  0.00000000000E+00 0.  1.
          2    1    5    5  502    0 -0.30922972102E+02  0.49716317458E+02  0.77632054902E+02  0.97235170456E+02  0.00000000000E+00 0. -1.
          4    1    6    6  503    0 -0.44730278631E+02 -0.23287648228E+02 -0.10751895009E+02  0.51562734923E+02  0.00000000000E+00 0. -1.
         -2    1    5    5    0  502 -0.23946209611E+03  0.15679531220E+03  0.71201173796E+03  0.76739010965E+03  0.00000000000E+00 0.  1.
         -4    1    6    6    0  503 -0.10636941014E+03 -0.27352734968E+03 -0.10024890934E+03  0.31013143385E+03  0.00000000000E+00 0.  1.
<mgrwt>
<rscale>  0 0.15588309E+04</rscale>
<asrwt>0</asrwt>
<pdfrwt beam="1">  1        2 0.50430468E-01 0.15588309E+04</pdfrwt>
<pdfrwt beam="2">  1       -2 0.28511384E+00 0.15588309E+04</pdfrwt>
<totfact> 0.37576975E+00</totfact>
</mgrwt>
</event>
<event>
12    1  0.4672461E-008  0.1683432E+04  0.7818608E-02  0.8770870E-01
          2   -1    0    0  501    0  0.00000000000E+00  0.00000000000E+00  0.15024751854E+04  0.15024751854E+04  0.00000000000E+00 0. -1.
         -2   -1    0    0    0  501 -0.00000000000E+00 -0.00000000000E+00 -0.47154594207E+03  0.47154594207E+03  0.00000000000E+00 0.  1.
         23    2    1    2    0    0 -0.41553445510E+03  0.24386250984E+03 -0.45952592928E+02  0.49216356537E+03  0.89305807177E+02 0.  0.
        254    2    1    2    0    0  0.41553445510E+03 -0.24386250984E+03  0.10768818362E+04  0.14818575621E+04  0.89671039805E+03 0.  0.
         23    2    4    4    0    0 -0.16407565265E+03  0.19209566989E+03  0.43108976087E+03  0.50642488187E+03  0.82499774960E+02 0.  0.
         23    2    4    4    0    0  0.57961010775E+03 -0.43595817973E+03  0.64579207535E+03  0.97543268019E+03  0.91728389901E+02 0.  0.
         11    1    3    3    0    0 -0.33095677658E+03  0.21263527342E+03 -0.68333488479E+02  0.39926884816E+03  0.00000000000E+00 0.  1.
        -11    1    3    3    0    0 -0.84577678522E+02  0.31227236422E+02  0.22380895551E+02  0.92894717204E+02  0.00000000000E+00 0. -1.
          2    1    5    5  502    0  0.89766563691E+01  0.84026666170E+01  0.11789986426E+02  0.17034933102E+02  0.00000000000E+00 0. -1.
          3    1    6    6  503    0  0.24944989159E+03 -0.19910288005E+03  0.22517256341E+03  0.39060195669E+03  0.00000000000E+00 0. -1.
         -2    1    5    5    0  502 -0.17305230902E+03  0.18369300327E+03  0.41929977444E+03  0.48938994876E+03  0.00000000000E+00 0.  1.
         -3    1    6    6    0  503  0.33016021617E+03 -0.23685529968E+03  0.42061951194E+03  0.58483072350E+03  0.00000000000E+00 0.  1.
<mgrwt>
<rscale>  0 0.16834323E+04</rscale>
<asrwt>0</asrwt>
<pdfrwt beam="1">  1        2 0.23115003E+00 0.16834323E+04</pdfrwt>
<pdfrwt beam="2">  1       -2 0.72545530E-01 0.16834323E+04</pdfrwt>
<totfact> 0.20719219E+01</totfact>
</mgrwt>
</event>
<event>
12    1  0.4672461E-008  0.2133424E+04  0.7818608E-02  0.8546661E-01
          2   -1    0    0  501    0  0.00000000000E+00  0.00000000000E+00  0.18599594804E+04  0.18599594804E+04  0.00000000000E+00 0. -1.
         -2   -1    0    0    0  501 -0.00000000000E+00 -0.00000000000E+00 -0.61177379370E+03  0.61177379370E+03  0.00000000000E+00 0.  1.
         23    2    1    2    0    0  0.23412738213E+03 -0.55905748926E+03 -0.21893168057E+03  0.65088337319E+03  0.91417598850E+02 0.  0.
        254    2    1    2    0    0 -0.23412738213E+03  0.55905748926E+03  0.14671173673E+04  0.18208499009E+04  0.89202022676E+03 0.  0.
         23    2    4    4    0    0  0.71056479918E+02  0.22777024184E+03 -0.27743450386E+02  0.25694710288E+03  0.91234906894E+02 0.  0.
         23    2    4    4    0    0 -0.30518386205E+03  0.33128724742E+03  0.14948608177E+04  0.15639027980E+04  0.91075065544E+02 0.  0.
         11    1    3    3    0    0  0.21708704195E+03 -0.41967044896E+03 -0.17189857347E+03  0.50279139717E+03  0.00000000000E+00 0.  1.
        -11    1    3    3    0    0  0.17040340184E+02 -0.13938704030E+03 -0.47033107094E+02  0.14809197602E+03  0.00000000000E+00 0. -1.
          2    1    5    5  502    0  0.65623779018E+02  0.21473956619E+03  0.14185515670E+01  0.22454748707E+03  0.00000000000E+00 0. -1.
          3    1    6    6  503    0 -0.22243792877E+03  0.19499704043E+03  0.10690146052E+04  0.11091865056E+04  0.00000000000E+00 0. -1.
         -2    1    5    5    0  502  0.54327008997E+01  0.13030675643E+02 -0.29162001953E+02  0.32399615811E+02  0.00000000000E+00 0.  1.
         -3    1    6    6    0  503 -0.82745933281E+02  0.13629020700E+03  0.42584621245E+03  0.45471629249E+03  0.00000000000E+00 0.  1.
<mgrwt>
<rscale>  0 0.21334240E+04</rscale>
<asrwt>0</asrwt>
<pdfrwt beam="1">  1        2 0.28614761E+00 0.21334240E+04</pdfrwt>
<pdfrwt beam="2">  1       -2 0.94119046E-01 0.21334240E+04</pdfrwt>
<totfact> 0.69961332E+00</totfact>
</mgrwt>
</event>
<event>
12    1  0.4672461E-008  0.1641295E+04  0.7818608E-02  0.8795573E-01
          2   -1    0    0  501    0  0.00000000000E+00  0.00000000000E+00  0.32609723368E+03  0.32609723368E+03  0.00000000000E+00 0.  1.
         -2   -1    0    0    0  501 -0.00000000000E+00 -0.00000000000E+00 -0.20652190560E+04  0.20652190560E+04  0.00000000000E+00 0. -1.
         23    2    1    2    0    0 -0.54086982717E+03  0.74780068571E+02 -0.85553256468E+03  0.10188721098E+04  0.89622420355E+02 0.  0.
        254    2    1    2    0    0  0.54086982717E+03 -0.74780068571E+02 -0.88358925764E+03  0.13724441799E+04  0.89707347645E+03 0.  0.
         23    2    4    4    0    0  0.72312440353E+03 -0.45902498120E+02 -0.90768487814E+03  0.11652925833E+04  0.94863188224E+02 0.  0.
         23    2    4    4    0    0 -0.18225457636E+03 -0.28877570451E+02  0.24095620499E+02  0.20715159657E+03  0.90997474435E+02 0.  0.
         13    1    3    3    0    0 -0.43096138661E+03  0.82666290897E+02 -0.73091231812E+03  0.85252228661E+03  0.00000000000E+00 0. -1.
        -13    1    3    3    0    0 -0.10990844056E+03 -0.78862223259E+01 -0.12462024657E+03  0.16634982315E+03  0.00000000000E+00 0.  1.
          3    1    5    5  502    0  0.60789713367E+03 -0.35061048116E+02 -0.81308981188E+03  0.10158165407E+04  0.00000000000E+00 0. -1.
          3    1    6    6  503    0 -0.11395352240E+03  0.17490509529E+01  0.54538553463E+02  0.12634444294E+03  0.00000000000E+00 0. -1.
         -3    1    5    5    0  502  0.11522726986E+03 -0.10841450004E+02 -0.94595066256E+02  0.14947604262E+03  0.00000000000E+00 0.  1.
         -3    1    6    6    0  503 -0.68301053955E+02 -0.30626621404E+02 -0.30442932964E+02  0.80807153628E+02  0.00000000000E+00 0.  1.
<mgrwt>
<rscale>  0 0.16412949E+04</rscale>
<asrwt>0</asrwt>
<pdfrwt beam="1">  1        2 0.50168805E-01 0.16412949E+04</pdfrwt>
<pdfrwt beam="2">  1       -2 0.31772601E+00 0.16412949E+04</pdfrwt>
<totfact> 0.23730987E+00</totfact>
</mgrwt>
</event>
<event>
12    1  0.4672461E-008  0.1416902E+04  0.7818608E-02  0.8941674E-01
          2   -1    0    0  501    0  0.00000000000E+00  0.00000000000E+00  0.34722112504E+03  0.34722112504E+03  0.00000000000E+00 0. -1.
         -2   -1    0    0    0  501 -0.00000000000E+00 -0.00000000000E+00 -0.14454837049E+04  0.14454837049E+04  0.00000000000E+00 0.  1.
         23    2    1    2    0    0  0.15499636830E+02 -0.39771333531E+03 -0.18315210514E+03  0.44765469201E+03  0.91836233774E+02 0.  0.
        254    2    1    2    0    0 -0.15499636830E+02  0.39771333531E+03 -0.91511047471E+03  0.13450501379E+04  0.90184064931E+03 0.  0.
         23    2    4    4    0    0 -0.17984382259E+03  0.29492703450E+02  0.11564136196E+03  0.23433619208E+03  0.91251883496E+02 0.  0.
         23    2    4    4    0    0  0.16434418576E+03  0.36822063186E+03 -0.10307518367E+04  0.11107139458E+04  0.92955234094E+02 0.  0.
         13    1    3    3    0    0  0.18926103258E+02 -0.27888772210E+03 -0.17211505571E+03  0.32826841353E+03  0.00000000000E+00 0. -1.
        -13    1    3    3    0    0 -0.34264664284E+01 -0.11882561321E+03 -0.11037049425E+02  0.11938627847E+03  0.00000000000E+00 0.  1.
          1    1    5    5  502    0 -0.43480656171E+02  0.24677149837E+02  0.78249311254E+02  0.92857330873E+02  0.00000000000E+00 0. -1.
          3    1    6    6  503    0  0.58189879378E+02  0.18650047775E+03 -0.60545030777E+03  0.63619066752E+03  0.00000000000E+00 0. -1.
         -1    1    5    5    0  502 -0.13636316642E+03  0.48155536132E+01  0.37392050706E+02  0.14147886120E+03  0.00000000000E+00 0.  1.
         -3    1    6    6    0  503  0.10615430638E+03  0.18172015411E+03 -0.42530152890E+03  0.47452327831E+03  0.00000000000E+00 0.  1.
<mgrwt>
<rscale>  0 0.14169015E+04</rscale>
<asrwt>0</asrwt>
<pdfrwt beam="1">  1        2 0.53418635E-01 0.14169015E+04</pdfrwt>
<pdfrwt beam="2">  1       -2 0.22238211E+00 0.14169015E+04</pdfrwt>
<totfact> 0.86498225E+00</totfact>
</mgrwt>
</event>
<event>
12    1  0.4672461E-008  0.1551790E+04  0.7818608E-02  0.8850725E-01
          2   -1    0    0  501    0  0.00000000000E+00  0.00000000000E+00  0.20670710028E+04  0.20670710028E+04  0.00000000000E+00 0. -1.
         -2   -1    0    0    0  501 -0.00000000000E+00 -0.00000000000E+00 -0.29123956585E+03  0.29123956585E+03  0.00000000000E+00 0.  1.
         23    2    1    2    0    0 -0.34605922851E+03 -0.19218851791E+03  0.10726719900E+03  0.42011855753E+03  0.91103975466E+02 0.  0.
        254    2    1    2    0    0  0.34605922851E+03  0.19218851791E+03  0.16685642379E+04  0.19381920111E+04  0.90320996438E+03 0.  0.
         23    2    4    4    0    0 -0.68787480188E+02  0.46682391121E+03  0.81669182608E+03  0.94761396378E+03  0.91271047182E+02 0.  0.
         23    2    4    4    0    0  0.41484670869E+03 -0.27463539330E+03  0.85187241183E+03  0.99057804731E+03  0.89643018745E+02 0.  0.
         11    1    3    3    0    0 -0.26655933936E+01  0.69200363284E+01  0.80882965208E+01  0.10973278067E+02  0.00000000000E+00 0. -1.
        -11    1    3    3    0    0 -0.34339363511E+03 -0.19910855424E+03  0.99178902484E+02  0.40914527946E+03  0.00000000000E+00 0.  1.
          1    1    5    5  502    0 -0.88278015623E+02  0.42956631301E+03  0.74763717280E+03  0.86676500129E+03  0.00000000000E+00 0. -1.
          3    1    6    6  503    0  0.41624330343E+03 -0.26024721350E+03  0.82297650921E+03  0.95826793460E+03  0.00000000000E+00 0. -1.
         -1    1    5    5    0  502  0.19490535435E+02  0.37257598195E+02  0.69054653285E+02  0.80848962486E+02  0.00000000000E+00 0.  1.
         -3    1    6    6    0  503 -0.13965947327E+01 -0.14388179799E+02  0.28895902618E+02  0.32310112703E+02  0.00000000000E+00 0.  1.
<mgrwt>
<rscale>  0 0.15517898E+04</rscale>
<asrwt>0</asrwt>
<pdfrwt beam="1">  1        2 0.31801091E+00 0.15517898E+04</pdfrwt>
<pdfrwt beam="2">  1       -2 0.44806088E-01 0.15517898E+04</pdfrwt>
<totfact> 0.27883209E+01</totfact>
</mgrwt>
</event>
<event>
12    1  0.4672461E-008  0.1072499E+04  0.7818608E-02  0.9232418E-01
          2   -1    0    0  501    0  0.00000000000E+00  0.00000000000E+00  0.37375190683E+03  0.37375190683E+03  0.00000000000E+00 0. -1.
         -2   -1    0    0    0  501 -0.00000000000E+00 -0.00000000000E+00 -0.76939746984E+03  0.76939746984E+03  0.00000000000E+00 0.  1.
         23    2    1    2    0    0  0.10320109280E+03  0.65443958423E+02 -0.21749801343E+03  0.26552324216E+03  0.90905605083E+02 0.  0.
        254    2    1    2    0    0 -0.10320109280E+03 -0.65443958423E+02 -0.17814754958E+03  0.87762613451E+03  0.85062195205E+03 0.  0.
         23    2    4    4    0    0 -0.32545462446E+02  0.44569454076E+02  0.32922243385E+03  0.34558734644E+03  0.89429076431E+02 0.  0.
         23    2    4    4    0    0 -0.70655630352E+02 -0.11001341250E+03 -0.50736998343E+03  0.53203878807E+03  0.92443511885E+02 0.  0.
         11    1    3    3    0    0  0.11103784137E+03  0.76019273449E+02 -0.21233334387E+03  0.25138373271E+03  0.00000000000E+00 0.  1.
        -11    1    3    3    0    0 -0.78367485678E+01 -0.10575315026E+02 -0.51646695565E+01  0.14139509456E+02  0.00000000000E+00 0. -1.
          1    1    5    5  502    0  0.30793569338E+02  0.18760672375E+02  0.96245649115E+02  0.10277855668E+03  0.00000000000E+00 0. -1.
          3    1    6    6  503    0 -0.45744516129E+02 -0.30454035213E+02 -0.82909163144E+02  0.99468278108E+02  0.00000000000E+00 0. -1.
         -1    1    5    5    0  502 -0.63339031784E+02  0.25808781700E+02  0.23297678473E+03  0.24280878976E+03  0.00000000000E+00 0.  1.
         -3    1    6    6    0  503 -0.24911114223E+02 -0.79559377285E+02 -0.42446082029E+03  0.43257050996E+03  0.00000000000E+00 0.  1.
<mgrwt>
<rscale>  0 0.10724995E+04</rscale>
<asrwt>0</asrwt>
<pdfrwt beam="1">  1        2 0.57500294E-01 0.10724995E+04</pdfrwt>
<pdfrwt beam="2">  1       -2 0.11836884E+00 0.10724995E+04</pdfrwt>
<totfact> 0.46878874E+01</totfact>
</mgrwt>
</event>
<event>
12    1  0.4672461E-008  0.1408892E+04  0.7818608E-02  0.8947407E-01
          1   -1    0    0  501    0  0.00000000000E+00  0.00000000000E+00  0.52728228941E+03  0.52728228941E+03  0.00000000000E+00 0. -1.
         -1   -1    0    0    0  501 -0.00000000000E+00 -0.00000000000E+00 -0.94113568855E+03  0.94113568855E+03  0.00000000000E+00 0.  1.
         23    2    1    2    0    0 -0.36819289493E+03  0.13657573866E+03 -0.37916347952E+02  0.40497135629E+03  0.91352119341E+02 0.  0.
        254    2    1    2    0    0  0.36819289493E+03 -0.13657573866E+03 -0.37593705119E+03  0.10634466217E+04  0.91398638415E+03 0.  0.
         23    2    4    4    0    0 -0.14575800147E+03 -0.10831235299E+03  0.20025099913E+03  0.28587043218E+03  0.92975698634E+02 0.  0.
         23    2    4    4    0    0  0.51395089640E+03 -0.28263385674E+02 -0.57618805033E+03  0.77757618949E+03  0.87679634146E+02 0.  0.
         13    1    3    3    0    0 -0.24329589749E+03  0.44770650331E+02 -0.10854146835E+02  0.24761889542E+03  0.00000000000E+00 0. -1.
        -13    1    3    3    0    0 -0.12489699744E+03  0.91805088330E+02 -0.27062201117E+02  0.15735246087E+03  0.00000000000E+00 0.  1.
          1    1    5    5  502    0 -0.67109020800E+01 -0.29061020617E+01 -0.10164671803E+02  0.12522068072E+02  0.00000000000E+00 0. -1.
          3    1    6    6  503    0  0.15592529877E+02  0.10182722050E+02 -0.65702800113E+01  0.19747997259E+02  0.00000000000E+00 0. -1.
         -1    1    5    5    0  502 -0.13904709939E+03 -0.10540625093E+03  0.21041567094E+03  0.27334836410E+03  0.00000000000E+00 0.  1.
         -3    1    6    6    0  503  0.49835836652E+03 -0.38446107724E+02 -0.56961777031E+03  0.75782819223E+03  0.00000000000E+00 0.  1.
<mgrwt>
<rscale>  0 0.14088920E+04</rscale>
<asrwt>0</asrwt>
<pdfrwt beam="1">  1        1 0.81120352E-01 0.14088920E+04</pdfrwt>
<pdfrwt beam="2">  1       -1 0.14479011E+00 0.14088920E+04</pdfrwt>
<totfact> 0.15385964E+01</totfact>
</mgrwt>
</event>
<event>
12    1  0.4672461E-008  0.1452894E+04  0.7818608E-02  0.8916397E-01
         -2   -1    0    0    0  501 -0.00000000000E+00  0.00000000000E+00  0.15674588581E+04  0.15674588581E+04  0.00000000000E+00 0.  1.
          2   -1    0    0  501    0  0.00000000000E+00 -0.00000000000E+00 -0.33667545123E+03  0.33667545123E+03  0.00000000000E+00 0. -1.
         23    2    1    2    0    0 -0.36987447317E+03 -0.81993934247E+02  0.62600015263E+03  0.73765581765E+03  0.93433308079E+02 0.  0.
        254    2    1    2    0    0  0.36987447317E+03  0.81993934247E+02  0.60478325426E+03  0.11664784917E+04  0.92270209485E+03 0.  0.
         23    2    4    4    0    0 -0.41146923561E+02 -0.36659695869E+03  0.18903586288E+03  0.42401897727E+03  0.89281219686E+02 0.  0.
         23    2    4    4    0    0  0.41102139673E+03  0.44859089294E+03  0.41574739138E+03  0.74245951444E+03  0.90707548476E+02 0.  0.
         13    1    3    3    0    0 -0.26342121494E+03 -0.54172194016E+02  0.51706980685E+03  0.58282634484E+03  0.00000000000E+00 0. -1.
        -13    1    3    3    0    0 -0.10645325823E+03 -0.27821740231E+02  0.10893034578E+03  0.15482947281E+03  0.00000000000E+00 0.  1.
          2    1    5    5  502    0 -0.50916465155E+02 -0.27386539221E+03  0.10253500884E+03  0.29683019980E+03  0.00000000000E+00 0. -1.
          4    1    6    6  503    0  0.41405753733E+03  0.43584664372E+03  0.40052298562E+03  0.72237428184E+03  0.00000000000E+00 0. -1.
         -2    1    5    5    0  502  0.97695415939E+01 -0.92731566476E+02  0.86500854033E+02  0.12718877746E+03  0.00000000000E+00 0.  1.
         -4    1    6    6    0  503 -0.30361405943E+01  0.12744249214E+02  0.15224405765E+02  0.20085232601E+02  0.00000000000E+00 0.  1.
<mgrwt>
<rscale>  0 0.14528936E+04</rscale>
<asrwt>0</asrwt>
<pdfrwt beam="1">  1        2 0.51796224E-01 0.14528936E+04</pdfrwt>
<pdfrwt beam="2">  1       -2 0.24114751E+00 0.14528936E+04</pdfrwt>
<totfact> 0.68219426E+00</totfact>
</mgrwt>
</event>
<event>
12    1  0.4672461E-008  0.1381820E+04  0.7818608E-02  0.8967084E-01
          2   -1    0    0  501    0  0.00000000000E+00  0.00000000000E+00  0.10821610195E+04  0.10821610195E+04  0.00000000000E+00 0. -1.
         -2   -1    0    0    0  501 -0.00000000000E+00 -0.00000000000E+00 -0.44111415498E+03  0.44111415498E+03  0.00000000000E+00 0.  1.
         23    2    1    2    0    0 -0.13987955147E+03  0.32817712612E+03  0.79851913029E+01  0.36775404519E+03  0.88953692701E+02 0.  0.
        254    2    1    2    0    0  0.13987955147E+03 -0.32817712612E+03  0.63306167324E+03  0.11555211293E+04  0.89844058408E+03 0.  0.
         23    2    4    4    0    0  0.41012207339E+03 -0.71994800549E+02  0.64362241511E+03  0.77225506882E+03  0.93513163274E+02 0.  0.
         23    2    4    4    0    0 -0.27024252192E+03 -0.25618232557E+03 -0.10560741867E+02  0.38326606049E+03  0.90116254179E+02 0.  0.
         13    1    3    3    0    0 -0.49777901583E+02  0.47966918685E+02  0.23479334173E+02  0.73006464833E+02  0.00000000000E+00 0. -1.
        -13    1    3    3    0    0 -0.90101649889E+02  0.28021020743E+03 -0.15494142870E+02  0.29474758035E+03  0.00000000000E+00 0.  1.
          4    1    5    5  502    0  0.15813389494E+03 -0.20141347107E+02  0.33098832211E+03  0.36737619950E+03  0.00000000000E+00 0.  1.
          1    1    6    6  503    0 -0.67962689429E+02 -0.52876866144E+02  0.34860334766E+02  0.92898509502E+02  0.00000000000E+00 0. -1.
         -4    1    5    5    0  502  0.25198817845E+03 -0.51853453441E+02  0.31263409300E+03  0.40487886932E+03  0.00000000000E+00 0. -1.
         -1    1    6    6    0  503 -0.20227983249E+03 -0.20330545942E+03 -0.45421076633E+02  0.29036755098E+03  0.00000000000E+00 0.  1.
<mgrwt>
<rscale>  0 0.13818199E+04</rscale>
<asrwt>0</asrwt>
<pdfrwt beam="1">  1        2 0.16648631E+00 0.13818199E+04</pdfrwt>
<pdfrwt beam="2">  1       -2 0.67863716E-01 0.13818199E+04</pdfrwt>
<totfact> 0.43323202E+01</totfact>
</mgrwt>
</event>
<event>
12    1  0.4672461E-008  0.1255715E+04  0.7818608E-02  0.9065440E-01
         -1   -1    0    0    0  501 -0.00000000000E+00  0.00000000000E+00  0.14287471632E+04  0.14287471632E+04  0.00000000000E+00 0.  1.
          1   -1    0    0  501    0  0.00000000000E+00 -0.00000000000E+00 -0.27590974007E+03  0.27590974007E+03  0.00000000000E+00 0. -1.
         23    2    1    2    0    0 -0.93291452617E+02  0.59690150515E+02 -0.95958949704E+02  0.17278154442E+03  0.91537603545E+02 0.  0.
        254    2    1    2    0    0  0.93291452617E+02 -0.59690150515E+02  0.12487963729E+04  0.15318753589E+04  0.88027468729E+03 0.  0.
         23    2    4    4    0    0 -0.12573448541E+03  0.35548994744E+03  0.72893926453E+03  0.82582000975E+03  0.91891096318E+02 0.  0.
         23    2    4    4    0    0  0.21902593803E+03 -0.41518009796E+03  0.51985710835E+03  0.70605534914E+03  0.88971162109E+02 0.  0.
         11    1    3    3    0    0  0.17672711409E+02  0.17781968678E+02 -0.16866093575E+02  0.30215695443E+02  0.00000000000E+00 0.  1.
        -11    1    3    3    0    0 -0.11096416403E+03  0.41908181837E+02 -0.79092856128E+02  0.14256584897E+03  0.00000000000E+00 0. -1.
          4    1    5    5  502    0  0.11198580907E+02  0.10652546838E+02  0.47046775041E+02  0.49520541296E+02  0.00000000000E+00 0. -1.
          1    1    6    6  503    0  0.67536157301E+02 -0.12577669837E+03  0.10097392625E+03  0.17486178592E+03  0.00000000000E+00 0. -1.
         -4    1    5    5    0  502 -0.13693306632E+03  0.34483740060E+03  0.68189248949E+03  0.77629946846E+03  0.00000000000E+00 0.  1.
         -1    1    6    6    0  503  0.15148978073E+03 -0.28940339959E+03  0.41888318210E+03  0.53119356322E+03  0.00000000000E+00 0.  1.
<mgrwt>
<rscale>  0 0.12557153E+04</rscale>
<asrwt>0</asrwt>
<pdfrwt beam="1">  1        1 0.42447653E-01 0.12557153E+04</pdfrwt>
<pdfrwt beam="2">  1       -1 0.21980725E+00 0.12557153E+04</pdfrwt>
<totfact> 0.10647458E+01</totfact>
</mgrwt>
</event>
<event>
12    1  0.4672461E-008  0.1368906E+04  0.7818608E-02  0.8976639E-01
          1   -1    0    0  501    0  0.00000000000E+00  0.00000000000E+00  0.17312496536E+04  0.17312496536E+04  0.00000000000E+00 0. -1.
         -1   -1    0    0    0  501 -0.00000000000E+00 -0.00000000000E+00 -0.27059966486E+03  0.27059966486E+03  0.00000000000E+00 0.  1.
         23    2    1    2    0    0 -0.13775343996E+03 -0.25692408606E+03  0.76759451636E+03  0.82641257447E+03  0.93650443030E+02 0.  0.
        254    2    1    2    0    0  0.13775343996E+03  0.25692408606E+03  0.69305547236E+03  0.11754367440E+04  0.90351516594E+03 0.  0.
         23    2    4    4    0    0  0.12552026652E+03  0.88035114237E+02 -0.19662948865E+03  0.26530034559E+03  0.90639941059E+02 0.  0.
         23    2    4    4    0    0  0.12233173436E+02  0.16888897182E+03  0.88968496101E+03  0.91013639838E+03  0.90198661181E+02 0.  0.
         11    1    3    3    0    0 -0.39138702908E+02 -0.16269916012E+03  0.47430746317E+03  0.50296165300E+03  0.00000000000E+00 0.  1.
        -11    1    3    3    0    0 -0.98614737051E+02 -0.94224925937E+02  0.29328705320E+03  0.32345092148E+03  0.00000000000E+00 0. -1.
          4    1    5    5  502    0  0.89369856809E+02  0.16563618572E+02 -0.14109643471E+03  0.16783780460E+03  0.00000000000E+00 0. -1.
          3    1    6    6  503    0 -0.25612874074E+02  0.92678629066E+01  0.15320105640E+03  0.15560358698E+03  0.00000000000E+00 0. -1.
         -4    1    5    5    0  502  0.36150409715E+02  0.71471495665E+02 -0.55533053939E+02  0.97462540984E+02  0.00000000000E+00 0.  1.
         -3    1    6    6    0  503  0.37846047510E+02  0.15962110892E+03  0.73648390461E+03  0.75453281140E+03  0.00000000000E+00 0.  1.
<mgrwt>
<rscale>  0 0.13689055E+04</rscale>
<asrwt>0</asrwt>
<pdfrwt beam="1">  1        1 0.26634609E+00 0.13689055E+04</pdfrwt>
<pdfrwt beam="2">  1       -1 0.41630719E-01 0.13689055E+04</pdfrwt>
<totfact> 0.25105213E+01</totfact>
</mgrwt>
</event>
<event>
12    1  0.4672461E-008  0.2104506E+04  0.7818608E-02  0.8559261E-01
          2   -1    0    0  501    0  0.00000000000E+00  0.00000000000E+00  0.96772456743E+03  0.96772456743E+03  0.00000000000E+00 0. -1.
         -2   -1    0    0    0  501 -0.00000000000E+00 -0.00000000000E+00 -0.11441652610E+04  0.11441652610E+04  0.00000000000E+00 0.  1.
         23    2    1    2    0    0 -0.48144275320E+03  0.60884723586E+03 -0.42675663632E+03  0.89013650654E+03  0.87975521714E+02 0.  0.
        254    2    1    2    0    0  0.48144275320E+03 -0.60884723586E+03  0.25031594272E+03  0.12217533219E+04  0.90969282024E+03 0.  0.
         23    2    4    4    0    0  0.41478958641E+03 -0.83170575788E+03  0.13847464292E+03  0.94402994867E+03  0.90732841652E+02 0.  0.
         23    2    4    4    0    0  0.66653166785E+02  0.22285852203E+03  0.11184129980E+03  0.27772337324E+03  0.10253404421E+03 0.  0.
         11    1    3    3    0    0 -0.47198310793E+03  0.58743470711E+03 -0.39536171070E+03  0.85097501231E+03  0.00000000000E+00 0.  1.
        -11    1    3    3    0    0 -0.94596452695E+01  0.21412528747E+02 -0.31394925620E+02  0.39161494234E+02  0.00000000000E+00 0. -1.
          4    1    5    5  502    0  0.42392628681E+02 -0.16271916601E+03  0.22797216561E+02  0.16968905396E+03  0.00000000000E+00 0. -1.
          4    1    6    6  503    0  0.45650080481E+01 -0.44473654633E+01  0.26272501072E+02  0.27034471894E+02  0.00000000000E+00 0. -1.
         -4    1    5    5    0  502  0.37239695773E+03 -0.66898659188E+03  0.11567742636E+03  0.77434089470E+03  0.00000000000E+00 0.  1.
         -4    1    6    6    0  503  0.62088158737E+02  0.22730588749E+03  0.85568798732E+02  0.25068890135E+03  0.00000000000E+00 0.  1.
<mgrwt>
<rscale>  0 0.21045064E+04</rscale>
<asrwt>0</asrwt>
<pdfrwt beam="1">  1        2 0.14888070E+00 0.21045064E+04</pdfrwt>
<pdfrwt beam="2">  1       -2 0.17602542E+00 0.21045064E+04</pdfrwt>
<totfact> 0.47044399E+00</totfact>
</mgrwt>
</event>
<event>
12    1  0.4672461E-008  0.2086008E+04  0.7818608E-02  0.8567432E-01
         -2   -1    0    0    0  501 -0.00000000000E+00  0.00000000000E+00  0.12145100641E+04  0.12145100641E+04  0.00000000000E+00 0.  1.
          2   -1    0    0  501    0  0.00000000000E+00 -0.00000000000E+00 -0.89571704434E+03  0.89571704434E+03  0.00000000000E+00 0. -1.
         23    2    1    2    0    0  0.82675471762E+02  0.37480336781E+03 -0.59973918128E+03  0.71782460387E+03  0.90952065401E+02 0.  0.
        254    2    1    2    0    0 -0.82675471762E+02 -0.37480336781E+03  0.91853220104E+03  0.13924025046E+04  0.97353506985E+03 0.  0.
         23    2    4    4    0    0 -0.32656132069E+03 -0.60842123818E+03  0.62659084066E+03  0.93690732843E+03  0.91436104590E+02 0.  0.
         23    2    4    4    0    0  0.24388584893E+03  0.23361787037E+03  0.29194136037E+03  0.45549517614E+03  0.90490225569E+02 0.  0.
         11    1    3    3    0    0  0.80783055192E+02  0.27695858056E+03 -0.37855645786E+03  0.47595897842E+03  0.00000000000E+00 0. -1.
        -11    1    3    3    0    0  0.18924165700E+01  0.97844787252E+02 -0.22118272343E+03  0.24186562545E+03  0.00000000000E+00 0.  1.
          2    1    6    6  502    0  0.13211038215E+03  0.18599008908E+03  0.18963604642E+03  0.29666023733E+03  0.00000000000E+00 0. -1.
          2    1    5    5  503    0 -0.32652909934E+03 -0.56145945626E+03  0.58784820131E+03  0.87602710091E+03  0.00000000000E+00 0.  1.
         -2    1    5    5    0  503 -0.32221352826E-01 -0.46961781919E+02  0.38742639350E+02  0.60880227521E+02  0.00000000000E+00 0. -1.
         -2    1    6    6    0  502  0.11177546677E+03  0.47627781285E+02  0.10230531396E+03  0.15883493881E+03  0.00000000000E+00 0.  1.
<mgrwt>
<rscale>  0 0.20860080E+04</rscale>
<asrwt>0</asrwt>
<pdfrwt beam="1">  1        2 0.13780262E+00 0.20860080E+04</pdfrwt>
<pdfrwt beam="2">  1       -2 0.18684770E+00 0.20860080E+04</pdfrwt>
<totfact> 0.44314407E+00</totfact>
</mgrwt>
</event>
<event>
12    1  0.4672461E-008  0.1806730E+04  0.7818608E-02  0.8702729E-01
         -2   -1    0    0    0  501 -0.00000000000E+00  0.00000000000E+00  0.24609252480E+03  0.24609252480E+03  0.00000000000E+00 0.  1.
          2   -1    0    0  501    0  0.00000000000E+00 -0.00000000000E+00 -0.33161024287E+04  0.33161024287E+04  0.00000000000E+00 0. -1.
         23    2    1    2    0    0 -0.30338465637E+02 -0.54055918531E+02 -0.24905372238E+04  0.24930432816E+04  0.92987503880E+02 0.  0.
        254    2    1    2    0    0  0.30338465637E+02  0.54055918531E+02 -0.57947268010E+03  0.10691516719E+04  0.89635609318E+03 0.  0.
         23    2    4    4    0    0 -0.36745581364E+03  0.16732669187E+03 -0.92737211239E+02  0.42391724546E+03  0.89909086617E+02 0.  0.
         23    2    4    4    0    0  0.39779427928E+03 -0.11327077334E+03 -0.48673546886E+03  0.64523442646E+03  0.91353662912E+02 0.  0.
         11    1    3    3    0    0 -0.46823481233E+02 -0.23134697778E+02 -0.62540494937E+03  0.62758186982E+03  0.00000000000E+00 0.  1.
        -11    1    3    3    0    0  0.16485015596E+02 -0.30921220753E+02 -0.18651322745E+04  0.18654614118E+04  0.00000000000E+00 0. -1.
          1    1    5    5  502    0 -0.84681600223E+02  0.60445768981E+02 -0.59351623038E+02  0.11978013008E+03  0.00000000000E+00 0. -1.
          3    1    6    6  503    0 -0.23082249089E+01  0.56913267754E+01 -0.63251568387E+01  0.88162753887E+01  0.00000000000E+00 0. -1.
         -1    1    5    5    0  502 -0.28277421342E+03  0.10688092289E+03 -0.33385588201E+02  0.30413711538E+03  0.00000000000E+00 0.  1.
         -3    1    6    6    0  503  0.40010250419E+03 -0.11896210012E+03 -0.48041031202E+03  0.63641815108E+03  0.00000000000E+00 0.  1.
<mgrwt>
<rscale>  0 0.18067297E+04</rscale>
<asrwt>0</asrwt>
<pdfrwt beam="1">  1        2 0.51016959E+00 0.18067297E+04</pdfrwt>
<pdfrwt beam="2">  1       -2 0.37860390E-01 0.18067297E+04</pdfrwt>
<totfact> 0.67929247E+00</totfact>
</mgrwt>
</event>
<event>
12    1  0.4672461E-008  0.1717047E+04  0.7818608E-02  0.8751701E-01
         -2   -1    0    0    0  501 -0.00000000000E+00  0.00000000000E+00  0.82390401338E+03  0.82390401338E+03  0.00000000000E+00 0.  1.
          2   -1    0    0  501    0  0.00000000000E+00 -0.00000000000E+00 -0.89459730181E+03  0.89459730181E+03  0.00000000000E+00 0. -1.
         23    2    1    2    0    0 -0.40416481680E+03  0.37242084726E+03 -0.30418412151E+03  0.63478645622E+03  0.91538945836E+02 0.  0.
        254    2    1    2    0    0  0.40416481680E+03 -0.37242084726E+03  0.23349083308E+03  0.10837148590E+04  0.90436355511E+03 0.  0.
         23    2    4    4    0    0  0.47080704407E+03 -0.23982572499E+03 -0.23397405938E+03  0.58479111826E+03  0.89783853912E+02 0.  0.
         23    2    4    4    0    0 -0.66642227267E+02 -0.13259512227E+03  0.46746489246E+03  0.49892374071E+03  0.91535897113E+02 0.  0.
         13    1    3    3    0    0 -0.32317461865E+03  0.31381559094E+03 -0.20841259605E+03  0.49634450682E+03  0.00000000000E+00 0. -1.
        -13    1    3    3    0    0 -0.80990198146E+02  0.58605256319E+02 -0.95771525451E+02  0.13844194939E+03  0.00000000000E+00 0.  1.
          4    1    6    6  502    0  0.14325807993E+02 -0.47829378318E+02  0.21274498716E+03  0.21852530235E+03  0.00000000000E+00 0. -1.
          4    1    5    5  503    0  0.31790010991E+03 -0.20252932290E+03 -0.18549954533E+03  0.42010556748E+03  0.00000000000E+00 0. -1.
         -4    1    5    5    0  503  0.15290693415E+03 -0.37296402097E+02 -0.48474514052E+02  0.16468555078E+03  0.00000000000E+00 0.  1.
         -4    1    6    6    0  502 -0.80968035259E+02 -0.84765743951E+02  0.25471990530E+03  0.28039843836E+03  0.00000000000E+00 0.  1.
<mgrwt>
<rscale>  0 0.17170467E+04</rscale>
<asrwt>0</asrwt>
<pdfrwt beam="1">  1        2 0.13763035E+00 0.17170467E+04</pdfrwt>
<pdfrwt beam="2">  1       -2 0.12675446E+00 0.17170467E+04</pdfrwt>
<totfact> 0.13008300E+01</totfact>
</mgrwt>
</event>
<event>
12    1  0.4672461E-008  0.1371041E+04  0.7818608E-02  0.8975051E-01
          1   -1    0    0  501    0  0.00000000000E+00  0.00000000000E+00  0.37724024978E+04  0.37724024978E+04  0.00000000000E+00 0. -1.
         -1   -1    0    0    0  501 -0.00000000000E+00 -0.00000000000E+00 -0.12457269699E+03  0.12457269699E+03  0.00000000000E+00 0.  1.
         23    2    1    2    0    0 -0.36692584282E+02  0.35619164143E+03  0.13340289547E+04  0.13844053513E+04  0.93413561900E+02 0.  0.
        254    2    1    2    0    0  0.36692584282E+02 -0.35619164143E+03  0.23138008462E+04  0.25125698435E+04  0.91165455730E+03 0.  0.
         23    2    4    4    0    0 -0.39530887016E+03 -0.19054994718E+03  0.15606922574E+04  0.16240196605E+04  0.95399947965E+02 0.  0.
         23    2    4    4    0    0  0.43200145445E+03 -0.16564169425E+03  0.75310858873E+03  0.88855018305E+03  0.91029961349E+02 0.  0.
         13    1    3    3    0    0 -0.55335051253E+02  0.28332854930E+03  0.11481823046E+04  0.11839170745E+04  0.00000000000E+00 0. -1.
        -13    1    3    3    0    0  0.18642466971E+02  0.72863092133E+02  0.18584665008E+03  0.20048827676E+03  0.00000000000E+00 0.  1.
          2    1    5    5  502    0 -0.35331016009E+03 -0.13552546395E+03  0.13632255149E+04  0.14147717219E+04  0.00000000000E+00 0. -1.
          2    1    6    6  503    0  0.53307360626E+02  0.97597446500E+01  0.87530305530E+02  0.10294892762E+03  0.00000000000E+00 0.  1.
         -2    1    5    5    0  502 -0.41998710074E+02 -0.55024483233E+02  0.19746674255E+03  0.20924793862E+03  0.00000000000E+00 0.  1.
         -2    1    6    6    0  503  0.37869409382E+03 -0.17540143890E+03  0.66557828320E+03  0.78560125543E+03  0.00000000000E+00 0. -1.
<mgrwt>
<rscale>  0 0.13710410E+04</rscale>
<asrwt>0</asrwt>
<pdfrwt beam="1">  1        1 0.58036953E+00 0.13710410E+04</pdfrwt>
<pdfrwt beam="2">  1       -1 0.19165033E-01 0.13710410E+04</pdfrwt>
<totfact> 0.32924543E+00</totfact>
</mgrwt>
</event>
<event>
12    1  0.4672461E-008  0.2762652E+04  0.7818608E-02  0.8314958E-01
         -2   -1    0    0    0  501 -0.00000000000E+00  0.00000000000E+00  0.10653885608E+04  0.10653885608E+04  0.00000000000E+00 0.  1.
          2   -1    0    0  501    0  0.00000000000E+00 -0.00000000000E+00 -0.17909535209E+04  0.17909535209E+04  0.00000000000E+00 0. -1.
         23    2    1    2    0    0  0.86841356394E+03  0.75117722932E+03 -0.78409147259E+03  0.13934207777E+04  0.91720655052E+02 0.  0.
        254    2    1    2    0    0 -0.86841356394E+03 -0.75117722932E+03  0.58526512495E+02  0.14629213039E+04  0.90460159233E+03 0.  0.
         23    2    4    4    0    0 -0.43359546634E+02 -0.52452953422E+03 -0.18920282419E+03  0.56737015133E+03  0.95393382255E+02 0.  0.
         23    2    4    4    0    0 -0.82505401731E+03 -0.22664769510E+03  0.24772933669E+03  0.89555115257E+03  0.92513423045E+02 0.  0.
         11    1    3    3    0    0  0.44707773861E+03  0.42211663474E+03 -0.37442688875E+03  0.71990030748E+03  0.00000000000E+00 0.  1.
        -11    1    3    3    0    0  0.42133582533E+03  0.32906059459E+03 -0.40966458384E+03  0.67352047026E+03  0.00000000000E+00 0. -1.
          4    1    5    5  502    0 -0.32278248115E+02 -0.51714091112E+03 -0.17271493928E+03  0.54617493307E+03  0.00000000000E+00 0. -1.
          3    1    6    6  503    0 -0.71181535445E+03 -0.20816204625E+03  0.24406092370E+03  0.78075493646E+03  0.00000000000E+00 0. -1.
         -4    1    5    5    0  502 -0.11081298518E+02 -0.73886230972E+01 -0.16487884914E+02  0.21195218259E+02  0.00000000000E+00 0.  1.
         -3    1    6    6    0  503 -0.11323866286E+03 -0.18485648845E+02  0.36684129891E+01  0.11479621611E+03  0.00000000000E+00 0.  1.
<mgrwt>
<rscale>  0 0.27626519E+04</rscale>
<asrwt>0</asrwt>
<pdfrwt beam="1">  1        2 0.27553131E+00 0.27626519E+04</pdfrwt>
<pdfrwt beam="2">  1       -2 0.16390593E+00 0.27626519E+04</pdfrwt>
<totfact> 0.17967962E+00</totfact>
</mgrwt>
</event>
<event>
12    1  0.4672461E-008  0.1220468E+04  0.7818608E-02  0.9095127E-01
         -2   -1    0    0    0  501 -0.00000000000E+00  0.00000000000E+00  0.32293116446E+03  0.32293116446E+03  0.00000000000E+00 0.  1.
          2   -1    0    0  501    0  0.00000000000E+00 -0.00000000000E+00 -0.11531424096E+04  0.11531424096E+04  0.00000000000E+00 0. -1.
         23    2    1    2    0    0  0.11143737616E+03 -0.25707936226E+02 -0.51917807490E+03  0.53938927220E+03  0.91190606517E+02 0.  0.
        254    2    1    2    0    0 -0.11143737616E+03  0.25707936226E+02 -0.31103317027E+03  0.93668430188E+03  0.87610311128E+03 0.  0.
         23    2    4    4    0    0 -0.94914157881E+01 -0.36972749028E+03  0.51418307308E+02  0.38399769261E+03  0.89564957207E+02 0.  0.
         23    2    4    4    0    0 -0.10194596037E+03  0.39543542651E+03 -0.36245147758E+03  0.55268660927E+03  0.85611092164E+02 0.  0.
         11    1    3    3    0    0  0.12476720515E+03 -0.96247469895E+01 -0.45519566137E+03  0.47208323564E+03  0.00000000000E+00 0. -1.
        -11    1    3    3    0    0 -0.13329828995E+02 -0.16083189236E+02 -0.63982413530E+02  0.67306036566E+02  0.00000000000E+00 0.  1.
          3    1    6    6  502    0 -0.39515998888E+02  0.41060989353E+02 -0.41253196925E+02  0.70351583289E+02  0.00000000000E+00 0.  1.
          3    1    5    5  503    0  0.22982956138E+02 -0.32158928220E+03  0.41066391609E+02  0.32501435540E+03  0.00000000000E+00 0. -1.
         -3    1    5    5    0  503 -0.32474371926E+02 -0.48138208081E+02  0.10351915699E+02  0.58983337206E+02  0.00000000000E+00 0.  1.
         -3    1    6    6    0  502 -0.62429961479E+02  0.35437443715E+03 -0.32119828065E+03  0.48233502598E+03  0.00000000000E+00 0. -1.
<mgrwt>
<rscale>  0 0.12204681E+04</rscale>
<asrwt>0</asrwt>
<pdfrwt beam="1">  1        2 0.17740652E+00 0.12204681E+04</pdfrwt>
<pdfrwt beam="2">  1       -2 0.49681718E-01 0.12204681E+04</pdfrwt>
<totfact> 0.76346999E+01</totfact>
</mgrwt>
</event>
<event>
12    1  0.4672461E-008  0.1169550E+04  0.7818608E-02  0.9139934E-01
          2   -1    0    0  501    0  0.00000000000E+00  0.00000000000E+00  0.28383391714E+04  0.28383391714E+04  0.00000000000E+00 0. -1.
         -2   -1    0    0    0  501 -0.00000000000E+00 -0.00000000000E+00 -0.12047963887E+03  0.12047963887E+03  0.00000000000E+00 0.  1.
         23    2    1    2    0    0  0.15605130970E+03 -0.94373886835E+02  0.88188978628E+03  0.90531296459E+03  0.92755198956E+02 0.  0.
        254    2    1    2    0    0 -0.15605130970E+03  0.94373886835E+02  0.18359697463E+04  0.20535058457E+04  0.90157800958E+03 0.  0.
         23    2    4    4    0    0  0.35314246069E+03 -0.14801120013E+02  0.51577426522E+03  0.63184825853E+03  0.90997024443E+02 0.  0.
         23    2    4    4    0    0 -0.50919377040E+03  0.10917500685E+03  0.13201954811E+04  0.14216575872E+04  0.83646333088E+02 0.  0.
         13    1    3    3    0    0  0.12579120781E+03 -0.10826662456E+03  0.79760753439E+03  0.81469188585E+03  0.00000000000E+00 0. -1.
        -13    1    3    3    0    0  0.30260101897E+02  0.13892737724E+02  0.84282251886E+02  0.90621078736E+02  0.00000000000E+00 0.  1.
          2    1    5    5  502    0  0.31861247172E+03  0.15062169496E+01  0.49415211311E+03  0.58796469853E+03  0.00000000000E+00 0. -1.
          1    1    6    6  503    0 -0.38622073868E+03  0.46679309524E+02  0.10003729397E+04  0.10733552233E+04  0.00000000000E+00 0. -1.
         -2    1    5    5    0  502  0.34529988973E+02 -0.16307336963E+02  0.21622152110E+02  0.43883560010E+02  0.00000000000E+00 0.  1.
         -1    1    6    6    0  503 -0.12297303172E+03  0.62495697324E+02  0.31982254135E+03  0.34830236385E+03  0.00000000000E+00 0.  1.
<mgrwt>
<rscale>  0 0.11695505E+04</rscale>
<asrwt>0</asrwt>
<pdfrwt beam="1">  1        2 0.43666751E+00 0.11695505E+04</pdfrwt>
<pdfrwt beam="2">  1       -2 0.18535331E-01 0.11695505E+04</pdfrwt>
<totfact> 0.53578019E+01</totfact>
</mgrwt>
</event>
<event>
12    1  0.4672461E-008  0.1867920E+04  0.7818608E-02  0.8670991E-01
          1   -1    0    0  501    0  0.00000000000E+00  0.00000000000E+00  0.48492238062E+03  0.48492238062E+03  0.00000000000E+00 0. -1.
         -1   -1    0    0    0  501 -0.00000000000E+00 -0.00000000000E+00 -0.17988061307E+04  0.17988061307E+04  0.00000000000E+00 0.  1.
         23    2    1    2    0    0 -0.44179085644E+03 -0.18972498890E+03 -0.11189678123E+04  0.12213082552E+04  0.91269693853E+02 0.  0.
        254    2    1    2    0    0  0.44179085644E+03  0.18972498890E+03 -0.19491593773E+03  0.10624202561E+04  0.92712989676E+03 0.  0.
         23    2    4    4    0    0  0.23406022142E+02 -0.33834076830E+03 -0.13948363161E+03  0.38033771453E+03  0.10088992139E+03 0.  0.
         23    2    4    4    0    0  0.41838483429E+03  0.52806575720E+03 -0.55432306127E+02  0.68208254154E+03  0.90909512227E+02 0.  0.
         11    1    3    3    0    0 -0.22346943882E+03 -0.96797420360E+02 -0.45265257591E+03  0.51400650303E+03  0.00000000000E+00 0. -1.
        -11    1    3    3    0    0 -0.21832141762E+03 -0.92927568544E+02 -0.66631523642E+03  0.70730175221E+03  0.00000000000E+00 0.  1.
          4    1    5    5  502    0  0.50044847774E+02 -0.25230353928E+03 -0.13418344496E+03  0.29011507996E+03  0.00000000000E+00 0. -1.
          4    1    6    6  503    0  0.28605974748E+03  0.38995376697E+03 -0.25409618616E+01  0.48363268705E+03  0.00000000000E+00 0. -1.
         -4    1    5    5    0  502 -0.26638825632E+02 -0.86037229022E+02 -0.53001866449E+01  0.90222634562E+02  0.00000000000E+00 0.  1.
         -4    1    6    6    0  503  0.13232508681E+03  0.13811199024E+03 -0.52891344265E+02  0.19844985449E+03  0.00000000000E+00 0.  1.
<mgrwt>
<rscale>  0 0.18679201E+04</rscale>
<asrwt>0</asrwt>
<pdfrwt beam="1">  1        1 0.74603444E-01 0.18679201E+04</pdfrwt>
<pdfrwt beam="2">  1       -1 0.27673940E+00 0.18679201E+04</pdfrwt>
<totfact> 0.20276509E+00</totfact>
</mgrwt>
</event>
<event>
12    1  0.4672461E-008  0.3986122E+04  0.7818608E-02  0.8007352E-01
         -1   -1    0    0    0  501 -0.00000000000E+00  0.00000000000E+00  0.11866770271E+04  0.11866770271E+04  0.00000000000E+00 0.  1.
          1   -1    0    0  501    0  0.00000000000E+00 -0.00000000000E+00 -0.33474076291E+04  0.33474076291E+04  0.00000000000E+00 0. -1.
         23    2    1    2    0    0 -0.17941560538E+04 -0.27585998570E+03 -0.16163772751E+04  0.24322961574E+04  0.91073733643E+02 0.  0.
        254    2    1    2    0    0  0.17941560538E+04  0.27585998570E+03 -0.54435332698E+03  0.21017884988E+04  0.90890025412E+03 0.  0.
         23    2    4    4    0    0  0.74792892595E+03 -0.28319349777E+03 -0.29560680950E+02  0.80544833525E+03  0.90977752506E+02 0.  0.
         23    2    4    4    0    0  0.10462271279E+04  0.55905348347E+03 -0.51479264603E+03  0.12963401636E+04  0.91402137615E+02 0.  0.
         11    1    3    3    0    0 -0.70805035489E+03 -0.13042890156E+03 -0.69358677618E+03  0.99970476617E+03  0.00000000000E+00 0.  1.
        -11    1    3    3    0    0 -0.10861056989E+04 -0.14543108415E+03 -0.92279049890E+03  0.14325913913E+04  0.00000000000E+00 0. -1.
          1    1    5    5  502    0  0.95676706286E+02 -0.15581913235E+02  0.18920311753E+02  0.98766423154E+02  0.00000000000E+00 0. -1.
          3    1    6    6  503    0  0.14511407006E+03  0.97971014999E+02 -0.10605310626E+03  0.20470387016E+03  0.00000000000E+00 0. -1.
         -1    1    5    5    0  502  0.65225221966E+03 -0.26761158453E+03 -0.48480992703E+02  0.70668191209E+03  0.00000000000E+00 0.  1.
         -3    1    6    6    0  503  0.90111305782E+03  0.46108246847E+03 -0.40873953977E+03  0.10916362934E+04  0.00000000000E+00 0.  1.
<mgrwt>
<rscale>  0 0.39861218E+04</rscale>
<asrwt>0</asrwt>
<pdfrwt beam="1">  1        1 0.51498579E+00 0.39861218E+04</pdfrwt>
<pdfrwt beam="2">  1       -1 0.18256570E+00 0.39861218E+04</pdfrwt>
<totfact> 0.51283299E-02</totfact>
</mgrwt>
</event>
<event>
12    1  0.4672461E-008  0.2811884E+04  0.7818608E-02  0.8299588E-01
         -2   -1    0    0    0  501 -0.00000000000E+00  0.00000000000E+00  0.13528367584E+04  0.13528367584E+04  0.00000000000E+00 0.  1.
          2   -1    0    0  501    0  0.00000000000E+00 -0.00000000000E+00 -0.14611318772E+04  0.14611318772E+04  0.00000000000E+00 0. -1.
         23    2    1    2    0    0 -0.83895275961E+03 -0.96660290189E+02  0.87499003998E+03  0.12180626844E+04  0.69886968922E+02 0.  0.
        254    2    1    2    0    0  0.83895275961E+03  0.96660290189E+02 -0.98328515887E+03  0.15959059512E+04  0.93106452892E+03 0.  0.
         23    2    4    4    0    0 -0.16290785649E+03  0.21083238416E+02 -0.36806006456E+03  0.41422149155E+03  0.95539312790E+02 0.  0.
         23    2    4    4    0    0  0.10018606161E+04  0.75577051773E+02 -0.61522509430E+03  0.11816844597E+04  0.91867626387E+02 0.  0.
         11    1    3    3    0    0 -0.48874726172E+03 -0.28804281016E+02  0.47571566521E+03  0.68264849416E+03  0.00000000000E+00 0.  1.
        -11    1    3    3    0    0 -0.35020549788E+03 -0.67856009173E+02  0.39927437477E+03  0.53541419021E+03  0.00000000000E+00 0. -1.
          4    1    5    5  502    0 -0.19731597196E+00 -0.21396771049E+02 -0.51468731396E+02  0.55739492790E+02  0.00000000000E+00 0.  1.
          1    1    6    6  503    0  0.86716165946E+03  0.50182143465E+02 -0.56240107417E+03  0.10347862385E+04  0.00000000000E+00 0. -1.
         -4    1    5    5    0  502 -0.16271054052E+03  0.42480009465E+02 -0.31659133317E+03  0.35848199876E+03  0.00000000000E+00 0. -1.
         -1    1    6    6    0  503  0.13469895663E+03  0.25394908307E+02 -0.52824020137E+02  0.14689822119E+03  0.00000000000E+00 0.  1.
<mgrwt>
<rscale>  0 0.28118840E+04</rscale>
<asrwt>0</asrwt>
<pdfrwt beam="1">  1        2 0.22478952E+00 0.28118840E+04</pdfrwt>
<pdfrwt beam="2">  1       -2 0.20812873E+00 0.28118840E+04</pdfrwt>
<totfact> 0.13668831E+00</totfact>
</mgrwt>
</event>
<event>
12    1  0.4672461E-008  0.2205158E+04  0.7818608E-02  0.8516284E-01
         -1   -1    0    0    0  501 -0.00000000000E+00  0.00000000000E+00  0.48650707014E+03  0.48650707014E+03  0.00000000000E+00 0.  1.
          1   -1    0    0  501    0  0.00000000000E+00 -0.00000000000E+00 -0.24987921512E+04  0.24987921512E+04  0.00000000000E+00 0. -1.
         23    2    1    2    0    0  0.62510278909E+03  0.64446859381E+03 -0.10877561464E+04  0.14132426066E+04  0.89151364734E+02 0.  0.
        254    2    1    2    0    0 -0.62510278909E+03 -0.64446859381E+03 -0.92452893463E+03  0.15720566147E+04  0.90028605645E+03 0.  0.
         23    2    4    4    0    0  0.24543057390E+02 -0.18070634311E+03 -0.71268250695E+03  0.74133595378E+03  0.91681495121E+02 0.  0.
         23    2    4    4    0    0 -0.64964584648E+03 -0.46376225071E+03 -0.21184642768E+03  0.83072066089E+03  0.90015312486E+02 0.  0.
         11    1    3    3    0    0  0.31049892912E+03  0.29218914625E+03 -0.57901702506E+03  0.71905827127E+03  0.00000000000E+00 0. -1.
        -11    1    3    3    0    0  0.31460385997E+03  0.35227944756E+03 -0.50873912132E+03  0.69418433535E+03  0.00000000000E+00 0.  1.
          4    1    5    5  502    0  0.40967812176E+02 -0.95729381745E+02 -0.51678351670E+03  0.52716949769E+03  0.00000000000E+00 0. -1.
          1    1    6    6  503    0 -0.61865148617E+03 -0.44532696621E+03 -0.18146390571E+03  0.78356551561E+03  0.00000000000E+00 0. -1.
         -4    1    5    5    0  502 -0.16424754785E+02 -0.84976961360E+02 -0.19589899025E+03  0.21416645609E+03  0.00000000000E+00 0.  1.
         -1    1    6    6    0  503 -0.30994360310E+02 -0.18435284500E+02 -0.30382521971E+02  0.47155145286E+02  0.00000000000E+00 0.  1.
<mgrwt>
<rscale>  0 0.22051576E+04</rscale>
<asrwt>0</asrwt>
<pdfrwt beam="1">  1        1 0.38442956E+00 0.22051576E+04</pdfrwt>
<pdfrwt beam="2">  1       -1 0.74847242E-01 0.22051576E+04</pdfrwt>
<totfact> 0.22211067E+00</totfact>
</mgrwt>
</event>
<event>
12    1  0.4672461E-008  0.1552431E+04  0.7818608E-02  0.8850317E-01
          2   -1    0    0  501    0  0.00000000000E+00  0.00000000000E+00  0.20296749569E+04  0.20296749569E+04  0.00000000000E+00 0. -1.
         -2   -1    0    0    0  501 -0.00000000000E+00 -0.00000000000E+00 -0.29685063722E+03  0.29685063722E+03  0.00000000000E+00 0.  1.
         23    2    1    2    0    0  0.33299838156E+03 -0.35897511350E+02  0.51197377118E+01  0.34678801651E+03  0.89772842448E+02 0.  0.
        254    2    1    2    0    0 -0.33299838156E+03  0.35897511350E+02  0.17277045820E+04  0.19797375776E+04  0.90676413703E+03 0.  0.
         23    2    4    4    0    0 -0.56838229886E+03  0.12240797223E+03  0.15497651512E+04  0.16581396693E+04  0.98045855293E+02 0.  0.
         23    2    4    4    0    0  0.23538391730E+03 -0.86510460883E+02  0.17793943079E+03  0.32159790832E+03  0.94197267693E+02 0.  0.
         11    1    3    3    0    0  0.19044667402E+03  0.30281241290E+01 -0.35018235892E+02  0.19366306314E+03  0.00000000000E+00 0.  1.
        -11    1    3    3    0    0  0.14255170754E+03 -0.38925635479E+02  0.40137973604E+02  0.15312495337E+03  0.00000000000E+00 0. -1.
          2    1    5    5  502    0 -0.67708578598E+02  0.34807269023E+02  0.28680160865E+03  0.29673415765E+03  0.00000000000E+00 0. -1.
          3    1    6    6  503    0  0.17484675701E+03 -0.98647054882E+02  0.16164134380E+03  0.25774125378E+03  0.00000000000E+00 0. -1.
         -2    1    5    5    0  502 -0.50067372026E+03  0.87600703211E+02  0.12629635426E+04  0.13614055117E+04  0.00000000000E+00 0.  1.
         -3    1    6    6    0  503  0.60537160288E+02  0.12136593999E+02  0.16298086990E+02  0.63856654541E+02  0.00000000000E+00 0.  1.
<mgrwt>
<rscale>  0 0.15524307E+04</rscale>
<asrwt>0</asrwt>
<pdfrwt beam="1">  1        2 0.31225768E+00 0.15524307E+04</pdfrwt>
<pdfrwt beam="2">  1       -2 0.45669330E-01 0.15524307E+04</pdfrwt>
<totfact> 0.28152714E+01</totfact>
</mgrwt>
</event>
<event>
12    1  0.1057824E-007  0.2241602E+04  0.7818608E-02  0.8501309E-01
          1   -1    0    0  501    0  0.00000000000E+00  0.00000000000E+00  0.14709315948E+04  0.14709315948E+04  0.00000000000E+00 0. -1.
         -1   -1    0    0    0  501 -0.00000000000E+00 -0.00000000000E+00 -0.85401294591E+03  0.85401294591E+03  0.00000000000E+00 0.  1.
         23    2    1    2    0    0  0.28793056703E+03 -0.74000302433E+03  0.77814823726E+03  0.11154982380E+04  0.91176490715E+02 0.  0.
        254    2    1    2    0    0 -0.28793056703E+03  0.74000302433E+03 -0.16122958837E+03  0.12094463027E+04  0.89791808728E+03 0.  0.
         23    2    4    4    0    0  0.79992982450E+02  0.75036070730E+03 -0.28295557814E+03  0.81108381477E+03  0.91394896360E+02 0.  0.
         23    2    4    4    0    0 -0.36792354948E+03 -0.10357682971E+02  0.12172598977E+03  0.39836248791E+03  0.91653888780E+02 0.  0.
         13    1    3    3    0    0  0.16058090690E+02 -0.12595526615E+02  0.35750170973E+02  0.41165328760E+02  0.00000000000E+00 0. -1.
        -13    1    3    3    0    0  0.27187247634E+03 -0.72740749772E+03  0.74239806629E+03  0.10743329093E+04  0.00000000000E+00 0.  1.
          1    1    5    5  502    0  0.11093649069E+02  0.73851043410E+02 -0.32927847852E+00  0.74680346054E+02  0.00000000000E+00 0. -1.
          3    1    6    6  503    0 -0.69922871368E+02 -0.15816932940E+02 -0.10215126110E+02  0.72413618259E+02  0.00000000000E+00 0. -1.
         -1    1    5    5    0  502  0.68899333381E+02  0.67650966389E+03 -0.28262629967E+03  0.73640346872E+03  0.00000000000E+00 0.  1.
         -3    1    6    6    0  503 -0.29800067811E+03  0.54592499687E+01  0.13194111588E+03  0.32594886965E+03  0.00000000000E+00 0.  1.
<mgrwt>
<rscale>  0 0.22416018E+04</rscale>
<asrwt>0</asrwt>
<pdfrwt beam="1">  1        1 0.22629717E+00 0.22416018E+04</pdfrwt>
<pdfrwt beam="2">  1       -1 0.13138661E+00 0.22416018E+04</pdfrwt>
<totfact> 0.30736431E+00</totfact>
</mgrwt>
</event>
<event>
12    1  0.4672461E-008  0.2312733E+04  0.7818608E-02  0.8472918E-01
         -1   -1    0    0    0  501 -0.00000000000E+00  0.00000000000E+00  0.70859366972E+03  0.70859366972E+03  0.00000000000E+00 0.  1.
          1   -1    0    0  501    0  0.00000000000E+00 -0.00000000000E+00 -0.18870944273E+04  0.18870944273E+04  0.00000000000E+00 0. -1.
         23    2    1    2    0    0 -0.26630627377E+03  0.66640290430E+03  0.25547655944E+03  0.76988745971E+03  0.11156417831E+03 0.  0.
        254    2    1    2    0    0  0.26630627377E+03 -0.66640290430E+03 -0.14339773170E+04  0.18258006373E+04  0.87306652618E+03 0.  0.
         23    2    4    4    0    0  0.56976718960E+03 -0.32905394308E+03 -0.91019776985E+03  0.11266820645E+04  0.89673554697E+02 0.  0.
         23    2    4    4    0    0 -0.30346091583E+03 -0.33734896122E+03 -0.52377954717E+03  0.69911857281E+03  0.92352129039E+02 0.  0.
         13    1    3    3    0    0 -0.15041872001E+03  0.48750922281E+03  0.21127332868E+03  0.55220236605E+03  0.00000000000E+00 0.  1.
        -13    1    3    3    0    0 -0.11588755376E+03  0.17889368149E+03  0.44203230763E+02  0.21768509366E+03  0.00000000000E+00 0. -1.
          2    1    5    5  502    0  0.23167119858E+03 -0.15054367850E+03 -0.31206818826E+03  0.41679910930E+03  0.00000000000E+00 0.  1.
          3    1    6    6  503    0 -0.12787760654E+03 -0.14716822682E+03 -0.15762173495E+03  0.25071055137E+03  0.00000000000E+00 0. -1.
         -2    1    5    5    0  502  0.33809599102E+03 -0.17851026458E+03 -0.59812958159E+03  0.70988295520E+03  0.00000000000E+00 0. -1.
         -3    1    6    6    0  503 -0.17558330929E+03 -0.19018073440E+03 -0.36615781223E+03  0.44840802144E+03  0.00000000000E+00 0.  1.
<mgrwt>
<rscale>  0 0.23127327E+04</rscale>
<asrwt>0</asrwt>
<pdfrwt beam="1">  1        1 0.29032222E+00 0.23127327E+04</pdfrwt>
<pdfrwt beam="2">  1       -1 0.10901441E+00 0.23127327E+04</pdfrwt>
<totfact> 0.25020250E+00</totfact>
</mgrwt>
</event>
<event>
12    1  0.4829928E-008  0.2737203E+04  0.7818608E-02  0.8323034E-01
         -2   -1    0    0    0  501 -0.00000000000E+00  0.00000000000E+00  0.79840105977E+03  0.79840105977E+03  0.00000000000E+00 0.  1.
          2   -1    0    0  501    0  0.00000000000E+00 -0.00000000000E+00 -0.23460262866E+04  0.23460262866E+04  0.00000000000E+00 0. -1.
         23    2    1    2    0    0 -0.36930198204E+03 -0.36522982892E+03 -0.19606115081E+04  0.20301037440E+04  0.86873148819E+02 0.  0.
        254    2    1    2    0    0  0.36930198204E+03  0.36522982892E+03  0.41298628121E+03  0.11143236024E+04  0.89519977686E+03 0.  0.
         23    2    4    4    0    0  0.32961749831E+03  0.47939647739E+03 -0.83853478054E+02  0.59475533918E+03  0.90740453887E+02 0.  0.
         23    2    4    4    0    0  0.39684483732E+02 -0.11416664847E+03  0.49683975926E+03  0.51956826321E+03  0.92155042620E+02 0.  0.
         11    1    3    3    0    0 -0.31661051731E+01  0.49207717977E+01 -0.26862861660E+02  0.27492754566E+02  0.00000000000E+00 0.  1.
        -11    1    3    3    0    0 -0.36613587687E+03 -0.37015060071E+03 -0.19337486464E+04  0.20026109895E+04  0.00000000000E+00 0. -1.
          1    1    5    5  502    0  0.23742425936E+03  0.38642034817E+03 -0.34553839635E+02  0.45484605334E+03  0.00000000000E+00 0. -1.
          3    1    6    6  503    0  0.17926410000E+02 -0.97823289312E+02  0.47314934543E+03  0.48348842302E+03  0.00000000000E+00 0. -1.
         -1    1    5    5    0  502  0.92193238955E+02  0.92976129220E+02 -0.49299638419E+02  0.13990928583E+03  0.00000000000E+00 0.  1.
         -3    1    6    6    0  503  0.21758073732E+02 -0.16343359157E+02  0.23690413830E+02  0.36079840195E+02  0.00000000000E+00 0.  1.
<mgrwt>
<rscale>  0 0.27372029E+04</rscale>
<asrwt>0</asrwt>
<pdfrwt beam="1">  1        2 0.36092711E+00 0.27372029E+04</pdfrwt>
<pdfrwt beam="2">  1       -2 0.12283094E+00 0.27372029E+04</pdfrwt>
<totfact> 0.18700222E+00</totfact>
</mgrwt>
</event>
<event>
12    1  0.4672461E-008  0.1913472E+04  0.7818608E-02  0.8648180E-01
          4   -1    0    0  501    0  0.00000000000E+00  0.00000000000E+00  0.40138798513E+03  0.40138798513E+03  0.00000000000E+00 0. -1.
         -4   -1    0    0    0  501 -0.00000000000E+00 -0.00000000000E+00 -0.22804453398E+04  0.22804453398E+04  0.00000000000E+00 0.  1.
         23    2    1    2    0    0  0.50545701424E+03  0.44638576703E+03 -0.11702560450E+04  0.13536668877E+04  0.90375802477E+02 0.  0.
        254    2    1    2    0    0 -0.50545701424E+03 -0.44638576703E+03 -0.70880130971E+03  0.13281664373E+04  0.89826485084E+03 0.  0.
         23    2    4    4    0    0 -0.98993877851E+02 -0.56711380962E+03 -0.67787491738E+03  0.89400518923E+03  0.91175730541E+02 0.  0.
         23    2    4    4    0    0 -0.40646313639E+03  0.12072804259E+03 -0.30926392331E+02  0.43416124806E+03  0.88045477287E+02 0.  0.
         13    1    3    3    0    0  0.37907965048E+03  0.34514452587E+03 -0.95965969361E+03  0.10880132594E+04  0.00000000000E+00 0.  1.
        -13    1    3    3    0    0  0.12637736375E+03  0.10124124116E+03 -0.21059635138E+03  0.26565362824E+03  0.00000000000E+00 0. -1.
          4    1    5    5  502    0 -0.52509348463E+02 -0.39098256577E+03 -0.52169565287E+03  0.65405730073E+03  0.00000000000E+00 0. -1.
          4    1    6    6  503    0 -0.38018664794E+03  0.10616524126E+03 -0.51025357562E+02  0.39801574446E+03  0.00000000000E+00 0. -1.
         -4    1    5    5    0  502 -0.46484529388E+02 -0.17613124385E+03 -0.15617926451E+03  0.23994788850E+03  0.00000000000E+00 0.  1.
         -4    1    6    6    0  503 -0.26276488449E+02  0.14562801325E+02  0.20098965231E+02  0.36145503607E+02  0.00000000000E+00 0.  1.
<mgrwt>
<rscale>  0 0.19134716E+04</rscale>
<asrwt>0</asrwt>
<pdfrwt beam="1">  1        4 0.61751998E-01 0.19134716E+04</pdfrwt>
<pdfrwt beam="2">  1       -4 0.35083774E+00 0.19134716E+04</pdfrwt>
<totfact> 0.67817142E-02</totfact>
</mgrwt>
</event>
<event>
12    1  0.4672461E-008  0.1458162E+04  0.7818608E-02  0.8912761E-01
          1   -1    0    0  501    0  0.00000000000E+00  0.00000000000E+00  0.66776865062E+03  0.66776865062E+03  0.00000000000E+00 0. -1.
         -1   -1    0    0    0  501 -0.00000000000E+00 -0.00000000000E+00 -0.79602284060E+03  0.79602284060E+03  0.00000000000E+00 0.  1.
         23    2    1    2    0    0  0.84597676592E+02 -0.38718598607E+03  0.17762612719E+03  0.44323345467E+03  0.88516097876E+02 0.  0.
        254    2    1    2    0    0 -0.84597676592E+02  0.38718598607E+03 -0.30588031717E+03  0.10205580365E+04  0.88932906330E+03 0.  0.
         23    2    4    4    0    0 -0.35335674188E+03  0.49061667197E+03 -0.36676963658E+03  0.71305578474E+03  0.91448783417E+02 0.  0.
         23    2    4    4    0    0  0.26875906529E+03 -0.10343068589E+03  0.60889319410E+02  0.30750225180E+03  0.88998784735E+02 0.  0.
         11    1    3    3    0    0  0.48807773201E+01 -0.19771536376E+03  0.61371926300E+02  0.20707897139E+03  0.00000000000E+00 0.  1.
        -11    1    3    3    0    0  0.79716899271E+02 -0.18947062231E+03  0.11625420089E+03  0.23615448328E+03  0.00000000000E+00 0. -1.
          3    1    6    6  502    0  0.11124907163E+03 -0.10557917324E+02 -0.81624336132E+01  0.11204664600E+03  0.00000000000E+00 0. -1.
          3    1    5    5  503    0 -0.16917362455E+03  0.15900362440E+03 -0.13940062432E+03  0.27080325308E+03  0.00000000000E+00 0. -1.
         -3    1    5    5    0  503 -0.18418311733E+03  0.33161304757E+03 -0.22736901226E+03  0.44225253166E+03  0.00000000000E+00 0.  1.
         -3    1    6    6    0  502  0.15750999366E+03 -0.92872768570E+02  0.69051753023E+02  0.19545560581E+03  0.00000000000E+00 0.  1.
<mgrwt>
<rscale>  0 0.14581620E+04</rscale>
<asrwt>0</asrwt>
<pdfrwt beam="1">  1        1 0.10273364E+00 0.14581620E+04</pdfrwt>
<pdfrwt beam="2">  1       -1 0.12246505E+00 0.14581620E+04</pdfrwt>
<totfact> 0.16725362E+01</totfact>
</mgrwt>
</event>
<event>
12    1  0.4672461E-008  0.1431605E+04  0.7818608E-02  0.8931254E-01
         -1   -1    0    0    0  501 -0.00000000000E+00  0.00000000000E+00  0.30822617162E+03  0.30822617162E+03  0.00000000000E+00 0.  1.
          1   -1    0    0  501    0  0.00000000000E+00 -0.00000000000E+00 -0.16623289232E+04  0.16623289232E+04  0.00000000000E+00 0. -1.
         23    2    1    2    0    0 -0.42481735899E+02 -0.32049845703E+03 -0.80805544776E+03  0.87508805085E+03  0.91112739134E+02 0.  0.
        254    2    1    2    0    0  0.42481735899E+02  0.32049845703E+03 -0.54604730387E+03  0.10954670440E+04  0.89294816625E+03 0.  0.
         23    2    4    4    0    0  0.24358502204E+03 -0.23516595692E+03 -0.17575871185E+03  0.39211292662E+03  0.90690309165E+02 0.  0.
         23    2    4    4    0    0 -0.20110328614E+03  0.55566441395E+03 -0.37028859202E+03  0.70335411739E+03  0.91585481617E+02 0.  0.
         11    1    3    3    0    0 -0.60273260967E+02 -0.30871227019E+03 -0.75853426261E+03  0.82116402705E+03  0.00000000000E+00 0. -1.
        -11    1    3    3    0    0  0.17791525068E+02 -0.11786186840E+02 -0.49521185147E+02  0.53924023800E+02  0.00000000000E+00 0.  1.
          4    1    5    5  502    0  0.22064484854E+03 -0.24102630484E+03 -0.16582542954E+03  0.36643676384E+03  0.00000000000E+00 0. -1.
          3    1    6    6  503    0 -0.10609356029E+03  0.40566562536E+03 -0.27957065342E+03  0.50396447632E+03  0.00000000000E+00 0. -1.
         -4    1    5    5    0  502  0.22940173498E+02  0.58603479153E+01 -0.99332823136E+01  0.25676162785E+02  0.00000000000E+00 0.  1.
         -3    1    6    6    0  503 -0.95009725847E+02  0.14999878859E+03 -0.90717938599E+02  0.19938964107E+03  0.00000000000E+00 0.  1.
<mgrwt>
<rscale>  0 0.14316051E+04</rscale>
<asrwt>0</asrwt>
<pdfrwt beam="1">  1        1 0.25574291E+00 0.14316051E+04</pdfrwt>
<pdfrwt beam="2">  1       -1 0.47419410E-01 0.14316051E+04</pdfrwt>
<totfact> 0.21833131E+01</totfact>
</mgrwt>
</event>
<event>
12    1  0.4672461E-008  0.2569859E+04  0.7818608E-02  0.8378512E-01
          2   -1    0    0  501    0  0.00000000000E+00  0.00000000000E+00  0.76107489781E+03  0.76107489781E+03  0.00000000000E+00 0. -1.
         -2   -1    0    0    0  501 -0.00000000000E+00 -0.00000000000E+00 -0.21693586874E+04  0.21693586874E+04  0.00000000000E+00 0.  1.
         23    2    1    2    0    0  0.19854700652E+03 -0.27819290939E+03 -0.18149308276E+04  0.18488191950E+04  0.85710548718E+02 0.  0.
        254    2    1    2    0    0 -0.19854700652E+03  0.27819290939E+03  0.40664703804E+03  0.10816143902E+04  0.94218664121E+03 0.  0.
         23    2    4    4    0    0 -0.16793133565E+03 -0.19083334453E+02 -0.27253887876E+03  0.33380729398E+03  0.92653990380E+02 0.  0.
         23    2    4    4    0    0 -0.30615670871E+02  0.29727624384E+03  0.67918591680E+03  0.74780709620E+03  0.92797947637E+02 0.  0.
         13    1    3    3    0    0  0.87560993968E+02 -0.19467896994E+03 -0.10988204990E+04  0.11193629072E+04  0.00000000000E+00 0.  1.
        -13    1    3    3    0    0  0.11098601255E+03 -0.83513939453E+02 -0.71611032863E+03  0.72945628782E+03  0.00000000000E+00 0. -1.
          2    1    5    5  502    0 -0.12624155557E+03  0.22194489681E+02 -0.14569494563E+03  0.19405293841E+03  0.00000000000E+00 0. -1.
          1    1    6    6  503    0 -0.42634057114E+02  0.27774449615E+03  0.56126341700E+03  0.62767530717E+03  0.00000000000E+00 0. -1.
         -2    1    5    5    0  502 -0.41689780079E+02 -0.41277824134E+02 -0.12684393313E+03  0.13975435557E+03  0.00000000000E+00 0.  1.
         -1    1    6    6    0  503  0.12018386242E+02  0.19531747694E+02  0.11792249980E+03  0.12013178903E+03  0.00000000000E+00 0.  1.
<mgrwt>
<rscale>  0 0.25698595E+04</rscale>
<asrwt>0</asrwt>
<pdfrwt beam="1">  1        2 0.11708845E+00 0.25698595E+04</pdfrwt>
<pdfrwt beam="2">  1       -2 0.33374749E+00 0.25698595E+04</pdfrwt>
<totfact> 0.64200414E-01</totfact>
</mgrwt>
</event>
<event>
12    1  0.4672461E-008  0.1338419E+04  0.7818608E-02  0.8999641E-01
          1   -1    0    0  501    0  0.00000000000E+00  0.00000000000E+00  0.18175783399E+04  0.18175783399E+04  0.00000000000E+00 0. -1.
         -1   -1    0    0    0  501 -0.00000000000E+00 -0.00000000000E+00 -0.24639448148E+03  0.24639448148E+03  0.00000000000E+00 0.  1.
         23    2    1    2    0    0  0.16512932988E+03  0.28794827190E+03  0.64559262390E+03  0.73179488662E+03  0.92477117045E+02 0.  0.
        254    2    1    2    0    0 -0.16512932988E+03 -0.28794827190E+03  0.92559123448E+03  0.13321779347E+04  0.89877528534E+03 0.  0.
         23    2    4    4    0    0  0.17863559742E+03 -0.18915727164E+03 -0.57807953289E+02  0.28190204299E+03  0.91846895959E+02 0.  0.
         23    2    4    4    0    0 -0.34376492730E+03 -0.98791000253E+02  0.98339918777E+03  0.10502758917E+04  0.89841523089E+02 0.  0.
         11    1    3    3    0    0  0.18269575098E+02  0.76456391185E+01  0.10940339328E+02  0.22625741897E+02  0.00000000000E+00 0.  1.
        -11    1    3    3    0    0  0.14685975478E+03  0.28030263278E+03  0.63465228457E+03  0.70916914472E+03  0.00000000000E+00 0. -1.
          1    1    5    5  502    0  0.17464235987E+03 -0.17680880271E+03 -0.75706274442E+02  0.25979366152E+03  0.00000000000E+00 0. -1.
          3    1    6    6  503    0 -0.29610412451E+03 -0.11608796755E+03  0.84281271757E+03  0.90082592417E+03  0.00000000000E+00 0. -1.
         -1    1    5    5    0  502  0.39932375529E+01 -0.12348468931E+02  0.17898321153E+02  0.22108381469E+02  0.00000000000E+00 0.  1.
         -3    1    6    6    0  503 -0.47660802784E+02  0.17296967294E+02  0.14058647020E+03  0.14944996756E+03  0.00000000000E+00 0.  1.
<mgrwt>
<rscale>  0 0.13384189E+04</rscale>
<asrwt>0</asrwt>
<pdfrwt beam="1">  1        1 0.27962743E+00 0.13384189E+04</pdfrwt>
<pdfrwt beam="2">  1       -1 0.37906845E-01 0.13384189E+04</pdfrwt>
<totfact> 0.26100208E+01</totfact>
</mgrwt>
</event>
<event>
12    1  0.4672461E-008  0.1485798E+04  0.7818608E-02  0.8893952E-01
         -1   -1    0    0    0  501 -0.00000000000E+00  0.00000000000E+00  0.13061842165E+04  0.13061842165E+04  0.00000000000E+00 0.  1.
          1   -1    0    0  501    0  0.00000000000E+00 -0.00000000000E+00 -0.42252778834E+03  0.42252778834E+03  0.00000000000E+00 0. -1.
         23    2    1    2    0    0 -0.11770389544E+03 -0.19823109999E+03  0.74733314949E+03  0.78750291853E+03  0.92218405798E+02 0.  0.
        254    2    1    2    0    0  0.11770389544E+03  0.19823109999E+03  0.13632327869E+03  0.94120908633E+03  0.90229747416E+03 0.  0.
         23    2    4    4    0    0 -0.29260607428E+03  0.19923145373E+02  0.32510196810E+03  0.44743012582E+03  0.92125899713E+02 0.  0.
         23    2    4    4    0    0  0.41030996973E+03  0.17830795462E+03 -0.18877868941E+03  0.49377896051E+03  0.89622934194E+02 0.  0.
         11    1    3    3    0    0 -0.30246127060E+01  0.19576665747E+01 -0.15244281897E+01  0.39121121846E+01  0.00000000000E+00 0. -1.
        -11    1    3    3    0    0 -0.11467928274E+03 -0.20018876657E+03  0.74885757768E+03  0.78359080635E+03  0.00000000000E+00 0.  1.
          2    1    5    5  502    0 -0.58620332230E+02  0.20959278234E+02  0.25479395715E+02  0.67266888592E+02  0.00000000000E+00 0.  1.
          4    1    6    6  503    0  0.39623091843E+03  0.16668161849E+03 -0.15797709402E+03  0.45797212240E+03  0.00000000000E+00 0. -1.
         -2    1    5    5    0  502 -0.23398574205E+03 -0.10361328611E+01  0.29962257238E+03  0.38016323722E+03  0.00000000000E+00 0. -1.
         -4    1    6    6    0  503  0.14079051300E+02  0.11626336131E+02 -0.30801595389E+02  0.35806838116E+02  0.00000000000E+00 0.  1.
<mgrwt>
<rscale>  0 0.14857983E+04</rscale>
<asrwt>0</asrwt>
<pdfrwt beam="1">  1        1 0.65004276E-01 0.14857983E+04</pdfrwt>
<pdfrwt beam="2">  1       -1 0.20095142E+00 0.14857983E+04</pdfrwt>
<totfact> 0.80030553E+00</totfact>
</mgrwt>
</event>
<event>
12    1  0.4672461E-008  0.1696485E+04  0.7818608E-02  0.8763372E-01
         -1   -1    0    0    0  501 -0.00000000000E+00  0.00000000000E+00  0.20686394077E+04  0.20686394077E+04  0.00000000000E+00 0.  1.
          1   -1    0    0  501    0  0.00000000000E+00 -0.00000000000E+00 -0.34782047327E+03  0.34782047327E+03  0.00000000000E+00 0. -1.
         23    2    1    2    0    0 -0.40031209250E+03 -0.36057738481E+03  0.99393395687E+03  0.11341763489E+04  0.90473520315E+02 0.  0.
        254    2    1    2    0    0  0.40031209250E+03  0.36057738481E+03  0.72688497753E+03  0.12822835321E+04  0.90863824716E+03 0.  0.
         23    2    4    4    0    0 -0.14881002063E+03 -0.16644837519E+03  0.35787642822E+03  0.43161275686E+03  0.91457914727E+02 0.  0.
         23    2    4    4    0    0  0.54912211312E+03  0.52702576000E+03  0.36900854932E+03  0.85067077521E+03  0.90455577530E+02 0.  0.
         13    1    3    3    0    0 -0.29491979987E+03 -0.27046411198E+03  0.64946899418E+03  0.76284893565E+03  0.00000000000E+00 0. -1.
        -13    1    3    3    0    0 -0.10539229262E+03 -0.90113272835E+02  0.34446496269E+03  0.37132741322E+03  0.00000000000E+00 0.  1.
          4    1    5    5  502    0 -0.14527372724E+03 -0.10737004014E+03  0.24809175509E+03  0.30689134932E+03  0.00000000000E+00 0. -1.
          1    1    6    6  503    0  0.34412561722E+03  0.30078439192E+03  0.26399747089E+03  0.52781469806E+03  0.00000000000E+00 0. -1.
         -4    1    5    5    0  502 -0.35362933832E+01 -0.59078335049E+02  0.10978467313E+03  0.12472140753E+03  0.00000000000E+00 0.  1.
         -1    1    6    6    0  503  0.20499649590E+03  0.22624136808E+03  0.10501107843E+03  0.32285607715E+03  0.00000000000E+00 0.  1.
<mgrwt>
<rscale>  0 0.16964848E+04</rscale>
<asrwt>0</asrwt>
<pdfrwt beam="1">  1        1 0.53510843E-01 0.16964848E+04</pdfrwt>
<pdfrwt beam="2">  1       -1 0.31825221E+00 0.16964848E+04</pdfrwt>
<totfact> 0.17308521E+00</totfact>
</mgrwt>
</event>
<event>
12    1  0.4672461E-008  0.1466626E+04  0.7818608E-02  0.8906955E-01
         -1   -1    0    0    0  501 -0.00000000000E+00  0.00000000000E+00  0.84022771106E+03  0.84022771106E+03  0.00000000000E+00 0.  1.
          1   -1    0    0  501    0  0.00000000000E+00 -0.00000000000E+00 -0.64000259751E+03  0.64000259751E+03  0.00000000000E+00 0. -1.
         23    2    1    2    0    0 -0.70189948218E+02 -0.36585358238E+03 -0.16146508653E+03  0.42060235556E+03  0.10981755218E+03 0.  0.
        254    2    1    2    0    0  0.70189948218E+02  0.36585358238E+03  0.36169020008E+03  0.10596279530E+04  0.92369698786E+03 0.  0.
         23    2    4    4    0    0 -0.18925522048E+03  0.52888587978E+03  0.44895867432E+03  0.72493138349E+03  0.91781300979E+02 0.  0.
         23    2    4    4    0    0  0.25944516870E+03 -0.16303229740E+03 -0.87268474240E+02  0.33469656952E+03  0.10254112099E+03 0.  0.
         13    1    3    3    0    0 -0.20807519819E+02 -0.10791999599E+03  0.43914524292E+01  0.10999528749E+03  0.00000000000E+00 0. -1.
        -13    1    3    3    0    0 -0.49382428399E+02 -0.25793358639E+03 -0.16585653896E+03  0.31060706807E+03  0.00000000000E+00 0.  1.
          2    1    5    5  502    0 -0.75225874653E+02  0.32194132057E+03  0.29351017153E+03  0.44210108222E+03  0.00000000000E+00 0. -1.
          4    1    6    6  503    0  0.13071128672E+03 -0.11791807723E+03 -0.91135584136E+02  0.19823170309E+03  0.00000000000E+00 0. -1.
         -2    1    5    5    0  502 -0.11402934583E+03  0.20694455921E+03  0.15544850279E+03  0.28283030127E+03  0.00000000000E+00 0.  1.
         -4    1    6    6    0  503  0.12873388197E+03 -0.45114220169E+02  0.38671098960E+01  0.13646486643E+03  0.00000000000E+00 0.  1.
<mgrwt>
<rscale>  0 0.14666259E+04</rscale>
<asrwt>0</asrwt>
<pdfrwt beam="1">  1        1 0.98461937E-01 0.14666259E+04</pdfrwt>
<pdfrwt beam="2">  1       -1 0.12926580E+00 0.14666259E+04</pdfrwt>
<totfact> 0.15554582E+01</totfact>
</mgrwt>
</event>
<event>
12    1  0.4672461E-008  0.1820792E+04  0.7818608E-02  0.8695320E-01
         -2   -1    0    0    0  501 -0.00000000000E+00  0.00000000000E+00  0.13666299600E+04  0.13666299600E+04  0.00000000000E+00 0. -1.
          2   -1    0    0  501    0  0.00000000000E+00 -0.00000000000E+00 -0.60647055188E+03  0.60647055188E+03  0.00000000000E+00 0.  1.
         23    2    1    2    0    0 -0.54490592631E+02 -0.67965205457E+03  0.16062206149E+03  0.70662723326E+03  0.92878739078E+02 0.  0.
        254    2    1    2    0    0  0.54490592631E+02  0.67965205457E+03  0.59953734658E+03  0.12664732786E+04  0.88295718777E+03 0.  0.
         23    2    4    4    0    0  0.17820334826E+03 -0.10461817716E+03  0.37200978519E+03  0.43531481610E+03  0.91685945051E+02 0.  0.
         23    2    4    4    0    0 -0.12371275563E+03  0.78427023173E+03  0.22752756140E+03  0.83115846248E+03  0.93117969666E+02 0.  0.
         13    1    3    3    0    0 -0.13408601288E+02 -0.86541784730E+02 -0.98809014714E+01  0.88130036348E+02  0.00000000000E+00 0.  1.
        -13    1    3    3    0    0 -0.41081991343E+02 -0.59311026984E+03  0.17050296297E+03  0.61849719691E+03  0.00000000000E+00 0. -1.
          2    1    5    5  502    0  0.92685579832E+02 -0.25621007824E+02  0.96572884079E+02  0.13628416889E+03  0.00000000000E+00 0. -1.
          3    1    6    6  503    0 -0.90930428158E+02  0.35879775870E+03  0.13872384858E+03  0.39528278559E+03  0.00000000000E+00 0. -1.
         -2    1    5    5    0  502  0.85517768425E+02 -0.78997169333E+02  0.27543690111E+03  0.29903064721E+03  0.00000000000E+00 0.  1.
         -3    1    6    6    0  503 -0.32782327468E+02  0.42547247303E+03  0.88803712814E+02  0.43587567689E+03  0.00000000000E+00 0.  1.
<mgrwt>
<rscale>  0 0.18207919E+04</rscale>
<asrwt>0</asrwt>
<pdfrwt beam="1">  1        2 0.93303162E-01 0.18207919E+04</pdfrwt>
<pdfrwt beam="2">  1       -2 0.21025076E+00 0.18207919E+04</pdfrwt>
<totfact> 0.52598842E+00</totfact>
</mgrwt>
</event>
<event>
12    1  0.4672461E-008  0.1233580E+04  0.7818608E-02  0.9083961E-01
          1   -1    0    0  501    0  0.00000000000E+00  0.00000000000E+00  0.10875380592E+04  0.10875380592E+04  0.00000000000E+00 0. -1.
         -1   -1    0    0    0  501 -0.00000000000E+00 -0.00000000000E+00 -0.34980859778E+03  0.34980859778E+03  0.00000000000E+00 0.  1.
         23    2    1    2    0    0 -0.52449562967E+02  0.26722499706E+03  0.23063926888E+03  0.36698530531E+03  0.85577954264E+02 0.  0.
        254    2    1    2    0    0  0.52449562967E+02 -0.26722499706E+03  0.50709019251E+03  0.10703613516E+04  0.90242606568E+03 0.  0.
         23    2    4    4    0    0  0.32596177761E+03  0.19858255690E+03  0.18220534449E+03  0.43350371413E+03  0.95081913319E+02 0.  0.
         23    2    4    4    0    0 -0.27351221464E+03 -0.46580755396E+03  0.32488484802E+03  0.63685763750E+03  0.90839843053E+02 0.  0.
         13    1    3    3    0    0  0.18158323690E+02  0.17667709965E+02  0.13346389162E+02  0.28635621143E+02  0.00000000000E+00 0.  1.
        -13    1    3    3    0    0 -0.70607886656E+02  0.24955728709E+03  0.21729287972E+03  0.33834968417E+03  0.00000000000E+00 0. -1.
          2    1    5    5  502    0  0.29735277873E+03  0.14721711249E+03  0.13544453643E+03  0.35838076913E+03  0.00000000000E+00 0.  1.
          3    1    6    6  503    0 -0.11812314065E+03 -0.23893238352E+03  0.11207074812E+03  0.28913943494E+03  0.00000000000E+00 0. -1.
         -2    1    5    5    0  502  0.28608998873E+02  0.51365444411E+02  0.46760808061E+02  0.75122945007E+02  0.00000000000E+00 0. -1.
         -3    1    6    6    0  503 -0.15538907399E+03 -0.22687517044E+03  0.21281409989E+03  0.34771820256E+03  0.00000000000E+00 0.  1.
<mgrwt>
<rscale>  0 0.12335804E+04</rscale>
<asrwt>0</asrwt>
<pdfrwt beam="1">  1        1 0.16731355E+00 0.12335804E+04</pdfrwt>
<pdfrwt beam="2">  1       -1 0.53816708E-01 0.12335804E+04</pdfrwt>
<totfact> 0.44574877E+01</totfact>
</mgrwt>
</event>
<event>
12    1  0.5718387E-008  0.1827494E+04  0.7818608E-02  0.8691813E-01
         -1   -1    0    0    0  501 -0.00000000000E+00  0.00000000000E+00  0.50685975171E+03  0.50685975171E+03  0.00000000000E+00 0.  1.
          1   -1    0    0  501    0  0.00000000000E+00 -0.00000000000E+00 -0.16472678927E+04  0.16472678927E+04  0.00000000000E+00 0. -1.
         23    2    1    2    0    0 -0.63467011175E+03 -0.98747208195E+02 -0.14524269825E+03  0.66497822001E+03  0.92430675695E+02 0.  0.
        254    2    1    2    0    0  0.63467011175E+03  0.98747208195E+02 -0.99516544273E+03  0.14891494244E+04  0.90258217790E+03 0.  0.
         23    2    4    4    0    0  0.56786221911E+03  0.41034095714E+03 -0.89738943264E+03  0.11430810855E+04  0.10236881001E+03 0.  0.
         23    2    4    4    0    0  0.66807892647E+02 -0.31159374895E+03 -0.97776010091E+02  0.34606833887E+03  0.93001011354E+02 0.  0.
         13    1    3    3    0    0 -0.33657012478E+03 -0.59923547019E+02 -0.30551918623E+02  0.34322543629E+03  0.00000000000E+00 0. -1.
        -13    1    3    3    0    0 -0.29809998697E+03 -0.38823661177E+02 -0.11469077963E+03  0.32175278372E+03  0.00000000000E+00 0.  1.
          1    1    5    5  502    0  0.91998148081E+02  0.24615590690E+02 -0.13132455623E+03  0.16222122433E+03  0.00000000000E+00 0. -1.
          3    1    6    6  503    0 -0.19605095328E+02 -0.25694520188E+02 -0.17691087208E+02  0.36844846276E+02  0.00000000000E+00 0. -1.
         -1    1    5    5    0  502  0.47586407103E+03  0.38572536645E+03 -0.76606487641E+03  0.98085986119E+03  0.00000000000E+00 0.  1.
         -3    1    6    6    0  503  0.86412987975E+02 -0.28589922876E+03 -0.80084922883E+02  0.30922349259E+03  0.00000000000E+00 0.  1.
<mgrwt>
<rscale>  0 0.18274942E+04</rscale>
<asrwt>0</asrwt>
<pdfrwt beam="1">  1        1 0.25342582E+00 0.18274942E+04</pdfrwt>
<pdfrwt beam="2">  1       -1 0.77978425E-01 0.18274942E+04</pdfrwt>
<totfact> 0.80292062E+00</totfact>
</mgrwt>
</event>
<event>
12    1  0.4672461E-008  0.1806254E+04  0.7818608E-02  0.8702981E-01
          2   -1    0    0  501    0  0.00000000000E+00  0.00000000000E+00  0.90820051377E+03  0.90820051377E+03  0.00000000000E+00 0. -1.
         -2   -1    0    0    0  501 -0.00000000000E+00 -0.00000000000E+00 -0.89808172487E+03  0.89808172487E+03  0.00000000000E+00 0.  1.
         23    2    1    2    0    0  0.28092203157E+03 -0.38797285350E+03 -0.49581599836E+03  0.69543175916E+03  0.91387660835E+02 0.  0.
        254    2    1    2    0    0 -0.28092203157E+03  0.38797285350E+03  0.50593478726E+03  0.11108504795E+04  0.86520440123E+03 0.  0.
         23    2    4    4    0    0  0.23237732098E+03  0.28869303016E+03  0.91539008701E+01  0.38421519867E+03  0.10096851004E+03 0.  0.
         23    2    4    4    0    0 -0.51329935255E+03  0.99279823340E+02  0.49678088639E+03  0.72663528080E+03  0.88740484395E+02 0.  0.
         11    1    3    3    0    0  0.12886592420E+03 -0.23520380921E+03 -0.31810219109E+03  0.41607242430E+03  0.00000000000E+00 0.  1.
        -11    1    3    3    0    0  0.15205610737E+03 -0.15276904429E+03 -0.17771380727E+03  0.27935933486E+03  0.00000000000E+00 0. -1.
          4    1    5    5  502    0  0.53488586168E+02  0.33144444692E+02 -0.30210850448E+02  0.69801708782E+02  0.00000000000E+00 0.  1.
          1    1    6    6  503    0 -0.25201082820E+03  0.93900260261E+02  0.24972385440E+03  0.36699961835E+03  0.00000000000E+00 0.  1.
         -4    1    5    5    0  502  0.17888873481E+03  0.25554858547E+03  0.39364751318E+02  0.31441348989E+03  0.00000000000E+00 0. -1.
         -1    1    6    6    0  503 -0.26128852434E+03  0.53795630784E+01  0.24705703198E+03  0.35963566245E+03  0.00000000000E+00 0. -1.
<mgrwt>
<rscale>  0 0.18062539E+04</rscale>
<asrwt>0</asrwt>
<pdfrwt beam="1">  1        2 0.13972316E+00 0.18062539E+04</pdfrwt>
<pdfrwt beam="2">  1       -2 0.13816642E+00 0.18062539E+04</pdfrwt>
<totfact> 0.10151236E+01</totfact>
</mgrwt>
</event>
<event>
12    1  0.4672461E-008  0.1598440E+04  0.7818608E-02  0.8821507E-01
         -2   -1    0    0    0  501 -0.00000000000E+00  0.00000000000E+00  0.23983339776E+03  0.23983339776E+03  0.00000000000E+00 0.  1.
          2   -1    0    0  501    0  0.00000000000E+00 -0.00000000000E+00 -0.26633164311E+04  0.26633164311E+04  0.00000000000E+00 0. -1.
         23    2    1    2    0    0 -0.34526217830E+03  0.34958744885E+03 -0.12219874132E+04  0.13201636173E+04  0.90340368616E+02 0.  0.
        254    2    1    2    0    0  0.34526217830E+03 -0.34958744885E+03 -0.12014956201E+04  0.15829862116E+04  0.90600014607E+03 0.  0.
         23    2    4    4    0    0  0.55440929397E+03 -0.17262871322E+03 -0.35200552377E+03  0.68522334181E+03  0.91939118561E+02 0.  0.
         23    2    4    4    0    0 -0.20914711568E+03 -0.17695873564E+03 -0.84949009637E+03  0.89776286978E+03  0.96373421675E+02 0.  0.
         11    1    3    3    0    0 -0.27895068009E+03  0.25112212623E+03 -0.83732470208E+03  0.91759929213E+03  0.00000000000E+00 0.  1.
        -11    1    3    3    0    0 -0.66311498201E+02  0.98465322626E+02 -0.38466271109E+03  0.40256432512E+03  0.00000000000E+00 0. -1.
          4    1    5    5  502    0  0.31873019133E+03 -0.14630883126E+03 -0.20578006323E+03  0.40662100708E+03  0.00000000000E+00 0. -1.
          1    1    6    6  503    0 -0.11822372310E+03 -0.87342871551E+02 -0.59705155322E+03  0.61487899876E+03  0.00000000000E+00 0. -1.
         -4    1    5    5    0  502  0.23567910264E+03 -0.26319881954E+02 -0.14622546054E+03  0.27860233473E+03  0.00000000000E+00 0.  1.
         -1    1    6    6    0  503 -0.90923392576E+02 -0.89615864086E+02 -0.25243854315E+03  0.28288387102E+03  0.00000000000E+00 0.  1.
<mgrwt>
<rscale>  0 0.15984395E+04</rscale>
<asrwt>0</asrwt>
<pdfrwt beam="1">  1        2 0.40974099E+00 0.15984395E+04</pdfrwt>
<pdfrwt beam="2">  1       -2 0.36897446E-01 0.15984395E+04</pdfrwt>
<totfact> 0.18592687E+01</totfact>
</mgrwt>
</event>
<event>
12    1  0.4750772E-008  0.1255773E+04  0.7818608E-02  0.9065392E-01
          2   -1    0    0  501    0  0.00000000000E+00  0.00000000000E+00  0.88902461504E+03  0.88902461504E+03  0.00000000000E+00 0. -1.
         -2   -1    0    0    0  501 -0.00000000000E+00 -0.00000000000E+00 -0.44345383645E+03  0.44345383645E+03  0.00000000000E+00 0.  1.
         23    2    1    2    0    0  0.18815802670E+03 -0.13307653597E+03  0.28737167706E+03  0.38921284971E+03  0.12566365490E+03 0.  0.
        254    2    1    2    0    0 -0.18815802670E+03  0.13307653597E+03  0.15819910153E+03  0.94326560179E+03  0.90089412938E+03 0.  0.
         23    2    4    4    0    0 -0.47255802406E+03  0.31876114329E+03  0.80947665680E+02  0.58394398559E+03  0.97561781189E+02 0.  0.
         23    2    4    4    0    0  0.28439999737E+03 -0.18568460732E+03  0.77251435852E+02  0.35932161620E+03  0.88216254910E+02 0.  0.
         11    1    3    3    0    0  0.18291197928E+03 -0.85041185081E+02  0.27174296351E+03  0.33842729432E+03  0.00000000000E+00 0. -1.
        -11    1    3    3    0    0  0.52460474160E+01 -0.48035350887E+02  0.15628713547E+02  0.50785555382E+02  0.00000000000E+00 0.  1.
          2    1    5    5  502    0 -0.38496575998E+03  0.27615851909E+03  0.10118883957E+03  0.48445984898E+03  0.00000000000E+00 0. -1.
          1    1    6    6  503    0  0.19164518047E+03 -0.11909208163E+03  0.79949512902E+01  0.22577581436E+03  0.00000000000E+00 0. -1.
         -2    1    5    5    0  502 -0.87592264082E+02  0.42602624199E+02 -0.20241173889E+02  0.99484136605E+02  0.00000000000E+00 0.  1.
         -1    1    6    6    0  503  0.92754816899E+02 -0.66592525691E+02  0.69256484561E+02  0.13354580184E+03  0.00000000000E+00 0.  1.
<mgrwt>
<rscale>  0 0.12557729E+04</rscale>
<asrwt>0</asrwt>
<pdfrwt beam="1">  1        2 0.13677302E+00 0.12557729E+04</pdfrwt>
<pdfrwt beam="2">  1       -2 0.68223667E-01 0.12557729E+04</pdfrwt>
<totfact> 0.57677219E+01</totfact>
</mgrwt>
</event>
<event>
12    1  0.4672461E-008  0.2488487E+04  0.7818608E-02  0.8407099E-01
         -2   -1    0    0    0  501 -0.00000000000E+00  0.00000000000E+00  0.47697329858E+03  0.47697329858E+03  0.00000000000E+00 0.  1.
          2   -1    0    0  501    0  0.00000000000E+00 -0.00000000000E+00 -0.32457619063E+04  0.32457619063E+04  0.00000000000E+00 0. -1.
         23    2    1    2    0    0  0.87784241040E+03  0.49175688686E+03 -0.17443990503E+04  0.20158683341E+04  0.91460159296E+02 0.  0.
        254    2    1    2    0    0 -0.87784241040E+03 -0.49175688686E+03 -0.10243895575E+04  0.17068668708E+04  0.92281548306E+03 0.  0.
         23    2    4    4    0    0 -0.69588835850E+03  0.19907930328E+02 -0.22764972600E+03  0.73825553807E+03  0.92411625627E+02 0.  0.
         23    2    4    4    0    0 -0.18195405190E+03 -0.51166481719E+03 -0.79673983146E+03  0.96861133268E+03  0.92224685520E+02 0.  0.
         13    1    3    3    0    0  0.38910581646E+03  0.17463086326E+03 -0.68827084521E+03  0.80970119870E+03  0.00000000000E+00 0.  1.
        -13    1    3    3    0    0  0.48873659394E+03  0.31712602360E+03 -0.10561282051E+04  0.12061671355E+04  0.00000000000E+00 0. -1.
          2    1    5    5  502    0 -0.53090380623E+03 -0.17655058240E+02 -0.14923540589E+03  0.55176241166E+03  0.00000000000E+00 0. -1.
          1    1    6    6  503    0 -0.12587420088E+03 -0.29208170062E+03 -0.53490591238E+03  0.62231854333E+03  0.00000000000E+00 0. -1.
         -2    1    5    5    0  502 -0.16498455227E+03  0.37562988568E+02 -0.78414320109E+02  0.18649312641E+03  0.00000000000E+00 0.  1.
         -1    1    6    6    0  503 -0.56079851018E+02 -0.21958311657E+03 -0.26183391908E+03  0.34629278935E+03  0.00000000000E+00 0.  1.
<mgrwt>
<rscale>  0 0.24884869E+04</rscale>
<asrwt>0</asrwt>
<pdfrwt beam="1">  1        2 0.49934800E+00 0.24884869E+04</pdfrwt>
<pdfrwt beam="2">  1       -2 0.73380506E-01 0.24884869E+04</pdfrwt>
<totfact> 0.18116464E+00</totfact>
</mgrwt>
</event>
<event>
12    1  0.4672461E-008  0.3597436E+04  0.7818608E-02  0.8091079E-01
          1   -1    0    0  501    0  0.00000000000E+00  0.00000000000E+00  0.20547643123E+04  0.20547643123E+04  0.00000000000E+00 0. -1.
         -1   -1    0    0    0  501 -0.00000000000E+00 -0.00000000000E+00 -0.15745775350E+04  0.15745775350E+04  0.00000000000E+00 0.  1.
         23    2    1    2    0    0 -0.13931458795E+04 -0.82811726802E+03 -0.23433092856E+03  0.16400789635E+04  0.91183174567E+02 0.  0.
        254    2    1    2    0    0  0.13931458795E+04  0.82811726802E+03  0.71451770583E+03  0.19892628838E+04  0.90553719848E+03 0.  0.
         23    2    4    4    0    0  0.11884113016E+04  0.44221593871E+03  0.16765585056E+03  0.12828443699E+04  0.98513120964E+02 0.  0.
         23    2    4    4    0    0  0.20473457792E+03  0.38590132931E+03  0.54686185526E+03  0.70641851392E+03  0.95567487710E+02 0.  0.
         11    1    3    3    0    0 -0.12823979193E+04 -0.77713307219E+03 -0.19584417332E+03  0.15122285461E+04  0.00000000000E+00 0.  1.
        -11    1    3    3    0    0 -0.11074796020E+03 -0.50984195831E+02 -0.38486755237E+02  0.12785041744E+03  0.00000000000E+00 0. -1.
          1    1    5    5  502    0  0.70464043674E+03  0.24084644060E+03  0.53765608997E+02  0.74660290232E+03  0.00000000000E+00 0. -1.
          1    1    6    6  503    0  0.13036358982E+03  0.22845731628E+03  0.25371399294E+03  0.36545615486E+03  0.00000000000E+00 0. -1.
         -1    1    5    5    0  502  0.48377086481E+03  0.20136949812E+03  0.11389024157E+03  0.53624146757E+03  0.00000000000E+00 0.  1.
         -1    1    6    6    0  503  0.74370988100E+02  0.15744401303E+03  0.29314786232E+03  0.34096235906E+03  0.00000000000E+00 0.  1.
<mgrwt>
<rscale>  0 0.35974356E+04</rscale>
<asrwt>0</asrwt>
<pdfrwt beam="1">  1        1 0.31611759E+00 0.35974356E+04</pdfrwt>
<pdfrwt beam="2">  1       -1 0.24224270E+00 0.35974356E+04</pdfrwt>
<totfact> 0.17349106E-01</totfact>
</mgrwt>
</event>
<event>
12    1  0.4672461E-008  0.3433458E+04  0.7818608E-02  0.8129743E-01
          2   -1    0    0  501    0  0.00000000000E+00  0.00000000000E+00  0.17860058779E+04  0.17860058779E+04  0.00000000000E+00 0. -1.
         -2   -1    0    0    0  501 -0.00000000000E+00 -0.00000000000E+00 -0.16501390004E+04  0.16501390004E+04  0.00000000000E+00 0.  1.
         23    2    1    2    0    0  0.31945204282E+03  0.40233953329E+03 -0.14519982206E+04  0.15429423671E+04  0.91899989524E+02 0.  0.
        254    2    1    2    0    0 -0.31945204282E+03 -0.40233953329E+03  0.15878650981E+04  0.18932025112E+04  0.89385315969E+03 0.  0.
         23    2    4    4    0    0  0.51111669942E+02 -0.51907093704E+03  0.12906103816E+04  0.13951722440E+04  0.93719756467E+02 0.  0.
         23    2    4    4    0    0 -0.37056371276E+03  0.11673140375E+03  0.29725471646E+03  0.49803026724E+03  0.93434976277E+02 0.  0.
         11    1    3    3    0    0  0.31015336995E+03  0.34785751174E+03 -0.13191472600E+04  0.13990530565E+04  0.00000000000E+00 0.  1.
        -11    1    3    3    0    0  0.92986728630E+01  0.54482021551E+02 -0.13285096054E+03  0.14388931060E+03  0.00000000000E+00 0. -1.
          2    1    5    5  502    0 -0.29787931295E+01 -0.10773665279E+03  0.18257093637E+03  0.21200992045E+03  0.00000000000E+00 0.  1.
          3    1    6    6  503    0 -0.27377475320E+03  0.63554929226E+02  0.16568764888E+03  0.32625793709E+03  0.00000000000E+00 0. -1.
         -2    1    5    5    0  502  0.54090463071E+02 -0.41133428425E+03  0.11080394452E+04  0.11831623235E+04  0.00000000000E+00 0. -1.
         -3    1    6    6    0  503 -0.96788959558E+02  0.53176474528E+02  0.13156706757E+03  0.17177233015E+03  0.00000000000E+00 0.  1.
<mgrwt>
<rscale>  0 0.34334577E+04</rscale>
<asrwt>0</asrwt>
<pdfrwt beam="1">  1        2 0.27477014E+00 0.34334577E+04</pdfrwt>
<pdfrwt beam="2">  1       -2 0.25386754E+00 0.34334577E+04</pdfrwt>
<totfact> 0.44156002E-01</totfact>
</mgrwt>
</event>
<event>
12    1  0.4672461E-008  0.1383402E+04  0.7818608E-02  0.8965921E-01
         -1   -1    0    0    0  501 -0.00000000000E+00  0.00000000000E+00  0.98111317637E+03  0.98111317637E+03  0.00000000000E+00 0.  1.
          1   -1    0    0  501    0  0.00000000000E+00 -0.00000000000E+00 -0.48766079501E+03  0.48766079501E+03  0.00000000000E+00 0. -1.
         23    2    1    2    0    0  0.24691291551E+01  0.14417943863E+03 -0.26438851938E+03  0.31553654844E+03  0.94171211631E+02 0.  0.
        254    2    1    2    0    0 -0.24691291551E+01 -0.14417943863E+03  0.75784090074E+03  0.11532374229E+04  0.85722804183E+03 0.  0.
         23    2    4    4    0    0  0.11422522518E+03 -0.51661981171E+02  0.90972582828E+03  0.92200619988E+03  0.82328534631E+02 0.  0.
         23    2    4    4    0    0 -0.11669435434E+03 -0.92517457459E+02 -0.15188492754E+03  0.23123122305E+03  0.90674114447E+02 0.  0.
         11    1    3    3    0    0 -0.24847334905E+01  0.16787375475E+02  0.48413222180E+01  0.17647330582E+02  0.00000000000E+00 0.  1.
        -11    1    3    3    0    0  0.49538626456E+01  0.12739206316E+03 -0.26922984160E+03  0.29788921786E+03  0.00000000000E+00 0. -1.
          1    1    5    5  502    0  0.58454161119E+01 -0.38052205866E+02  0.31374153971E+03  0.31609475320E+03  0.00000000000E+00 0. -1.
          1    1    6    6  503    0 -0.12046506926E+02 -0.12408762882E+02  0.11910664803E+02  0.20999039535E+02  0.00000000000E+00 0. -1.
         -1    1    5    5    0  502  0.10837980907E+03 -0.13609775305E+02  0.59598428857E+03  0.60591144668E+03  0.00000000000E+00 0.  1.
         -1    1    6    6    0  503 -0.10464784741E+03 -0.80108694577E+02 -0.16379559234E+03  0.21023218352E+03  0.00000000000E+00 0.  1.
<mgrwt>
<rscale>  0 0.13834022E+04</rscale>
<asrwt>0</asrwt>
<pdfrwt beam="1">  1        1 0.75024738E-01 0.13834022E+04</pdfrwt>
<pdfrwt beam="2">  1       -1 0.15094049E+00 0.13834022E+04</pdfrwt>
<totfact> 0.15366756E+01</totfact>
</mgrwt>
</event>
<event>
12    1  0.4672461E-008  0.2289427E+04  0.7818608E-02  0.8482101E-01
          2   -1    0    0  501    0  0.00000000000E+00  0.00000000000E+00  0.16682490162E+04  0.16682490162E+04  0.00000000000E+00 0. -1.
         -2   -1    0    0    0  501 -0.00000000000E+00 -0.00000000000E+00 -0.78547596979E+03  0.78547596979E+03  0.00000000000E+00 0.  1.
         23    2    1    2    0    0 -0.58002195612E+02 -0.49398061508E+03  0.12567763336E+04  0.13549796114E+04  0.95403836090E+02 0.  0.
        254    2    1    2    0    0  0.58002195612E+02  0.49398061508E+03 -0.37400328717E+03  0.10987453746E+04  0.90552848470E+03 0.  0.
         23    2    4    4    0    0  0.47142583466E+03  0.21556365291E+03 -0.20510763103E+03  0.56474817077E+03  0.90340190646E+02 0.  0.
         23    2    4    4    0    0 -0.41342363904E+03  0.27841696216E+03 -0.16889565614E+03  0.53399720381E+03  0.90510556723E+02 0.  0.
         13    1    3    3    0    0  0.72812519353E+00 -0.19570043979E+03  0.38823519527E+03  0.43477092721E+03  0.00000000000E+00 0.  1.
        -13    1    3    3    0    0 -0.58730320806E+02 -0.29828017528E+03  0.86854113834E+03  0.92020868423E+03  0.00000000000E+00 0. -1.
          2    1    5    5  502    0  0.45773125169E+03  0.18886583032E+03 -0.18484170633E+03  0.52854011866E+03  0.00000000000E+00 0. -1.
          2    1    6    6  503    0 -0.33120356829E+03  0.17579532627E+03 -0.11990785675E+03  0.39367206466E+03  0.00000000000E+00 0. -1.
         -2    1    5    5    0  502  0.13694582969E+02  0.26697822593E+02 -0.20265924700E+02  0.36208052113E+02  0.00000000000E+00 0.  1.
         -2    1    6    6    0  503 -0.82220070753E+02  0.10262163590E+03 -0.48987799392E+02  0.14032513915E+03  0.00000000000E+00 0.  1.
<mgrwt>
<rscale>  0 0.22894275E+04</rscale>
<asrwt>0</asrwt>
<pdfrwt beam="1">  1        2 0.25665369E+00 0.22894275E+04</pdfrwt>
<pdfrwt beam="2">  1       -2 0.12084246E+00 0.22894275E+04</pdfrwt>
<totfact> 0.48373009E+00</totfact>
</mgrwt>
</event>
<event>
12    1  0.4672461E-008  0.2932449E+04  0.7818608E-02  0.8263288E-01
          1   -1    0    0  501    0  0.00000000000E+00  0.00000000000E+00  0.25251689630E+04  0.25251689630E+04  0.00000000000E+00 0. -1.
         -1   -1    0    0    0  501 -0.00000000000E+00 -0.00000000000E+00 -0.85135448019E+03  0.85135448019E+03  0.00000000000E+00 0.  1.
         23    2    1    2    0    0  0.42223970661E+03  0.11939329403E+03  0.21481399360E+04  0.21944400839E+04  0.92309092497E+02 0.  0.
        254    2    1    2    0    0 -0.42223970661E+03 -0.11939329403E+03 -0.47432545323E+03  0.11820833593E+04  0.98984610129E+03 0.  0.
         23    2    4    4    0    0 -0.80945771471E+02  0.17577247846E+03  0.24644586049E+03  0.32688086747E+03  0.93098642648E+02 0.  0.
         23    2    4    4    0    0 -0.34129393514E+03 -0.29516577249E+03 -0.72077131372E+03  0.85520249182E+03  0.90860508050E+02 0.  0.
         11    1    3    3    0    0  0.16557902146E+03  0.78110096059E+02  0.72544851883E+03  0.74819325908E+03  0.00000000000E+00 0.  1.
        -11    1    3    3    0    0  0.25666068516E+03  0.41283197966E+02  0.14226914172E+04  0.14462468248E+04  0.00000000000E+00 0. -1.
          2    1    5    5  502    0 -0.22892453130E+02  0.14776459571E+03  0.15923769931E+03  0.21843782877E+03  0.00000000000E+00 0. -1.
          4    1    6    6  503    0 -0.16853164508E+03 -0.13348995266E+03 -0.26124188313E+03  0.33833386522E+03  0.00000000000E+00 0. -1.
         -2    1    5    5    0  502 -0.58053318341E+02  0.28007882751E+02  0.87208161182E+02  0.10844303870E+03  0.00000000000E+00 0.  1.
         -4    1    6    6    0  503 -0.17276229006E+03 -0.16167581983E+03 -0.45952943059E+03  0.51686862660E+03  0.00000000000E+00 0.  1.
<mgrwt>
<rscale>  0 0.29324487E+04</rscale>
<asrwt>0</asrwt>
<pdfrwt beam="1">  1        1 0.38848753E+00 0.29324487E+04</pdfrwt>
<pdfrwt beam="2">  1       -1 0.13097761E+00 0.29324487E+04</pdfrwt>
<totfact> 0.55402446E-01</totfact>
</mgrwt>
</event>
<event>
12    1  0.4672461E-008  0.1892665E+04  0.7818608E-02  0.8658516E-01
         -1   -1    0    0    0  501 -0.00000000000E+00  0.00000000000E+00  0.49693645569E+03  0.49693645569E+03  0.00000000000E+00 0.  1.
          1   -1    0    0  501    0  0.00000000000E+00 -0.00000000000E+00 -0.18021325251E+04  0.18021325251E+04  0.00000000000E+00 0. -1.
         23    2    1    2    0    0  0.98388696892E+01 -0.72271754414E+03 -0.38706127311E+03  0.82497518878E+03  0.91379324764E+02 0.  0.
        254    2    1    2    0    0 -0.98388696892E+01  0.72271754414E+03 -0.91813479631E+03  0.14740937920E+04  0.89864539810E+03 0.  0.
         23    2    4    4    0    0  0.49030058467E+02  0.28668410187E+03  0.13154579554E+03  0.33209944758E+03  0.91618916489E+02 0.  0.
         23    2    4    4    0    0 -0.58868928156E+02  0.43603344227E+03 -0.10496805919E+04  0.11419943444E+04  0.93439950496E+02 0.  0.
         13    1    3    3    0    0 -0.37982945904E+02 -0.24858648878E+03 -0.11882857093E+03  0.27813337781E+03  0.00000000000E+00 0.  1.
        -13    1    3    3    0    0  0.47821815593E+02 -0.47413105536E+03 -0.26823270217E+03  0.54684181097E+03  0.00000000000E+00 0. -1.
          2    1    5    5  502    0  0.55443593771E+02  0.76206582141E+02  0.44979017593E+02  0.10442484032E+03  0.00000000000E+00 0. -1.
          3    1    6    6  503    0 -0.32844060376E+01  0.63955656396E+02 -0.84048591561E+02  0.10566588405E+03  0.00000000000E+00 0. -1.
         -2    1    5    5    0  502 -0.64135353041E+01  0.21047751973E+03  0.86566777952E+02  0.22767460726E+03  0.00000000000E+00 0.  1.
         -3    1    6    6    0  503 -0.55584522119E+02  0.37207778587E+03 -0.96563200030E+03  0.10363284604E+04  0.00000000000E+00 0.  1.
<mgrwt>
<rscale>  0 0.18926652E+04</rscale>
<asrwt>0</asrwt>
<pdfrwt beam="1">  1        1 0.27725116E+00 0.18926652E+04</pdfrwt>
<pdfrwt beam="2">  1       -1 0.76451762E-01 0.18926652E+04</pdfrwt>
<totfact> 0.65277125E+00</totfact>
</mgrwt>
</event>
<event>
12    1  0.4672461E-008  0.1522159E+04  0.7818608E-02  0.8869850E-01
          1   -1    0    0  501    0  0.00000000000E+00  0.00000000000E+00  0.23141021685E+03  0.23141021685E+03  0.00000000000E+00 0. -1.
         -1   -1    0    0    0  501 -0.00000000000E+00 -0.00000000000E+00 -0.25030970095E+04  0.25030970095E+04  0.00000000000E+00 0.  1.
         23    2    1    2    0    0  0.54529216170E+02  0.26640946425E+03 -0.10436505716E+02  0.28668149800E+03  0.90166083349E+02 0.  0.
        254    2    1    2    0    0 -0.54529216170E+02 -0.26640946425E+03 -0.22612502870E+04  0.24478257284E+04  0.89702313137E+03 0.  0.
         23    2    4    4    0    0 -0.39666411262E+03 -0.12311341494E+01 -0.16086046779E+04  0.16592666374E+04  0.90624667011E+02 0.  0.
         23    2    4    4    0    0  0.34213489645E+03 -0.26517833010E+03 -0.65264560908E+03  0.78855909101E+03  0.92213420094E+02 0.  0.
         11    1    3    3    0    0  0.74622978807E+02  0.18217597963E+03  0.11976299023E+02  0.19723110368E+03  0.00000000000E+00 0. -1.
        -11    1    3    3    0    0 -0.20093762637E+02  0.84233484618E+02 -0.22412804739E+02  0.89450394321E+02  0.00000000000E+00 0.  1.
          4    1    5    5  502    0 -0.10945721005E+02 -0.21260716755E+01 -0.10654550147E+02  0.15422335359E+02  0.00000000000E+00 0. -1.
          1    1    6    6  503    0 -0.47206825323E+01  0.23086195341E+00 -0.14628326856E+02  0.15372901073E+02  0.00000000000E+00 0. -1.
         -4    1    5    5    0  502 -0.38571839161E+03  0.89493752604E+00 -0.15979501278E+04  0.16438443020E+04  0.00000000000E+00 0.  1.
         -1    1    6    6    0  503  0.34685557898E+03 -0.26540919205E+03 -0.63801728222E+03  0.77318618994E+03  0.00000000000E+00 0.  1.
<mgrwt>
<rscale>  0 0.15221593E+04</rscale>
<asrwt>0</asrwt>
<pdfrwt beam="1">  1        1 0.35601571E-01 0.15221593E+04</pdfrwt>
<pdfrwt beam="2">  1       -1 0.38509185E+00 0.15221593E+04</pdfrwt>
<totfact> 0.10799152E+00</totfact>
</mgrwt>
</event>
<event>
12    1  0.4672461E-008  0.1593196E+04  0.7818608E-02  0.8824739E-01
         -1   -1    0    0    0  501 -0.00000000000E+00  0.00000000000E+00  0.34538299554E+03  0.34538299554E+03  0.00000000000E+00 0.  1.
          1   -1    0    0  501    0  0.00000000000E+00 -0.00000000000E+00 -0.18372884370E+04  0.18372884370E+04  0.00000000000E+00 0. -1.
         23    2    1    2    0    0  0.11609784064E+03 -0.34591367762E+03 -0.10416520593E+04  0.11074475789E+04  0.90918350077E+02 0.  0.
        254    2    1    2    0    0 -0.11609784064E+03  0.34591367762E+03 -0.45025338211E+03  0.10752238536E+04  0.90567281413E+03 0.  0.
         23    2    4    4    0    0 -0.18805461013E+03  0.34644752043E+03 -0.69536414210E+03  0.80407478575E+03  0.87261389816E+02 0.  0.
         23    2    4    4    0    0  0.71956769486E+02 -0.53384280721E+00  0.24511075999E+03  0.27114906785E+03  0.90909134135E+02 0.  0.
         13    1    3    3    0    0  0.29583605890E+02 -0.10708129646E+03 -0.20607404352E+03  0.23411130943E+03  0.00000000000E+00 0.  1.
        -13    1    3    3    0    0  0.86514234751E+02 -0.23883238116E+03 -0.83557801578E+03  0.87333626946E+03  0.00000000000E+00 0. -1.
          2    1    5    5  502    0 -0.18872797472E+03  0.30252391352E+03 -0.58256195147E+03  0.68302078591E+03  0.00000000000E+00 0. -1.
          1    1    6    6  503    0  0.84031294076E+02 -0.25777216789E+02  0.18201666638E+03  0.20212815274E+03  0.00000000000E+00 0. -1.
         -2    1    5    5    0  502  0.67336459249E+00  0.43923606910E+02 -0.11280219063E+03  0.12105399983E+03  0.00000000000E+00 0.  1.
         -1    1    6    6    0  503 -0.12074524591E+02  0.25243373982E+02  0.63094093609E+02  0.69020915108E+02  0.00000000000E+00 0.  1.
<mgrwt>
<rscale>  0 0.15931958E+04</rscale>
<asrwt>0</asrwt>
<pdfrwt beam="1">  1        1 0.28265975E+00 0.15931958E+04</pdfrwt>
<pdfrwt beam="2">  1       -1 0.53135847E-01 0.15931958E+04</pdfrwt>
<totfact> 0.13180715E+01</totfact>
</mgrwt>
</event>
<event>
12    1  0.4672461E-008  0.1404115E+04  0.7818608E-02  0.8950845E-01
          1   -1    0    0  501    0  0.00000000000E+00  0.00000000000E+00  0.10823930061E+04  0.10823930061E+04  0.00000000000E+00 0. -1.
         -1   -1    0    0    0  501 -0.00000000000E+00 -0.00000000000E+00 -0.45536601594E+03  0.45536601594E+03  0.00000000000E+00 0.  1.
         23    2    1    2    0    0  0.73798910572E+02  0.84192876242E+02 -0.23716377888E+03  0.27754499560E+03  0.90828668151E+02 0.  0.
        254    2    1    2    0    0 -0.73798910572E+02 -0.84192876242E+02  0.86419076906E+03  0.12602140265E+04  0.91037299364E+03 0.  0.
         23    2    4    4    0    0  0.28092144240E+02  0.20511187418E+03  0.90634088479E+03  0.93399526638E+03  0.89628726795E+02 0.  0.
         23    2    4    4    0    0 -0.10189105481E+03 -0.28930475042E+03 -0.42150115737E+02  0.32621876008E+03  0.10277656107E+03 0.  0.
         11    1    3    3    0    0  0.80446845571E+02  0.98313941372E+02 -0.22204716912E+03  0.25581687072E+03  0.00000000000E+00 0.  1.
        -11    1    3    3    0    0 -0.66479349986E+01 -0.14121065129E+02 -0.15116609754E+02  0.21728124875E+02  0.00000000000E+00 0. -1.
          2    1    5    5  502    0  0.27678044255E+02  0.19673908411E+03  0.70445023300E+03  0.73193064708E+03  0.00000000000E+00 0.  1.
          4    1    6    6  503    0 -0.68130018461E+02 -0.16173047112E+03 -0.74008425042E+02  0.19046178536E+03  0.00000000000E+00 0. -1.
         -2    1    5    5    0  502  0.41409998464E+00  0.83727900667E+01  0.20189065179E+03  0.20206461930E+03  0.00000000000E+00 0. -1.
         -4    1    6    6    0  503 -0.33761036351E+02 -0.12757427930E+03  0.31858309305E+02  0.13575697473E+03  0.00000000000E+00 0.  1.
<mgrwt>
<rscale>  0 0.14041154E+04</rscale>
<asrwt>0</asrwt>
<pdfrwt beam="1">  1        1 0.16652200E+00 0.14041154E+04</pdfrwt>
<pdfrwt beam="2">  1       -1 0.70056310E-01 0.14041154E+04</pdfrwt>
<totfact> 0.26252211E+01</totfact>
</mgrwt>
</event>
<event>
12    1  0.4672461E-008  0.1285077E+04  0.7818608E-02  0.9041483E-01
         -2   -1    0    0    0  501 -0.00000000000E+00  0.00000000000E+00  0.17377371967E+04  0.17377371967E+04  0.00000000000E+00 0.  1.
          2   -1    0    0  501    0  0.00000000000E+00 -0.00000000000E+00 -0.23758254791E+03  0.23758254791E+03  0.00000000000E+00 0. -1.
         23    2    1    2    0    0 -0.10477477999E+03 -0.26236389207E+03  0.19971470581E+03  0.35763819930E+03  0.90590018720E+02 0.  0.
        254    2    1    2    0    0  0.10477477999E+03  0.26236389207E+03  0.13004399430E+04  0.16176815453E+04  0.91974831903E+03 0.  0.
         23    2    4    4    0    0  0.80043510966E+02 -0.10254775440E+03  0.12226292207E+04  0.12329860119E+04  0.92245805492E+02 0.  0.
         23    2    4    4    0    0  0.24731269023E+02  0.36491164648E+03  0.77810722234E+02  0.38469553338E+03  0.90354853256E+02 0.  0.
         13    1    3    3    0    0  0.52752028041E+01 -0.99997138851E+02  0.76325614412E+02  0.12590812110E+03  0.00000000000E+00 0.  1.
        -13    1    3    3    0    0 -0.11004998279E+03 -0.16236675322E+03  0.12338909140E+03  0.23173007820E+03  0.00000000000E+00 0. -1.
          2    1    5    5  502    0 -0.13166238069E+02  0.53430341310E+01  0.60655153422E+02  0.62297234892E+02  0.00000000000E+00 0.  1.
          1    1    6    6  503    0 -0.13866167767E+02  0.16384792905E+03 -0.33315373350E+01  0.16446736334E+03  0.00000000000E+00 0. -1.
         -2    1    5    5    0  502  0.93209749035E+02 -0.10789078854E+03  0.11619740673E+04  0.11706887770E+04  0.00000000000E+00 0. -1.
         -1    1    6    6    0  503  0.38597436790E+02  0.20106371743E+03  0.81142259569E+02  0.22022817004E+03  0.00000000000E+00 0.  1.
<mgrwt>
<rscale>  0 0.12850775E+04</rscale>
<asrwt>0</asrwt>
<pdfrwt beam="1">  1        2 0.36551162E-01 0.12850775E+04</pdfrwt>
<pdfrwt beam="2">  1       -2 0.26734418E+00 0.12850775E+04</pdfrwt>
<totfact> 0.70586942E+00</totfact>
</mgrwt>
</event>
<event>
12    1  0.4672461E-008  0.1615199E+04  0.7818608E-02  0.8811265E-01
         -2   -1    0    0    0  501 -0.00000000000E+00  0.00000000000E+00  0.44526696244E+03  0.44526696244E+03  0.00000000000E+00 0.  1.
          2   -1    0    0  501    0  0.00000000000E+00 -0.00000000000E+00 -0.14647771556E+04  0.14647771556E+04  0.00000000000E+00 0. -1.
         23    2    1    2    0    0 -0.28853499492E+03 -0.73538052874E+02 -0.87787471622E+03  0.93146929623E+03  0.91163281634E+02 0.  0.
        254    2    1    2    0    0  0.28853499492E+03  0.73538052874E+02 -0.14163547696E+03  0.97857482184E+03  0.92135106506E+03 0.  0.
         23    2    4    4    0    0  0.19508065373E+03 -0.27419804384E+02  0.37706603344E+03  0.43470071614E+03  0.89317478176E+02 0.  0.
         23    2    4    4    0    0  0.93454341196E+02  0.10095785726E+03 -0.51870151040E+03  0.54387410570E+03  0.88439714672E+02 0.  0.
         13    1    3    3    0    0 -0.43226340145E+02  0.19151457443E+02 -0.17481952246E+03  0.18109986261E+03  0.00000000000E+00 0. -1.
        -13    1    3    3    0    0 -0.24530865478E+03 -0.92689510317E+02 -0.70305519377E+03  0.75036943362E+03  0.00000000000E+00 0.  1.
          1    1    5    5  502    0  0.84725820278E+01  0.15614247220E+02  0.92793044061E+01  0.20042326530E+02  0.00000000000E+00 0. -1.
          3    1    6    6  503    0  0.26451663091E+02  0.53732762633E+02 -0.36304830321E+03  0.36795512053E+03  0.00000000000E+00 0. -1.
         -1    1    5    5    0  502  0.18660807170E+03 -0.43034051604E+02  0.36778672903E+03  0.41465838961E+03  0.00000000000E+00 0.  1.
         -3    1    6    6    0  503  0.67002678105E+02  0.47225094625E+02 -0.15565320719E+03  0.17591898518E+03  0.00000000000E+00 0.  1.
<mgrwt>
<rscale>  0 0.16151989E+04</rscale>
<asrwt>0</asrwt>
<pdfrwt beam="1">  1        2 0.22535033E+00 0.16151989E+04</pdfrwt>
<pdfrwt beam="2">  1       -2 0.68502610E-01 0.16151989E+04</pdfrwt>
<totfact> 0.24805490E+01</totfact>
</mgrwt>
</event>
<event>
12    1  0.4672461E-008  0.2789633E+04  0.7818608E-02  0.8306494E-01
         -1   -1    0    0    0  501 -0.00000000000E+00  0.00000000000E+00  0.10228750530E+04  0.10228750530E+04  0.00000000000E+00 0.  1.
          1   -1    0    0  501    0  0.00000000000E+00 -0.00000000000E+00 -0.19020041241E+04  0.19020041241E+04  0.00000000000E+00 0. -1.
         23    2    1    2    0    0 -0.77409144513E+03 -0.97141129242E+03 -0.30182274443E+03  0.12811959548E+04  0.86652414838E+02 0.  0.
        254    2    1    2    0    0  0.77409144513E+03  0.97141129242E+03 -0.57730632664E+03  0.16436832223E+04  0.90860028395E+03 0.  0.
         23    2    4    4    0    0  0.27779847526E+03  0.58741367272E+03 -0.74002633702E+03  0.98889618669E+03  0.89721083315E+02 0.  0.
         23    2    4    4    0    0  0.49629296986E+03  0.38399761970E+03  0.16272001038E+03  0.65478703560E+03  0.92235439741E+02 0.  0.
         11    1    3    3    0    0 -0.84048841111E+01 -0.83566742719E+01 -0.12629293330E+02  0.17319790179E+02  0.00000000000E+00 0. -1.
        -11    1    3    3    0    0 -0.76568656102E+03 -0.96305461815E+03 -0.28919345110E+03  0.12638761646E+04  0.00000000000E+00 0.  1.
          2    1    5    5  502    0  0.19424309539E+02  0.40915991467E+02 -0.92891279007E+02  0.10334511055E+03  0.00000000000E+00 0. -1.
          1    1    6    6  503    0  0.40821687268E+02  0.76056169004E+01 -0.14054486693E+01  0.41547934315E+02  0.00000000000E+00 0. -1.
         -2    1    5    5    0  502  0.25837416572E+03  0.54649768126E+03 -0.64713505802E+03  0.88555107614E+03  0.00000000000E+00 0.  1.
         -1    1    6    6    0  503  0.45547128260E+03  0.37639200280E+03  0.16412545905E+03  0.61323910129E+03  0.00000000000E+00 0.  1.
<mgrwt>
<rscale>  0 0.27896326E+04</rscale>
<asrwt>0</asrwt>
<pdfrwt beam="1">  1        1 0.29261602E+00 0.27896326E+04</pdfrwt>
<pdfrwt beam="2">  1       -1 0.15736539E+00 0.27896326E+04</pdfrwt>
<totfact> 0.92104822E-01</totfact>
</mgrwt>
</event>
<event>
12    1  0.4672461E-008  0.3188175E+04  0.7818608E-02  0.8191947E-01
         -1   -1    0    0    0  501 -0.00000000000E+00  0.00000000000E+00  0.17009196842E+04  0.17009196842E+04  0.00000000000E+00 0.  1.
          1   -1    0    0  501    0  0.00000000000E+00 -0.00000000000E+00 -0.14939650790E+04  0.14939650790E+04  0.00000000000E+00 0. -1.
         23    2    1    2    0    0  0.65669654257E+03 -0.10414050742E+04 -0.69425285877E+03  0.14163336132E+04  0.90768906639E+02 0.  0.
        254    2    1    2    0    0 -0.65669654257E+03  0.10414050742E+04  0.90120746394E+03  0.17785511500E+04  0.91394443073E+03 0.  0.
         23    2    4    4    0    0 -0.55773761806E+03  0.19355041323E+03  0.65306010690E+03  0.88497853825E+03  0.90368672007E+02 0.  0.
         23    2    4    4    0    0 -0.98958924507E+02  0.84785466092E+03  0.24814735704E+03  0.89357261171E+03  0.90799266531E+02 0.  0.
         11    1    3    3    0    0  0.85934299459E+02 -0.13504917453E+03 -0.56522028381E+02  0.16975783651E+03  0.00000000000E+00 0.  1.
        -11    1    3    3    0    0  0.57076224311E+03 -0.90635589962E+03 -0.63773083039E+03  0.12465757767E+04  0.00000000000E+00 0. -1.
          2    1    6    6  502    0 -0.82742175145E+02  0.35885155442E+03  0.86502480261E+02  0.37829008016E+03  0.00000000000E+00 0. -1.
          2    1    5    5  503    0 -0.42624357783E+03  0.10814596909E+03  0.49990286959E+03  0.66579427551E+03  0.00000000000E+00 0. -1.
         -2    1    5    5    0  503 -0.13149404023E+03  0.85404444142E+02  0.15315723732E+03  0.21918426275E+03  0.00000000000E+00 0.  1.
         -2    1    6    6    0  502 -0.16216749362E+02  0.48900310650E+03  0.16164487678E+03  0.51528253154E+03  0.00000000000E+00 0.  1.
<mgrwt>
<rscale>  0 0.31881748E+04</rscale>
<asrwt>0</asrwt>
<pdfrwt beam="1">  1        1 0.22984078E+00 0.31881748E+04</pdfrwt>
<pdfrwt beam="2">  1       -1 0.26167995E+00 0.31881748E+04</pdfrwt>
<totfact> 0.32366362E-01</totfact>
</mgrwt>
</event>
<event>
12    1  0.4672461E-008  0.1662967E+04  0.7818608E-02  0.8782772E-01
         -1   -1    0    0    0  501 -0.00000000000E+00  0.00000000000E+00  0.82138393395E+03  0.82138393395E+03  0.00000000000E+00 0.  1.
          1   -1    0    0  501    0  0.00000000000E+00 -0.00000000000E+00 -0.84170722251E+03  0.84170722251E+03  0.00000000000E+00 0. -1.
         23    2    1    2    0    0  0.32820456103E+02 -0.19709188319E+03 -0.54413290792E+03  0.58677288267E+03  0.91101051581E+02 0.  0.
        254    2    1    2    0    0 -0.32820456103E+02  0.19709188319E+03  0.52380961937E+03  0.10763182738E+04  0.91878295390E+03 0.  0.
         23    2    4    4    0    0  0.78187026187E+02  0.39923572153E+03  0.67017651888E+03  0.78932466346E+03  0.91621424757E+02 0.  0.
         23    2    4    4    0    0 -0.11100748229E+03 -0.20214383834E+03 -0.14636689952E+03  0.28699361032E+03  0.88075368788E+02 0.  0.
         13    1    3    3    0    0 -0.15032558231E+02 -0.15355891698E+03 -0.40271772250E+03  0.43126312480E+03  0.00000000000E+00 0. -1.
        -13    1    3    3    0    0  0.47853014334E+02 -0.43532966207E+02 -0.14141518542E+03  0.15550975788E+03  0.00000000000E+00 0.  1.
          4    1    5    5  502    0 -0.96097659544E+01  0.16187088935E+03  0.22686679791E+03  0.27886031703E+03  0.00000000000E+00 0. -1.
          3    1    6    6  503    0 -0.11199132616E+03 -0.18851804254E+03 -0.10439962286E+03  0.24285878768E+03  0.00000000000E+00 0.  1.
         -4    1    5    5    0  502  0.87796792141E+02  0.23736483218E+03  0.44330972098E+03  0.51046434643E+03  0.00000000000E+00 0.  1.
         -3    1    6    6    0  503  0.98384387008E+00 -0.13625795801E+02 -0.41967276655E+02  0.44134822643E+02  0.00000000000E+00 0. -1.
<mgrwt>
<rscale>  0 0.16629670E+04</rscale>
<asrwt>0</asrwt>
<pdfrwt beam="1">  1        1 0.12949342E+00 0.16629670E+04</pdfrwt>
<pdfrwt beam="2">  1       -1 0.12636676E+00 0.16629670E+04</pdfrwt>
<totfact> 0.10584245E+01</totfact>
</mgrwt>
</event>
<event>
12    1  0.4672461E-008  0.1565463E+04  0.7818608E-02  0.8842051E-01
          1   -1    0    0  501    0  0.00000000000E+00  0.00000000000E+00  0.11301696765E+04  0.11301696765E+04  0.00000000000E+00 0. -1.
         -1   -1    0    0    0  501 -0.00000000000E+00 -0.00000000000E+00 -0.54210329979E+03  0.54210329979E+03  0.00000000000E+00 0.  1.
         23    2    1    2    0    0  0.40020777553E+03 -0.27692039743E+03  0.43158630554E+03  0.65676810249E+03  0.90699675886E+02 0.  0.
        254    2    1    2    0    0 -0.40020777553E+03  0.27692039743E+03  0.15648007115E+03  0.10155048738E+04  0.87744684507E+03 0.  0.
         23    2    4    4    0    0  0.10254758853E+03 -0.13360057034E+03 -0.19281827509E+03  0.27277013220E+03  0.94125116195E+02 0.  0.
         23    2    4    4    0    0 -0.50275536406E+03  0.41052096776E+03  0.34929834624E+03  0.74273474160E+03  0.91406458295E+02 0.  0.
         11    1    3    3    0    0  0.38073322320E+03 -0.23194314413E+03  0.38281972834E+03  0.58762773400E+03  0.00000000000E+00 0. -1.
        -11    1    3    3    0    0  0.19474552327E+02 -0.44977253294E+02  0.48766577204E+02  0.69140368486E+02  0.00000000000E+00 0.  1.
          2    1    5    5  502    0  0.10483412804E+03 -0.12176139063E+03 -0.20164200757E+03  0.25782848925E+03  0.00000000000E+00 0. -1.
          4    1    6    6  503    0 -0.31004250944E+03  0.22389711954E+03  0.24889740897E+03  0.45629617354E+03  0.00000000000E+00 0. -1.
         -2    1    5    5    0  502 -0.22865395098E+01 -0.11839179705E+02  0.88237324784E+01  0.14941642944E+02  0.00000000000E+00 0.  1.
         -4    1    6    6    0  503 -0.19271285462E+03  0.18662384823E+03  0.10040093727E+03  0.28643856806E+03  0.00000000000E+00 0.  1.
<mgrwt>
<rscale>  0 0.15654631E+04</rscale>
<asrwt>0</asrwt>
<pdfrwt beam="1">  1        1 0.17387226E+00 0.15654631E+04</pdfrwt>
<pdfrwt beam="2">  1       -1 0.83400508E-01 0.15654631E+04</pdfrwt>
<totfact> 0.16522624E+01</totfact>
</mgrwt>
</event>
<event>
12    1  0.4672461E-008  0.1383037E+04  0.7818608E-02  0.8966189E-01
         -2   -1    0    0    0  501 -0.00000000000E+00  0.00000000000E+00  0.17757015467E+03  0.17757015467E+03  0.00000000000E+00 0.  1.
          2   -1    0    0  501    0  0.00000000000E+00 -0.00000000000E+00 -0.26930083051E+04  0.26930083051E+04  0.00000000000E+00 0. -1.
         23    2    1    2    0    0 -0.38101055284E+03 -0.68326444567E+02 -0.55577247118E+03  0.68211458308E+03  0.80992100443E+02 0.  0.
        254    2    1    2    0    0  0.38101055284E+03  0.68326444567E+02 -0.19596656793E+04  0.21884638767E+04  0.89400616372E+03 0.  0.
         23    2    4    4    0    0  0.19466834986E+03  0.97910835890E+02 -0.19652146486E+04  0.19793548325E+04  0.91074912845E+02 0.  0.
         23    2    4    4    0    0  0.18634220298E+03 -0.29584391323E+02  0.55489693396E+01  0.20910904418E+03  0.89984156807E+02 0.  0.
         11    1    3    3    0    0 -0.17093000931E+03 -0.88239623013E+01 -0.30383888061E+03  0.34873054894E+03  0.00000000000E+00 0. -1.
        -11    1    3    3    0    0 -0.21008054353E+03 -0.59502482266E+02 -0.25193359056E+03  0.33338403414E+03  0.00000000000E+00 0.  1.
          2    1    5    5  502    0  0.23690692724E+02  0.18807535762E+02 -0.95565937912E+02  0.10023881889E+03  0.00000000000E+00 0. -1.
          1    1    6    6  503    0  0.16208566219E+02 -0.34346592416E+02  0.83483875414E+01  0.38885750655E+02  0.00000000000E+00 0. -1.
         -2    1    5    5    0  502  0.17097765714E+03  0.79103300128E+02 -0.18696487107E+04  0.18791160136E+04  0.00000000000E+00 0.  1.
         -1    1    6    6    0  503  0.17013363676E+03  0.47622010931E+01 -0.27994182018E+01  0.17022329352E+03  0.00000000000E+00 0.  1.
<mgrwt>
<rscale>  0 0.13830371E+04</rscale>
<asrwt>0</asrwt>
<pdfrwt beam="1">  1        2 0.41430894E+00 0.13830371E+04</pdfrwt>
<pdfrwt beam="2">  1       -2 0.27318487E-01 0.13830371E+04</pdfrwt>
<totfact> 0.32056074E+01</totfact>
</mgrwt>
</event>
<event>
12    1  0.4672461E-008  0.3266166E+04  0.7818608E-02  0.8171558E-01
          1   -1    0    0  501    0  0.00000000000E+00  0.00000000000E+00  0.64805309972E+03  0.64805309972E+03  0.00000000000E+00 0. -1.
         -1   -1    0    0    0  501 -0.00000000000E+00 -0.00000000000E+00 -0.41153419999E+04  0.41153419999E+04  0.00000000000E+00 0.  1.
         23    2    1    2    0    0  0.13883950275E+04  0.57966704465E+03 -0.15872394704E+04  0.21887366419E+04  0.87087978081E+02 0.  0.
        254    2    1    2    0    0 -0.13883950275E+04 -0.57966704465E+03 -0.18800494298E+04  0.25746584577E+04  0.91138668000E+03 0.  0.
         23    2    4    4    0    0 -0.14110984454E+03 -0.36800582934E+03 -0.84716217832E+03  0.93890840426E+03  0.92330691335E+02 0.  0.
         23    2    4    4    0    0 -0.12472851830E+04 -0.21166121532E+03 -0.10328872514E+04  0.16357500535E+04  0.91111829370E+02 0.  0.
         11    1    3    3    0    0  0.81768908112E+03  0.35320530018E+03 -0.87899700184E+03  0.12514012733E+04  0.00000000000E+00 0.  1.
        -11    1    3    3    0    0  0.57070594642E+03  0.22646174447E+03 -0.70824246860E+03  0.93733536864E+03  0.00000000000E+00 0. -1.
          1    1    5    5  502    0 -0.10391893956E+02 -0.21469788027E+02 -0.12558482982E+03  0.12782993678E+03  0.00000000000E+00 0. -1.
          3    1    6    6  503    0 -0.17057022160E+03 -0.21575457124E+02 -0.18144967283E+03  0.24996736710E+03  0.00000000000E+00 0. -1.
         -1    1    5    5    0  502 -0.13071795059E+03 -0.34653604131E+03 -0.72157734850E+03  0.81107846748E+03  0.00000000000E+00 0.  1.
         -3    1    6    6    0  503 -0.10767149614E+04 -0.19008575819E+03 -0.85143757860E+03  0.13857826864E+04  0.00000000000E+00 0.  1.
<mgrwt>
<rscale>  0 0.32661660E+04</rscale>
<asrwt>0</asrwt>
<pdfrwt beam="1">  1        1 0.99700477E-01 0.32661660E+04</pdfrwt>
<pdfrwt beam="2">  1       -1 0.63312954E+00 0.32661660E+04</pdfrwt>
<totfact> 0.84093555E-03</totfact>
</mgrwt>
</event>
<event>
12    1  0.4672461E-008  0.1373565E+04  0.7818608E-02  0.8973179E-01
         -2   -1    0    0    0  501 -0.00000000000E+00  0.00000000000E+00  0.53128086353E+03  0.53128086353E+03  0.00000000000E+00 0.  1.
          2   -1    0    0  501    0  0.00000000000E+00 -0.00000000000E+00 -0.88779820216E+03  0.88779820216E+03  0.00000000000E+00 0. -1.
         23    2    1    2    0    0  0.88901282410E+02 -0.12588524524E+03 -0.47474583895E+03  0.50749835879E+03  0.91762953262E+02 0.  0.
        254    2    1    2    0    0 -0.88901282410E+02  0.12588524524E+03  0.11822850032E+03  0.91158070691E+03  0.89064632371E+03 0.  0.
         23    2    4    4    0    0  0.29321971962E+02  0.39219919957E+03 -0.21755509801E+03  0.45828494371E+03  0.89525855339E+02 0.  0.
         23    2    4    4    0    0 -0.11822325437E+03 -0.26631395434E+03  0.33578359833E+03  0.45329576320E+03  0.88467869163E+02 0.  0.
         13    1    3    3    0    0  0.94802060600E+02 -0.11410680075E+03 -0.47098795325E+03  0.49379899228E+03  0.00000000000E+00 0. -1.
        -13    1    3    3    0    0 -0.59007781898E+01 -0.11778444486E+02 -0.37578856984E+01  0.13699366507E+02  0.00000000000E+00 0.  1.
          3    1    6    6  502    0 -0.12476916151E+03 -0.26517585507E+03  0.30970191547E+03  0.42638111382E+03  0.00000000000E+00 0. -1.
          3    1    5    5  503    0  0.54914232006E+02  0.28960073477E+03 -0.13536657874E+03  0.32435824191E+03  0.00000000000E+00 0. -1.
         -3    1    5    5    0  503 -0.25592260044E+02  0.10259846480E+03 -0.82188519276E+02  0.13392670180E+03  0.00000000000E+00 0.  1.
         -3    1    6    6    0  502  0.65459071417E+01 -0.11380992697E+01  0.26081682859E+02  0.26914649376E+02  0.00000000000E+00 0.  1.
<mgrwt>
<rscale>  0 0.13735650E+04</rscale>
<asrwt>0</asrwt>
<pdfrwt beam="1">  1        2 0.13658434E+00 0.13735650E+04</pdfrwt>
<pdfrwt beam="2">  1       -2 0.81735518E-01 0.13735650E+04</pdfrwt>
<totfact> 0.38394841E+01</totfact>
</mgrwt>
</event>
<event>
12    1  0.4672461E-008  0.1940059E+04  0.7818608E-02  0.8635170E-01
          2   -1    0    0  501    0  0.00000000000E+00  0.00000000000E+00  0.28307817119E+04  0.28307817119E+04  0.00000000000E+00 0. -1.
         -2   -1    0    0    0  501 -0.00000000000E+00 -0.00000000000E+00 -0.33240174008E+03  0.33240174008E+03  0.00000000000E+00 0.  1.
         23    2    1    2    0    0  0.75515681879E+01  0.30341059756E+03 -0.14952933437E+03  0.34950585282E+03  0.87637334668E+02 0.  0.
        254    2    1    2    0    0 -0.75515681879E+01 -0.30341059756E+03  0.26479093062E+04  0.28136775992E+04  0.90179982330E+03 0.  0.
         23    2    4    4    0    0  0.28835406818E+02  0.25616982077E+03  0.15828611306E+04  0.16062915599E+04  0.90932717356E+02 0.  0.
         23    2    4    4    0    0 -0.36386975006E+02 -0.55958041833E+03  0.10650481757E+04  0.12073860393E+04  0.94863980539E+02 0.  0.
         13    1    3    3    0    0  0.11500292382E+02  0.30858593839E+03 -0.14306207268E+03  0.34032968536E+03  0.00000000000E+00 0.  1.
        -13    1    3    3    0    0 -0.39487241942E+01 -0.51753408343E+01 -0.64672616924E+01  0.91761674631E+01  0.00000000000E+00 0. -1.
          4    1    5    5  502    0  0.61162645726E+02  0.14303724414E+03  0.92561544222E+03  0.93859707506E+03  0.00000000000E+00 0.  1.
          3    1    6    6  503    0 -0.28316800898E+02 -0.55975000937E+03  0.10533092338E+04  0.11931396633E+04  0.00000000000E+00 0. -1.
         -4    1    5    5    0  502 -0.32327238908E+02  0.11313257663E+03  0.65724568835E+03  0.66769448487E+03  0.00000000000E+00 0. -1.
         -3    1    6    6    0  503 -0.80701741078E+01  0.16959104344E+00  0.11738941887E+02  0.14246375956E+02  0.00000000000E+00 0.  1.
<mgrwt>
<rscale>  0 0.19400585E+04</rscale>
<asrwt>0</asrwt>
<pdfrwt beam="1">  1        2 0.43550486E+00 0.19400585E+04</pdfrwt>
<pdfrwt beam="2">  1       -2 0.51138731E-01 0.19400585E+04</pdfrwt>
<totfact> 0.74870954E+00</totfact>
</mgrwt>
</event>
<event>
12    1  0.4672461E-008  0.1674327E+04  0.7818608E-02  0.8776144E-01
         -2   -1    0    0    0  501 -0.00000000000E+00  0.00000000000E+00  0.17399216310E+03  0.17399216310E+03  0.00000000000E+00 0.  1.
          2   -1    0    0  501    0  0.00000000000E+00 -0.00000000000E+00 -0.40280122065E+04  0.40280122065E+04  0.00000000000E+00 0. -1.
         23    2    1    2    0    0  0.37700952892E+02 -0.58650522687E+03 -0.12160551157E+04  0.13535665140E+04  0.89120819002E+02 0.  0.
        254    2    1    2    0    0 -0.37700952892E+02  0.58650522687E+03 -0.26379649277E+04  0.28484378556E+04  0.89962743092E+03 0.  0.
         23    2    4    4    0    0 -0.11905325681E+03  0.46406664209E+03 -0.48241354143E+03  0.68596488228E+03  0.91068482486E+02 0.  0.
         23    2    4    4    0    0  0.81352303920E+02  0.12243858478E+03 -0.21555513863E+04  0.21624729734E+04  0.90984488243E+02 0.  0.
         13    1    3    3    0    0  0.17606426519E+02 -0.22251715056E+03 -0.36681952174E+03  0.42939542392E+03  0.00000000000E+00 0.  1.
        -13    1    3    3    0    0  0.20094526373E+02 -0.36398807631E+03 -0.84923559392E+03  0.92417109004E+03  0.00000000000E+00 0. -1.
          2    1    5    5  502    0 -0.12048033583E+03  0.38255316228E+03 -0.36035103886E+03  0.53918021523E+03  0.00000000000E+00 0.  1.
          3    1    6    6  503    0 -0.19027547768E+02  0.16070179544E+02 -0.43715114572E+03  0.43786004893E+03  0.00000000000E+00 0. -1.
         -2    1    5    5    0  502  0.14270790168E+01  0.81513479814E+02 -0.12206250257E+03  0.14678466704E+03  0.00000000000E+00 0. -1.
         -3    1    6    6    0  503  0.10037985169E+03  0.10636840524E+03 -0.17184002406E+04  0.17246129244E+04  0.00000000000E+00 0.  1.
<mgrwt>
<rscale>  0 0.16743268E+04</rscale>
<asrwt>0</asrwt>
<pdfrwt beam="1">  1        2 0.61969417E+00 0.16743268E+04</pdfrwt>
<pdfrwt beam="2">  1       -2 0.26768026E-01 0.16743268E+04</pdfrwt>
<totfact> 0.39927775E+00</totfact>
</mgrwt>
</event>
<event>
12    1  0.4672461E-008  0.1156798E+04  0.7818608E-02  0.9151535E-01
          2   -1    0    0  501    0  0.00000000000E+00  0.00000000000E+00  0.24400375522E+04  0.24400375522E+04  0.00000000000E+00 0. -1.
         -2   -1    0    0    0  501 -0.00000000000E+00 -0.00000000000E+00 -0.13710658618E+03  0.13710658618E+03  0.00000000000E+00 0.  1.
         23    2    1    2    0    0  0.56251312728E+02 -0.29247995760E+02  0.91282091653E+03  0.91950193574E+03  0.90675954520E+02 0.  0.
        254    2    1    2    0    0 -0.56251312728E+02  0.29247995760E+02  0.13901100495E+04  0.16576422026E+04  0.90075083504E+03 0.  0.
         23    2    4    4    0    0 -0.13623872286E+02  0.27304580317E+03  0.13620281604E+04  0.13922777624E+04  0.92612297149E+02 0.  0.
         23    2    4    4    0    0 -0.42627440442E+02 -0.24379780741E+03  0.28081889116E+02  0.26536444020E+03  0.91516250196E+02 0.  0.
         11    1    3    3    0    0  0.21067475294E+02 -0.33382742783E+02  0.12955713172E+03  0.13543742618E+03  0.00000000000E+00 0.  1.
        -11    1    3    3    0    0  0.35183837435E+02  0.41347470226E+01  0.78326378481E+03  0.78406450956E+03  0.00000000000E+00 0. -1.
          2    1    5    5  502    0  0.30784755150E+02  0.53266620954E+02  0.38235686982E+03  0.38727485066E+03  0.00000000000E+00 0. -1.
          1    1    6    6  503    0 -0.38894660829E+02 -0.44440763922E+02 -0.15939871563E+02  0.61170709039E+02  0.00000000000E+00 0. -1.
         -2    1    5    5    0  502 -0.44408627436E+02  0.21977918222E+03  0.97967129056E+03  0.10050029118E+04  0.00000000000E+00 0.  1.
         -1    1    6    6    0  503 -0.37327796132E+01 -0.19935704349E+03  0.44021760679E+02  0.20419373116E+03  0.00000000000E+00 0.  1.
<mgrwt>
<rscale>  0 0.11567977E+04</rscale>
<asrwt>0</asrwt>
<pdfrwt beam="1">  1        2 0.37539036E+00 0.11567977E+04</pdfrwt>
<pdfrwt beam="2">  1       -2 0.21093323E-01 0.11567977E+04</pdfrwt>
<totfact> 0.73060503E+01</totfact>
</mgrwt>
</event>
<event>
12    1  0.4672461E-008  0.1776831E+04  0.7818608E-02  0.8718718E-01
         -1   -1    0    0    0  501 -0.00000000000E+00  0.00000000000E+00  0.12587684486E+04  0.12587684486E+04  0.00000000000E+00 0.  1.
          1   -1    0    0  501    0  0.00000000000E+00 -0.00000000000E+00 -0.62702749842E+03  0.62702749842E+03  0.00000000000E+00 0. -1.
         23    2    1    2    0    0  0.27057741496E+03 -0.15007680571E+03 -0.37948635074E+03  0.49833339958E+03  0.92688195805E+02 0.  0.
        254    2    1    2    0    0 -0.27057741496E+03  0.15007680571E+03  0.10112273009E+04  0.13874625474E+04  0.89818510416E+03 0.  0.
         23    2    4    4    0    0  0.16540838635E+03  0.27816140264E+03  0.81985379825E+03  0.88621148363E+03  0.92069772551E+02 0.  0.
         23    2    4    4    0    0 -0.43598580131E+03 -0.12808459693E+03  0.19137350263E+03  0.50125106378E+03  0.90219335612E+02 0.  0.
         11    1    3    3    0    0  0.19355497771E+02 -0.10610410636E+02  0.32723146185E+00  0.22075397805E+02  0.00000000000E+00 0.  1.
        -11    1    3    3    0    0  0.25122191719E+03 -0.13946639508E+03 -0.37981358220E+03  0.47625800177E+03  0.00000000000E+00 0. -1.
          2    1    6    6  502    0 -0.17366266980E+03 -0.62481874932E+01  0.80128160118E+02  0.19135904675E+03  0.00000000000E+00 0. -1.
          2    1    5    5  503    0  0.22854649847E+02 -0.74536822771E+00  0.46003338035E+02  0.51373122387E+02  0.00000000000E+00 0. -1.
         -2    1    5    5    0  503  0.14255373651E+03  0.27890677086E+03  0.77385046022E+03  0.83483836125E+03  0.00000000000E+00 0.  1.
         -2    1    6    6    0  502 -0.26232313151E+03 -0.12183640943E+03  0.11124534251E+03  0.30989201703E+03  0.00000000000E+00 0.  1.
<mgrwt>
<rscale>  0 0.17768314E+04</rscale>
<asrwt>0</asrwt>
<pdfrwt beam="1">  1        1 0.96465769E-01 0.17768314E+04</pdfrwt>
<pdfrwt beam="2">  1       -1 0.19365668E+00 0.17768314E+04</pdfrwt>
<totfact> 0.50574443E+00</totfact>
</mgrwt>
</event>
<event>
12    1  0.4672461E-008  0.1077096E+04  0.7818608E-02  0.9227807E-01
          2   -1    0    0  501    0  0.00000000000E+00  0.00000000000E+00  0.18234528210E+04  0.18234528210E+04  0.00000000000E+00 0. -1.
         -2   -1    0    0    0  501 -0.00000000000E+00 -0.00000000000E+00 -0.15905762389E+03  0.15905762389E+03  0.00000000000E+00 0.  1.
         23    2    1    2    0    0  0.40437273413E+02 -0.24447561208E+02  0.14795749070E+02  0.10245498720E+03  0.89695339243E+02 0.  0.
        254    2    1    2    0    0 -0.40437273413E+02  0.24447561208E+02  0.16495994480E+04  0.18800554577E+04  0.90066493698E+03 0.  0.
         23    2    4    4    0    0 -0.21139499725E+03  0.70693245511E+02  0.23919652155E+02  0.24216883747E+03  0.91587205757E+02 0.  0.
         23    2    4    4    0    0  0.17095772384E+03 -0.46245684304E+02  0.16256797959E+04  0.16378866202E+04  0.92046593111E+02 0.  0.
         13    1    3    3    0    0  0.57398291038E+02  0.17956363906E+01  0.33058813400E+02  0.66262155621E+02  0.00000000000E+00 0. -1.
        -13    1    3    3    0    0 -0.16961017626E+02 -0.26243197598E+02 -0.18263064330E+02  0.36192831580E+02  0.00000000000E+00 0.  1.
          2    1    5    5  502    0 -0.85998749315E+02  0.63239351848E+02  0.43053122235E+02  0.11510244064E+03  0.00000000000E+00 0.  1.
          3    1    6    6  503    0  0.37478573711E+02 -0.10365871639E+02  0.78147250685E+03  0.78243937384E+03  0.00000000000E+00 0. -1.
         -2    1    5    5    0  502 -0.12539624794E+03  0.74538936635E+01 -0.19133470080E+02  0.12706639684E+03  0.00000000000E+00 0. -1.
         -3    1    6    6    0  503  0.13347915013E+03 -0.35879812665E+02  0.84420728904E+03  0.85544724638E+03  0.00000000000E+00 0.  1.
<mgrwt>
<rscale>  0 0.10770962E+04</rscale>
<asrwt>0</asrwt>
<pdfrwt beam="1">  1        2 0.28053119E+00 0.10770962E+04</pdfrwt>
<pdfrwt beam="2">  1       -2 0.24470405E-01 0.10770962E+04</pdfrwt>
<totfact> 0.12426895E+02</totfact>
</mgrwt>
</event>
<event>
12    1  0.4672461E-008  0.1515668E+04  0.7818608E-02  0.8874100E-01
         -1   -1    0    0    0  501 -0.00000000000E+00  0.00000000000E+00  0.12548685355E+04  0.12548685355E+04  0.00000000000E+00 0.  1.
          1   -1    0    0  501    0  0.00000000000E+00 -0.00000000000E+00 -0.45766733864E+03  0.45766733864E+03  0.00000000000E+00 0. -1.
         23    2    1    2    0    0 -0.29943657542E+03  0.38301644830E+03  0.27850094829E+03  0.56756527526E+03  0.90574285038E+02 0.  0.
        254    2    1    2    0    0  0.29943657542E+03 -0.38301644830E+03  0.51870024859E+03  0.11449705989E+04  0.89752095356E+03 0.  0.
         23    2    4    4    0    0  0.19007027005E+03 -0.26755911202E+03  0.76591936936E+03  0.83812958369E+03  0.90078480855E+02 0.  0.
         23    2    4    4    0    0  0.10936630537E+03 -0.11545733629E+03 -0.24721912077E+03  0.30684101521E+03  0.87992782023E+02 0.  0.
         11    1    3    3    0    0 -0.10775476735E+03  0.14201017039E+03  0.53283830064E+02  0.18605683252E+03  0.00000000000E+00 0. -1.
        -11    1    3    3    0    0 -0.19168180807E+03  0.24100627791E+03  0.22521711822E+03  0.38150844273E+03  0.00000000000E+00 0.  1.
          2    1    5    5  502    0  0.16586530464E+03 -0.16132985696E+03  0.52094986927E+03  0.57002402434E+03  0.00000000000E+00 0. -1.
          3    1    6    6  503    0  0.24213698028E+02 -0.75710673538E+02 -0.15987556009E+03  0.17854580357E+03  0.00000000000E+00 0. -1.
         -2    1    5    5    0  502  0.24204965411E+02 -0.10622925506E+03  0.24496950009E+03  0.26810555935E+03  0.00000000000E+00 0.  1.
         -3    1    6    6    0  503  0.85152607340E+02 -0.39746662751E+02 -0.87343560683E+02  0.12829521164E+03  0.00000000000E+00 0.  1.
<mgrwt>
<rscale>  0 0.15156680E+04</rscale>
<asrwt>0</asrwt>
<pdfrwt beam="1">  1        1 0.70410360E-01 0.15156680E+04</pdfrwt>
<pdfrwt beam="2">  1       -1 0.19305670E+00 0.15156680E+04</pdfrwt>
<totfact> 0.81300853E+00</totfact>
</mgrwt>
</event>
<event>
12    1  0.4672461E-008  0.1477529E+04  0.7818608E-02  0.8899535E-01
          2   -1    0    0  501    0  0.00000000000E+00  0.00000000000E+00  0.72770182577E+03  0.72770182577E+03  0.00000000000E+00 0. -1.
         -2   -1    0    0    0  501 -0.00000000000E+00 -0.00000000000E+00 -0.74999562662E+03  0.74999562662E+03  0.00000000000E+00 0.  1.
         23    2    1    2    0    0  0.34211844217E+03  0.11271606023E+03 -0.28401200742E+03  0.46766077783E+03  0.91070544385E+02 0.  0.
        254    2    1    2    0    0 -0.34211844217E+03 -0.11271606023E+03  0.26171820657E+03  0.10100366746E+04  0.90660229737E+03 0.  0.
         23    2    4    4    0    0 -0.41754956661E+03 -0.18673709275E+03  0.53162967541E+03  0.70706765835E+03  0.89978771502E+02 0.  0.
         23    2    4    4    0    0  0.75431124442E+02  0.74021032520E+02 -0.26991146885E+03  0.30296901620E+03  0.88142248521E+02 0.  0.
         13    1    3    3    0    0 -0.24620145804E+01 -0.58758271612E+01 -0.14578959733E+01  0.65354664172E+01  0.00000000000E+00 0. -1.
        -13    1    3    3    0    0  0.34458045675E+03  0.11859188740E+03 -0.28255411145E+03  0.46112531141E+03  0.00000000000E+00 0.  1.
          4    1    5    5  502    0 -0.22793784088E+03 -0.84757114490E+02  0.21762966116E+03  0.32634659057E+03  0.00000000000E+00 0. -1.
          3    1    6    6  503    0  0.90083597102E+02  0.63836654000E+02 -0.17891731718E+03  0.21024171624E+03  0.00000000000E+00 0. -1.
         -4    1    5    5    0  502 -0.18961172574E+03 -0.10197997826E+03  0.31400001425E+03  0.38072106778E+03  0.00000000000E+00 0.  1.
         -3    1    6    6    0  503 -0.14652472660E+02  0.10184378520E+02 -0.90994151666E+02  0.92727299962E+02  0.00000000000E+00 0.  1.
<mgrwt>
<rscale>  0 0.14775293E+04</rscale>
<asrwt>0</asrwt>
<pdfrwt beam="1">  1        2 0.11195413E+00 0.14775293E+04</pdfrwt>
<pdfrwt beam="2">  1       -2 0.11538394E+00 0.14775293E+04</pdfrwt>
<totfact> 0.22070214E+01</totfact>
</mgrwt>
</event>
<event>
12    1  0.4672461E-008  0.2224113E+04  0.7818608E-02  0.8508458E-01
         -2   -1    0    0    0  501 -0.00000000000E+00  0.00000000000E+00  0.20886019787E+04  0.20886019787E+04  0.00000000000E+00 0.  1.
          2   -1    0    0  501    0  0.00000000000E+00 -0.00000000000E+00 -0.59210382503E+03  0.59210382503E+03  0.00000000000E+00 0. -1.
         23    2    1    2    0    0  0.53167096362E+03  0.64539742600E+03  0.11123720687E+04  0.13945762694E+04  0.90881796805E+02 0.  0.
        254    2    1    2    0    0 -0.53167096362E+03 -0.64539742600E+03  0.38412608498E+03  0.12861295343E+04  0.89853462864E+03 0.  0.
         23    2    4    4    0    0 -0.64846058971E+03 -0.18128767559E+03  0.24626158176E+02  0.67979219940E+03  0.90247598136E+02 0.  0.
         23    2    4    4    0    0  0.11678962609E+03 -0.46410975040E+03  0.35949992680E+03  0.60633733492E+03  0.96783723666E+02 0.  0.
         11    1    3    3    0    0  0.48450627894E+03  0.53951975936E+03  0.95300646359E+03  0.11975179434E+04  0.00000000000E+00 0.  1.
        -11    1    3    3    0    0  0.47164684681E+02  0.10587766663E+03  0.15936560513E+03  0.19705832606E+03  0.00000000000E+00 0. -1.
          1    1    5    5  502    0 -0.30424245408E+02 -0.53335165162E+01 -0.18060220813E+02  0.35780618817E+02  0.00000000000E+00 0. -1.
          1    1    6    6  503    0  0.63401156680E+02 -0.37006946745E+03  0.24222642732E+03  0.44681624803E+03  0.00000000000E+00 0. -1.
         -1    1    5    5    0  502 -0.61803634430E+03 -0.17595415908E+03  0.42686378989E+02  0.64401158058E+03  0.00000000000E+00 0.  1.
         -1    1    6    6    0  503  0.53388469412E+02 -0.94040282955E+02  0.11727349948E+03  0.15952108690E+03  0.00000000000E+00 0.  1.
<mgrwt>
<rscale>  0 0.22241126E+04</rscale>
<asrwt>0</asrwt>
<pdfrwt beam="1">  1        2 0.91092897E-01 0.22241126E+04</pdfrwt>
<pdfrwt beam="2">  1       -2 0.32132338E+00 0.22241126E+04</pdfrwt>
<totfact> 0.10812255E+00</totfact>
</mgrwt>
</event>
<event>
12    1  0.4672461E-008  0.1868242E+04  0.7818608E-02  0.8670828E-01
          2   -1    0    0  501    0  0.00000000000E+00  0.00000000000E+00  0.90428362923E+03  0.90428362923E+03  0.00000000000E+00 0. -1.
         -2   -1    0    0    0  501 -0.00000000000E+00 -0.00000000000E+00 -0.96494308342E+03  0.96494308342E+03  0.00000000000E+00 0.  1.
         23    2    1    2    0    0 -0.55697333462E+03  0.34639718980E+02  0.41832420625E+03  0.70326008713E+03  0.90334948924E+02 0.  0.
        254    2    1    2    0    0  0.55697333462E+03 -0.34639718980E+02 -0.47898366043E+03  0.11659666255E+04  0.90478374170E+03 0.  0.
         23    2    4    4    0    0 -0.37540763537E+02 -0.16228555808E+03  0.18340380620E+03  0.26229029555E+03  0.86100706839E+02 0.  0.
         23    2    4    4    0    0  0.59451409816E+03  0.12764583910E+03 -0.66238746664E+03  0.90367632997E+03  0.90184700677E+02 0.  0.
         11    1    3    3    0    0 -0.46618558491E+03  0.29046164565E+02  0.38848623699E+03  0.60753126305E+03  0.00000000000E+00 0. -1.
        -11    1    3    3    0    0 -0.90787749719E+02  0.55935544145E+01  0.29837969260E+02  0.95728824080E+02  0.00000000000E+00 0.  1.
          2    1    5    5  502    0  0.82618267497E+01 -0.13024562549E+03  0.14101242225E+03  0.19213714885E+03  0.00000000000E+00 0.  1.
          1    1    6    6  503    0  0.45808846417E+03  0.66009009522E+02 -0.46649044727E+03  0.65712675165E+03  0.00000000000E+00 0. -1.
         -2    1    5    5    0  502 -0.45802590286E+02 -0.32039932594E+02  0.42391383959E+02  0.70153146697E+02  0.00000000000E+00 0. -1.
         -1    1    6    6    0  503  0.13642563399E+03  0.61636829582E+02 -0.19589701937E+03  0.24654957832E+03  0.00000000000E+00 0.  1.
<mgrwt>
<rscale>  0 0.18682422E+04</rscale>
<asrwt>0</asrwt>
<pdfrwt beam="1">  1        2 0.13912056E+00 0.18682422E+04</pdfrwt>
<pdfrwt beam="2">  1       -2 0.14845278E+00 0.18682422E+04</pdfrwt>
<totfact> 0.84203631E+00</totfact>
</mgrwt>
</event>
<event>
12    1  0.4672461E-008  0.2492396E+04  0.7818608E-02  0.8405699E-01
          2   -1    0    0  501    0  0.00000000000E+00  0.00000000000E+00  0.20634765740E+04  0.20634765740E+04  0.00000000000E+00 0. -1.
         -2   -1    0    0    0  501 -0.00000000000E+00 -0.00000000000E+00 -0.75261806000E+03  0.75261806000E+03  0.00000000000E+00 0.  1.
         23    2    1    2    0    0 -0.49852033608E+03  0.19258084105E+03 -0.49134919659E+03  0.73169467910E+03  0.91340925134E+02 0.  0.
        254    2    1    2    0    0  0.49852033608E+03 -0.19258084105E+03  0.18022077106E+04  0.20843999549E+04  0.90064456587E+03 0.  0.
         23    2    4    4    0    0  0.74419182625E+03 -0.13906673461E+03  0.11467401570E+04  0.13769492577E+04  0.88403845409E+02 0.  0.
         23    2    4    4    0    0 -0.24567149017E+03 -0.53514106440E+02  0.65546755360E+03  0.70745069713E+03  0.87352929925E+02 0.  0.
         13    1    3    3    0    0 -0.25978492377E+03  0.10941648047E+03 -0.31914998172E+03  0.42581320277E+03  0.00000000000E+00 0. -1.
        -13    1    3    3    0    0 -0.23873541231E+03  0.83164360584E+02 -0.17219921487E+03  0.30588147633E+03  0.00000000000E+00 0.  1.
          4    1    5    5  502    0  0.10196627026E+03 -0.14857175465E+02  0.10691779205E+03  0.14848996663E+03  0.00000000000E+00 0. -1.
          3    1    6    6  503    0 -0.24219552937E+01 -0.11123909057E+01 -0.27138657830E+01  0.38037282316E+01  0.00000000000E+00 0. -1.
         -4    1    5    5    0  502  0.64222555599E+03 -0.12420955915E+03  0.10398223649E+04  0.12284592911E+04  0.00000000000E+00 0.  1.
         -3    1    6    6    0  503 -0.24324953488E+03 -0.52401715534E+02  0.65818141939E+03  0.70364696889E+03  0.00000000000E+00 0.  1.
<mgrwt>
<rscale>  0 0.24923962E+04</rscale>
<asrwt>0</asrwt>
<pdfrwt beam="1">  1        2 0.31745793E+00 0.24923962E+04</pdfrwt>
<pdfrwt beam="2">  1       -2 0.11578739E+00 0.24923962E+04</pdfrwt>
<totfact> 0.31870090E+00</totfact>
</mgrwt>
</event>
<event>
12    1  0.4672461E-008  0.1072591E+04  0.7818608E-02  0.9232326E-01
          1   -1    0    0  501    0  0.00000000000E+00  0.00000000000E+00  0.23947150729E+04  0.23947150729E+04  0.00000000000E+00 0. -1.
         -1   -1    0    0    0  501 -0.00000000000E+00 -0.00000000000E+00 -0.12010319937E+03  0.12010319937E+03  0.00000000000E+00 0.  1.
         23    2    1    2    0    0 -0.40125383426E+02  0.58371458334E+02  0.61114603117E+03  0.62195106749E+03  0.91139373489E+02 0.  0.
        254    2    1    2    0    0  0.40125383426E+02 -0.58371458334E+02  0.16634658424E+04  0.18928672048E+04  0.90045009449E+03 0.  0.
         23    2    4    4    0    0 -0.16808816073E+02 -0.22955186422E+03  0.32930331259E+02  0.24991800482E+03  0.91640644655E+02 0.  0.
         23    2    4    4    0    0  0.56934199500E+02  0.17118040588E+03  0.16305355111E+04  0.16429492000E+04  0.89954356454E+02 0.  0.
         13    1    3    3    0    0 -0.47425205573E+02  0.20447184483E+02  0.52512056567E+03  0.52765409689E+03  0.00000000000E+00 0. -1.
        -13    1    3    3    0    0  0.72998221466E+01  0.37924273851E+02  0.86025465502E+02  0.94296970605E+02  0.00000000000E+00 0.  1.
          4    1    5    5  502    0  0.16181871043E+02 -0.15899736858E+03 -0.11531619238E+02  0.16023418614E+03  0.00000000000E+00 0. -1.
          4    1    6    6  503    0  0.66813623334E+02  0.17459078900E+03  0.15947347591E+04  0.16056540586E+04  0.00000000000E+00 0. -1.
         -4    1    5    5    0  502 -0.32990687117E+02 -0.70554495642E+02  0.44461950497E+02  0.89683818684E+02  0.00000000000E+00 0.  1.
         -4    1    6    6    0  503 -0.98794238345E+01 -0.34103831201E+01  0.35800751962E+02  0.37295141364E+02  0.00000000000E+00 0.  1.
<mgrwt>
<rscale>  0 0.10725911E+04</rscale>
<asrwt>0</asrwt>
<pdfrwt beam="1">  1        1 0.36841767E+00 0.10725911E+04</pdfrwt>
<pdfrwt beam="2">  1       -1 0.18477417E-01 0.10725911E+04</pdfrwt>
<totfact> 0.37642355E+01</totfact>
</mgrwt>
</event>
<event>
12    1  0.4672461E-008  0.2209535E+04  0.7818608E-02  0.8514470E-01
          1   -1    0    0  501    0  0.00000000000E+00  0.00000000000E+00  0.14171350801E+04  0.14171350801E+04  0.00000000000E+00 0. -1.
         -1   -1    0    0    0  501 -0.00000000000E+00 -0.00000000000E+00 -0.86125253900E+03  0.86125253900E+03  0.00000000000E+00 0.  1.
         23    2    1    2    0    0  0.90091564419E+03  0.83106617970E+02  0.39912171905E+03  0.99350660109E+03  0.95924511491E+02 0.  0.
        254    2    1    2    0    0 -0.90091564419E+03 -0.83106617970E+02  0.15676082200E+03  0.12848810180E+04  0.89877114279E+03 0.  0.
         23    2    4    4    0    0 -0.88874525317E+03 -0.21244370429E+03 -0.15812914814E+03  0.93186790196E+03  0.91501402575E+02 0.  0.
         23    2    4    4    0    0 -0.12170391016E+02  0.12933708632E+03  0.31488997014E+03  0.35301311601E+03  0.92662648693E+02 0.  0.
         13    1    3    3    0    0  0.70684316701E+03  0.66589711173E+02  0.26879549338E+03  0.75915246798E+03  0.00000000000E+00 0.  1.
        -13    1    3    3    0    0  0.19407247718E+03  0.16516906797E+02  0.13032622567E+03  0.23435413311E+03  0.00000000000E+00 0. -1.
          4    1    5    5  502    0 -0.84928272916E+03 -0.18505041371E+03 -0.15991085406E+03  0.88379652121E+03  0.00000000000E+00 0. -1.
          3    1    6    6  503    0  0.14028294380E+02  0.12930101971E+03  0.28495376014E+03  0.31323185048E+03  0.00000000000E+00 0. -1.
         -4    1    5    5    0  502 -0.39462524016E+02 -0.27393290582E+02  0.17817059246E+01  0.48071380744E+02  0.00000000000E+00 0.  1.
         -3    1    6    6    0  503 -0.26198685396E+02  0.36066611001E-01  0.29936210001E+02  0.39781265521E+02  0.00000000000E+00 0.  1.
<mgrwt>
<rscale>  0 0.22095350E+04</rscale>
<asrwt>0</asrwt>
<pdfrwt beam="1">  1        1 0.21802078E+00 0.22095350E+04</pdfrwt>
<pdfrwt beam="2">  1       -1 0.13250039E+00 0.22095350E+04</pdfrwt>
<totfact> 0.32895174E+00</totfact>
</mgrwt>
</event>
<event>
12    1  0.4672461E-008  0.2526129E+04  0.7818608E-02  0.8393736E-01
         -2   -1    0    0    0  501 -0.00000000000E+00  0.00000000000E+00  0.18138142953E+04  0.18138142953E+04  0.00000000000E+00 0.  1.
          2   -1    0    0  501    0  0.00000000000E+00 -0.00000000000E+00 -0.87954515999E+03  0.87954515999E+03  0.00000000000E+00 0. -1.
         23    2    1    2    0    0 -0.88220935715E+03  0.69122132990E+03  0.37619619982E+03  0.11856253774E+04  0.90020431529E+02 0.  0.
        254    2    1    2    0    0  0.88220935715E+03 -0.69122132990E+03  0.55807293550E+03  0.15077340779E+04  0.84008116961E+03 0.  0.
         23    2    4    4    0    0  0.93942544942E+03 -0.80424929665E+03  0.45628963843E+03  0.13213295333E+04  0.91511721204E+02 0.  0.
         23    2    4    4    0    0 -0.57216092279E+02  0.11302796675E+03  0.10178329708E+03  0.18640454463E+03  0.91311621458E+02 0.  0.
         11    1    3    3    0    0 -0.82617360700E+03  0.66832514789E+03  0.34326721242E+03  0.11167155911E+04  0.00000000000E+00 0.  1.
        -11    1    3    3    0    0 -0.56035750147E+02  0.22896182009E+02  0.32928987399E+02  0.68909786361E+02  0.00000000000E+00 0. -1.
          3    1    5    5  502    0  0.78969252797E+03 -0.63327887730E+03  0.35764503809E+03  0.10735764521E+04  0.00000000000E+00 0. -1.
          3    1    6    6  503    0  0.36924410500E+01  0.29388581059E+02 -0.12582065910E+02  0.32181224342E+02  0.00000000000E+00 0.  1.
         -3    1    5    5    0  502  0.14973292146E+03 -0.17097041935E+03  0.98644600338E+02  0.24775308118E+03  0.00000000000E+00 0.  1.
         -3    1    6    6    0  503 -0.60908533329E+02  0.83639385691E+02  0.11436536299E+03  0.15422332029E+03  0.00000000000E+00 0. -1.
<mgrwt>
<rscale>  0 0.25261287E+04</rscale>
<asrwt>0</asrwt>
<pdfrwt beam="1">  1        2 0.13531464E+00 0.25261287E+04</pdfrwt>
<pdfrwt beam="2">  1       -2 0.27904835E+00 0.25261287E+04</pdfrwt>
<totfact> 0.11500769E+00</totfact>
</mgrwt>
</event>
<event>
12    1  0.4672461E-008  0.1828290E+04  0.7818608E-02  0.8691398E-01
          2   -1    0    0  501    0  0.00000000000E+00  0.00000000000E+00  0.81845361459E+03  0.81845361459E+03  0.00000000000E+00 0. -1.
         -2   -1    0    0    0  501 -0.00000000000E+00 -0.00000000000E+00 -0.10210248781E+04  0.10210248781E+04  0.00000000000E+00 0.  1.
         23    2    1    2    0    0  0.68834774507E+03 -0.28612673085E+02 -0.10280665198E+03  0.70118969306E+03  0.80352192027E+02 0.  0.
        254    2    1    2    0    0 -0.68834774507E+03  0.28612673085E+02 -0.99764611529E+02  0.11382887996E+04  0.90061485133E+03 0.  0.
         23    2    4    4    0    0 -0.51852181865E+03  0.24499272481E+03 -0.41224823334E+03  0.71215223369E+03  0.91246295410E+02 0.  0.
         23    2    4    4    0    0 -0.16982592642E+03 -0.21638005173E+03  0.31248362181E+03  0.42613656594E+03  0.91023001816E+02 0.  0.
         13    1    3    3    0    0  0.60085131406E+03 -0.65053570839E+00 -0.76916025947E+02  0.60575473572E+03  0.00000000000E+00 0. -1.
        -13    1    3    3    0    0  0.87496431011E+02 -0.27962137377E+02 -0.25890626031E+02  0.95434957341E+02  0.00000000000E+00 0.  1.
          4    1    5    5  502    0 -0.46026443400E+03  0.24407387934E+03 -0.35470900319E+03  0.63026493217E+03  0.00000000000E+00 0. -1.
          3    1    6    6  503    0 -0.13694959056E+03 -0.15453080215E+03  0.17035670572E+03  0.26768706796E+03  0.00000000000E+00 0. -1.
         -4    1    5    5    0  502 -0.58257384650E+02  0.91884547408E+00 -0.57539230151E+02  0.81887301516E+02  0.00000000000E+00 0.  1.
         -3    1    6    6    0  503 -0.32876335854E+02 -0.61849249578E+02  0.14212691609E+03  0.15844949798E+03  0.00000000000E+00 0.  1.
<mgrwt>
<rscale>  0 0.18282905E+04</rscale>
<asrwt>0</asrwt>
<pdfrwt beam="1">  1        2 0.12591594E+00 0.18282905E+04</pdfrwt>
<pdfrwt beam="2">  1       -2 0.15708075E+00 0.18282905E+04</pdfrwt>
<totfact> 0.83303079E+00</totfact>
</mgrwt>
</event>
<event>
12    1  0.4672461E-008  0.1891854E+04  0.7818608E-02  0.8658922E-01
          1   -1    0    0  501    0  0.00000000000E+00  0.00000000000E+00  0.11760018983E+04  0.11760018983E+04  0.00000000000E+00 0. -1.
         -1   -1    0    0    0  501 -0.00000000000E+00 -0.00000000000E+00 -0.76086401815E+03  0.76086401815E+03  0.00000000000E+00 0.  1.
         23    2    1    2    0    0  0.99191132216E+02 -0.29907711570E+03 -0.51469627649E+03  0.61034485296E+03  0.91228179075E+02 0.  0.
        254    2    1    2    0    0 -0.99191132216E+02  0.29907711570E+03  0.92983415662E+03  0.13265210635E+04  0.89206534019E+03 0.  0.
         23    2    4    4    0    0 -0.22253062408E+03  0.50100410246E+03  0.26692631332E+03  0.61659074820E+03  0.91703351585E+02 0.  0.
         23    2    4    4    0    0  0.12333949186E+03 -0.20192698675E+03  0.66290784330E+03  0.70993031527E+03  0.92558660297E+02 0.  0.
         13    1    3    3    0    0  0.34111445555E+02 -0.56178984281E+02 -0.52299097322E+02  0.83993241237E+02  0.00000000000E+00 0. -1.
        -13    1    3    3    0    0  0.65079686661E+02 -0.24289813142E+03 -0.46239717916E+03  0.52635161172E+03  0.00000000000E+00 0.  1.
          2    1    5    5  502    0 -0.12122105554E+03  0.16454439397E+03  0.10260515087E+03  0.22868585194E+03  0.00000000000E+00 0. -1.
          3    1    6    6  503    0  0.83559695632E+02 -0.11108489034E+03  0.25809158024E+03  0.29314388854E+03  0.00000000000E+00 0. -1.
         -2    1    5    5    0  502 -0.10130956854E+03  0.33645970848E+03  0.16432116245E+03  0.38790489626E+03  0.00000000000E+00 0.  1.
         -3    1    6    6    0  503  0.39779796232E+02 -0.90842096412E+02  0.40481626307E+03  0.41678642674E+03  0.00000000000E+00 0.  1.
<mgrwt>
<rscale>  0 0.18918536E+04</rscale>
<asrwt>0</asrwt>
<pdfrwt beam="1">  1        1 0.18092337E+00 0.18918536E+04</pdfrwt>
<pdfrwt beam="2">  1       -1 0.11705600E+00 0.18918536E+04</pdfrwt>
<totfact> 0.68534598E+00</totfact>
</mgrwt>
</event>
<event>
12    1  0.4672461E-008  0.1447631E+04  0.7818608E-02  0.8920045E-01
         -1   -1    0    0    0  501 -0.00000000000E+00  0.00000000000E+00  0.43517298539E+03  0.43517298539E+03  0.00000000000E+00 0.  1.
          1   -1    0    0  501    0  0.00000000000E+00 -0.00000000000E+00 -0.12039093218E+04  0.12039093218E+04  0.00000000000E+00 0. -1.
         23    2    1    2    0    0 -0.14814636683E+03 -0.60719233768E+02 -0.72926592639E+03  0.75302204072E+03  0.97873546285E+02 0.  0.
        254    2    1    2    0    0  0.14814636683E+03  0.60719233768E+02 -0.39470410022E+02  0.88606026648E+03  0.87058067473E+03 0.  0.
         23    2    4    4    0    0  0.44129132154E+03  0.25887468368E+03 -0.29881048381E+02  0.52075429141E+03  0.92401421266E+02 0.  0.
         23    2    4    4    0    0 -0.29314495471E+03 -0.19815544991E+03 -0.95893616403E+01  0.36530597507E+03  0.90315850000E+02 0.  0.
         11    1    3    3    0    0 -0.10861768703E+02 -0.21244585340E+02 -0.25568169461E+02  0.34972013313E+02  0.00000000000E+00 0.  1.
        -11    1    3    3    0    0 -0.13728459813E+03 -0.39474648428E+02 -0.70369775693E+03  0.71805002740E+03  0.00000000000E+00 0. -1.
          4    1    5    5  502    0  0.25188595835E+03  0.19172617843E+03  0.60553466375E+01  0.31661037686E+03  0.00000000000E+00 0. -1.
          1    1    6    6  503    0 -0.18576967282E+03 -0.17413347833E+03 -0.15702974472E+02  0.25510668949E+03  0.00000000000E+00 0. -1.
         -4    1    5    5    0  502  0.18940536319E+03  0.67148505247E+02 -0.35936395019E+02  0.20414391455E+03  0.00000000000E+00 0.  1.
         -1    1    6    6    0  503 -0.10737528189E+03 -0.24021971580E+02  0.61136128319E+01  0.11019928558E+03  0.00000000000E+00 0.  1.
<mgrwt>
<rscale>  0 0.14476309E+04</rscale>
<asrwt>0</asrwt>
<pdfrwt beam="1">  1        1 0.18521682E+00 0.14476309E+04</pdfrwt>
<pdfrwt beam="2">  1       -1 0.66949691E-01 0.14476309E+04</pdfrwt>
<totfact> 0.23307317E+01</totfact>
</mgrwt>
</event>
<event>
12    1  0.4672461E-008  0.1811725E+04  0.7818608E-02  0.8700089E-01
          2   -1    0    0  501    0  0.00000000000E+00  0.00000000000E+00  0.25159012298E+04  0.25159012298E+04  0.00000000000E+00 0. -1.
         -2   -1    0    0    0  501 -0.00000000000E+00 -0.00000000000E+00 -0.32616037968E+03  0.32616037968E+03  0.00000000000E+00 0.  1.
         23    2    1    2    0    0  0.15175122224E+03 -0.45750015766E+03  0.15783969323E+04  0.16523214354E+04  0.80587978354E+02 0.  0.
        254    2    1    2    0    0 -0.15175122224E+03  0.45750015766E+03  0.61134391784E+03  0.11897401741E+04  0.89966964396E+03 0.  0.
         23    2    4    4    0    0  0.94848849331E+02  0.65898064393E+03  0.50455478476E+03  0.84031350695E+03  0.91101404235E+02 0.  0.
         23    2    4    4    0    0 -0.24660007158E+03 -0.20148048627E+03  0.10678913308E+03  0.34942666714E+03  0.96379951842E+02 0.  0.
         13    1    3    3    0    0  0.27313386472E+02 -0.99686941134E+02  0.23927889781E+03  0.26064899434E+03  0.00000000000E+00 0.  1.
        -13    1    3    3    0    0  0.12443783577E+03 -0.35781321653E+03  0.13391180345E+04  0.13916724410E+04  0.00000000000E+00 0. -1.
          2    1    5    5  502    0  0.86128567287E+02  0.59649881462E+03  0.48693248656E+03  0.77481108175E+03  0.00000000000E+00 0. -1.
          4    1    6    6  503    0 -0.66274830563E+01  0.30694496950E+01 -0.10677090629E+02  0.12936201814E+02  0.00000000000E+00 0.  1.
         -2    1    5    5    0  502  0.87202820444E+01  0.62481829313E+02  0.17622298198E+02  0.65502425200E+02  0.00000000000E+00 0.  1.
         -4    1    6    6    0  503 -0.23997258852E+03 -0.20454993596E+03  0.11746622371E+03  0.33649046533E+03  0.00000000000E+00 0. -1.
<mgrwt>
<rscale>  0 0.18117255E+04</rscale>
<asrwt>0</asrwt>
<pdfrwt beam="1">  1        2 0.38706172E+00 0.18117255E+04</pdfrwt>
<pdfrwt beam="2">  1       -2 0.50178521E-01 0.18117255E+04</pdfrwt>
<totfact> 0.12089727E+01</totfact>
</mgrwt>
</event>
<event>
12    1  0.4672461E-008  0.1811349E+04  0.7818608E-02  0.8700287E-01
          2   -1    0    0  501    0  0.00000000000E+00  0.00000000000E+00  0.87691885216E+03  0.87691885216E+03  0.00000000000E+00 0. -1.
         -2   -1    0    0    0  501 -0.00000000000E+00 -0.00000000000E+00 -0.93537312990E+03  0.93537312990E+03  0.00000000000E+00 0.  1.
         23    2    1    2    0    0  0.36234066229E+03 -0.42300467151E+03 -0.41179794316E+03  0.69857679645E+03  0.90599596471E+02 0.  0.
        254    2    1    2    0    0 -0.36234066229E+03  0.42300467151E+03  0.35334366542E+03  0.11137151856E+04  0.89737732370E+03 0.  0.
         23    2    4    4    0    0  0.18929804076E+03  0.33352059295E+03 -0.79325525156E+02  0.40213182687E+03  0.91365929535E+02 0.  0.
         23    2    4    4    0    0 -0.55163870305E+03  0.89484078560E+02  0.43266919058E+03  0.71158335874E+03  0.82677620589E+02 0.  0.
         11    1    3    3    0    0  0.36425465056E+03 -0.41093986833E+03 -0.41175044650E+03  0.68636102456E+03  0.00000000000E+00 0.  1.
        -11    1    3    3    0    0 -0.19139882786E+01 -0.12064803179E+02 -0.47496657287E-01  0.12215771887E+02  0.00000000000E+00 0. -1.
          4    1    5    5  502    0  0.52549429638E+02  0.11094582342E+03  0.16537204265E+02  0.12387048646E+03  0.00000000000E+00 0. -1.
          3    1    6    6  503    0 -0.12293942635E+03 -0.13247368713E+02  0.83290778110E+02  0.14908705191E+03  0.00000000000E+00 0. -1.
         -4    1    5    5    0  502  0.13674861112E+03  0.22257476953E+03 -0.95862729421E+02  0.27826134041E+03  0.00000000000E+00 0.  1.
         -3    1    6    6    0  503 -0.42869927669E+03  0.10273144727E+03  0.34937841247E+03  0.56249630683E+03  0.00000000000E+00 0.  1.
<mgrwt>
<rscale>  0 0.18113490E+04</rscale>
<asrwt>0</asrwt>
<pdfrwt beam="1">  1        2 0.13491059E+00 0.18113490E+04</pdfrwt>
<pdfrwt beam="2">  1       -2 0.14390356E+00 0.18113490E+04</pdfrwt>
<totfact> 0.95840178E+00</totfact>
</mgrwt>
</event>
<event>
12    1  0.4672461E-008  0.1664759E+04  0.7818608E-02  0.8781723E-01
         -1   -1    0    0    0  501 -0.00000000000E+00  0.00000000000E+00  0.63634105914E+03  0.63634105914E+03  0.00000000000E+00 0.  1.
          1   -1    0    0  501    0  0.00000000000E+00 -0.00000000000E+00 -0.10888118335E+04  0.10888118335E+04  0.00000000000E+00 0. -1.
         23    2    1    2    0    0 -0.16073070758E+03 -0.47857229632E+03 -0.46547427596E+03  0.69274521718E+03  0.91453984011E+02 0.  0.
        254    2    1    2    0    0  0.16073070758E+03  0.47857229632E+03  0.13003501622E+02  0.10324076754E+04  0.90046138956E+03 0.  0.
         23    2    4    4    0    0  0.34240642449E+03 -0.14020097355E+03  0.48458401066E+01  0.38134369287E+03  0.92201178980E+02 0.  0.
         23    2    4    4    0    0 -0.18167571691E+03  0.61877326987E+03  0.81576615158E+01  0.65106398257E+03  0.89058050369E+02 0.  0.
         13    1    3    3    0    0 -0.14247399874E+03 -0.46758385098E+03 -0.45885115845E+03  0.67043111774E+03  0.00000000000E+00 0. -1.
        -13    1    3    3    0    0 -0.18256708844E+02 -0.10988445332E+02 -0.66231175068E+01  0.22314099447E+02  0.00000000000E+00 0.  1.
          4    1    5    5  502    0  0.26063993347E+03 -0.10279079021E+03 -0.36189527349E+02  0.28250451919E+03  0.00000000000E+00 0. -1.
          3    1    6    6  503    0 -0.12660569928E+03  0.28958287698E+03  0.23704782164E+02  0.31693715848E+03  0.00000000000E+00 0. -1.
         -4    1    5    5    0  502  0.81766491025E+02 -0.37410183338E+02  0.41035367456E+02  0.98839173682E+02  0.00000000000E+00 0.  1.
         -3    1    6    6    0  503 -0.55070017635E+02  0.32919039289E+03 -0.15547120648E+02  0.33412682409E+03  0.00000000000E+00 0.  1.
<mgrwt>
<rscale>  0 0.16647591E+04</rscale>
<asrwt>0</asrwt>
<pdfrwt beam="1">  1        1 0.16750951E+00 0.16647591E+04</pdfrwt>
<pdfrwt beam="2">  1       -1 0.97898624E-01 0.16647591E+04</pdfrwt>
<totfact> 0.12346016E+01</totfact>
</mgrwt>
</event>
<event>
12    1  0.4672461E-008  0.1545894E+04  0.7818608E-02  0.8854495E-01
         -1   -1    0    0    0  501 -0.00000000000E+00  0.00000000000E+00  0.44234421281E+03  0.44234421281E+03  0.00000000000E+00 0.  1.
          1   -1    0    0  501    0  0.00000000000E+00 -0.00000000000E+00 -0.13506379864E+04  0.13506379864E+04  0.00000000000E+00 0. -1.
         23    2    1    2    0    0  0.37415591163E+03  0.14322879480E+03  0.55582301739E+02  0.41432072112E+03  0.89806090093E+02 0.  0.
        254    2    1    2    0    0 -0.37415591163E+03 -0.14322879480E+03 -0.96387607532E+03  0.13786614781E+04  0.90063491422E+03 0.  0.
         23    2    4    4    0    0  0.11884335640E+03  0.18021586824E+03  0.11859868937E+02  0.23497346663E+03  0.92034618515E+02 0.  0.
         23    2    4    4    0    0 -0.49299926803E+03 -0.32344466304E+03 -0.97573594426E+03  0.11436880115E+04  0.91087355305E+02 0.  0.
         13    1    3    3    0    0  0.60096722753E+02 -0.59984913497E+01 -0.77497240129E+01  0.60890526409E+02  0.00000000000E+00 0. -1.
        -13    1    3    3    0    0  0.31405918888E+03  0.14922728615E+03  0.63332025752E+02  0.35343019472E+03  0.00000000000E+00 0.  1.
          2    1    5    5  502    0  0.10675390688E+03  0.10114014169E+03  0.36031597752E+02  0.15140674005E+03  0.00000000000E+00 0. -1.
          3    1    6    6  503    0 -0.98036073011E+02 -0.71767970210E+02 -0.13747107708E+03  0.18346664599E+03  0.00000000000E+00 0.  1.
         -2    1    5    5    0  502  0.12089449524E+02  0.79075726545E+02 -0.24171728815E+02  0.83566726587E+02  0.00000000000E+00 0.  1.
         -3    1    6    6    0  503 -0.39496319502E+03 -0.25167669283E+03 -0.83826486718E+03  0.96022136546E+03  0.00000000000E+00 0. -1.
<mgrwt>
<rscale>  0 0.15458938E+04</rscale>
<asrwt>0</asrwt>
<pdfrwt beam="1">  1        1 0.20779045E+00 0.15458938E+04</pdfrwt>
<pdfrwt beam="2">  1       -1 0.68052958E-01 0.15458938E+04</pdfrwt>
<totfact> 0.17538760E+01</totfact>
</mgrwt>
</event>
<event>
12    1  0.4672461E-008  0.1605506E+04  0.7818608E-02  0.8817173E-01
          1   -1    0    0  501    0  0.00000000000E+00  0.00000000000E+00  0.92336993309E+03  0.92336993309E+03  0.00000000000E+00 0. -1.
         -1   -1    0    0    0  501 -0.00000000000E+00 -0.00000000000E+00 -0.69789158489E+03  0.69789158489E+03  0.00000000000E+00 0.  1.
         23    2    1    2    0    0  0.21982941902E+03  0.48345791511E+03  0.68359602048E+01  0.53885487589E+03  0.90891791544E+02 0.  0.
        254    2    1    2    0    0 -0.21982941902E+03 -0.48345791511E+03  0.21864238799E+03  0.10824066421E+04  0.91746559384E+03 0.  0.
         23    2    4    4    0    0  0.10140586865E+03 -0.55712879596E+03 -0.13631602394E+03  0.58951683296E+03  0.90952693647E+02 0.  0.
         23    2    4    4    0    0 -0.32123528766E+03  0.73670880850E+02  0.35495841193E+03  0.49288980914E+03  0.91243525935E+02 0.  0.
         11    1    3    3    0    0  0.13593370149E+03  0.36963619973E+03 -0.22358387367E+02  0.39447279860E+03  0.00000000000E+00 0.  1.
        -11    1    3    3    0    0  0.83895717528E+02  0.11382171538E+03  0.29194347571E+02  0.14438207728E+03  0.00000000000E+00 0. -1.
          1    1    5    5  502    0  0.93787601358E+02 -0.30561718267E+03 -0.10199121490E+03  0.33555950952E+03  0.00000000000E+00 0. -1.
          3    1    6    6  503    0 -0.16112754816E+03  0.11630039276E+02  0.22760644454E+03  0.27910936599E+03  0.00000000000E+00 0. -1.
         -1    1    5    5    0  502  0.76182672878E+01 -0.25151161328E+03 -0.34324809040E+02  0.25395732344E+03  0.00000000000E+00 0.  1.
         -3    1    6    6    0  503 -0.16010773950E+03  0.62040841574E+02  0.12735196739E+03  0.21378044314E+03  0.00000000000E+00 0.  1.
<mgrwt>
<rscale>  0 0.16055057E+04</rscale>
<asrwt>0</asrwt>
<pdfrwt beam="1">  1        1 0.14205691E+00 0.16055057E+04</pdfrwt>
<pdfrwt beam="2">  1       -1 0.10736794E+00 0.16055057E+04</pdfrwt>
<totfact> 0.13499837E+01</totfact>
</mgrwt>
</event>
<event>
12    1  0.4672461E-008  0.1632859E+04  0.7818608E-02  0.8800612E-01
         -2   -1    0    0    0  501 -0.00000000000E+00  0.00000000000E+00  0.88320093901E+03  0.88320093901E+03  0.00000000000E+00 0.  1.
          2   -1    0    0  501    0  0.00000000000E+00 -0.00000000000E+00 -0.75470596943E+03  0.75470596943E+03  0.00000000000E+00 0. -1.
         23    2    1    2    0    0  0.33354815111E+03  0.37106086845E+03 -0.21184030791E+03  0.54957972728E+03  0.90669859244E+02 0.  0.
        254    2    1    2    0    0 -0.33354815111E+03 -0.37106086845E+03  0.34033527749E+03  0.10883271812E+04  0.90536590114E+03 0.  0.
         23    2    4    4    0    0  0.73372968175E+02 -0.38976897149E+03 -0.15986996909E+03  0.43728099471E+03  0.91393751004E+02 0.  0.
         23    2    4    4    0    0 -0.40692111929E+03  0.18708103044E+02  0.50020524658E+03  0.65104618645E+03  0.87869549602E+02 0.  0.
         11    1    3    3    0    0  0.65099193575E+02  0.10665747542E+03 -0.19283026150E+02  0.12643400320E+03  0.00000000000E+00 0.  1.
        -11    1    3    3    0    0  0.26844895754E+03  0.26440339302E+03 -0.19255728176E+03  0.42314572408E+03  0.00000000000E+00 0. -1.
          4    1    5    5  502    0 -0.20002331056E+01 -0.19474640556E+03 -0.10436641672E+03  0.22095816878E+03  0.00000000000E+00 0. -1.
          1    1    6    6  503    0 -0.12378439422E+03 -0.97528557917E-01  0.21893189832E+03  0.25150300568E+03  0.00000000000E+00 0. -1.
         -4    1    5    5    0  502  0.75373201281E+02 -0.19502256593E+03 -0.55503552371E+02  0.21632282593E+03  0.00000000000E+00 0.  1.
         -1    1    6    6    0  503 -0.28313672506E+03  0.18805631602E+02  0.28127334826E+03  0.39954318077E+03  0.00000000000E+00 0.  1.
<mgrwt>
<rscale>  0 0.16328589E+04</rscale>
<asrwt>0</asrwt>
<pdfrwt beam="1">  1        2 0.11610861E+00 0.16328589E+04</pdfrwt>
<pdfrwt beam="2">  1       -2 0.13587707E+00 0.16328589E+04</pdfrwt>
<totfact> 0.13801145E+01</totfact>
</mgrwt>
</event>
<event>
12    1  0.4672461E-008  0.2496155E+04  0.7818608E-02  0.8404357E-01
         -2   -1    0    0    0  501 -0.00000000000E+00  0.00000000000E+00  0.74272569023E+03  0.74272569023E+03  0.00000000000E+00 0.  1.
          2   -1    0    0  501    0  0.00000000000E+00 -0.00000000000E+00 -0.20972716453E+04  0.20972716453E+04  0.00000000000E+00 0. -1.
         23    2    1    2    0    0  0.11367618895E+03 -0.71170871411E+03  0.32780277294E+03  0.79704963070E+03  0.91552641525E+02 0.  0.
        254    2    1    2    0    0 -0.11367618895E+03  0.71170871411E+03 -0.16823487280E+04  0.20429477048E+04  0.90768194451E+03 0.  0.
         23    2    4    4    0    0 -0.43676366392E+02  0.89351312288E+03 -0.15460724914E+04  0.17885730963E+04  0.91543685680E+02 0.  0.
         23    2    4    4    0    0 -0.69999822553E+02 -0.18180440877E+03 -0.13627623656E+03  0.25437460850E+03  0.90456677987E+02 0.  0.
         11    1    3    3    0    0  0.19694653294E+02 -0.24884453943E+02  0.41909722499E+01  0.32010618001E+02  0.00000000000E+00 0. -1.
        -11    1    3    3    0    0  0.93981535651E+02 -0.68682426017E+03  0.32361180069E+03  0.76503901270E+03  0.00000000000E+00 0.  1.
          2    1    5    5  502    0 -0.61882467488E+02  0.57111854360E+03 -0.10443499768E+04  0.11919197560E+04  0.00000000000E+00 0. -1.
          1    1    6    6  503    0  0.36309584590E+01  0.92819581099E+01 -0.74171744543E+01  0.12423891603E+02  0.00000000000E+00 0. -1.
         -2    1    5    5    0  502  0.18206101096E+02  0.32239457929E+03 -0.50172251461E+03  0.59665334034E+03  0.00000000000E+00 0.  1.
         -1    1    6    6    0  503 -0.73630781012E+02 -0.19108636688E+03 -0.12885906210E+03  0.24195071689E+03  0.00000000000E+00 0.  1.
<mgrwt>
<rscale>  0 0.24961551E+04</rscale>
<asrwt>0</asrwt>
<pdfrwt beam="1">  1        2 0.32265717E+00 0.24961551E+04</pdfrwt>
<pdfrwt beam="2">  1       -2 0.11426549E+00 0.24961551E+04</pdfrwt>
<totfact> 0.31506789E+00</totfact>
</mgrwt>
</event>
<event>
12    1  0.4672461E-008  0.1334219E+04  0.7818608E-02  0.9002861E-01
         -1   -1    0    0    0  501 -0.00000000000E+00  0.00000000000E+00  0.83434812516E+03  0.83434812516E+03  0.00000000000E+00 0.  1.
          1   -1    0    0  501    0  0.00000000000E+00 -0.00000000000E+00 -0.53339229331E+03  0.53339229331E+03  0.00000000000E+00 0. -1.
         23    2    1    2    0    0 -0.19185917314E+03  0.19105109315E+03  0.31344748302E+03  0.42404780094E+03  0.90866662539E+02 0.  0.
        254    2    1    2    0    0  0.19185917314E+03 -0.19105109315E+03 -0.12491651162E+02  0.94369261752E+03  0.90392989358E+03 0.  0.
         23    2    4    4    0    0  0.33685869744E+03  0.27385321464E+03  0.32697322505E+02  0.44463049011E+03  0.90320499471E+02 0.  0.
         23    2    4    4    0    0 -0.14499952430E+03 -0.46490430779E+03 -0.45188973668E+02  0.49906212741E+03  0.99297966866E+02 0.  0.
         13    1    3    3    0    0 -0.16527446381E+03  0.19356163969E+03  0.25753288027E+03  0.36208416310E+03  0.00000000000E+00 0.  1.
        -13    1    3    3    0    0 -0.26584709334E+02 -0.25105465406E+01  0.55914602747E+02  0.61963637842E+02  0.00000000000E+00 0. -1.
          2    1    6    6  502    0 -0.49980342547E+02 -0.60795343437E+02 -0.28141151115E+02  0.83582491054E+02  0.00000000000E+00 0.  1.
          2    1    5    5  503    0  0.33901645957E+02  0.10534804869E+01 -0.82283535759E+01  0.34901822621E+02  0.00000000000E+00 0.  1.
         -2    1    5    5    0  503  0.30295705148E+03  0.27279973416E+03  0.40925676081E+02  0.40972866749E+03  0.00000000000E+00 0. -1.
         -2    1    6    6    0  502 -0.95019181753E+02 -0.40410896436E+03 -0.17047822552E+02  0.41547963636E+03  0.00000000000E+00 0. -1.
<mgrwt>
<rscale>  0 0.13342187E+04</rscale>
<asrwt>0</asrwt>
<pdfrwt beam="1">  1        1 0.82060353E-01 0.13342187E+04</pdfrwt>
<pdfrwt beam="2">  1       -1 0.12836125E+00 0.13342187E+04</pdfrwt>
<totfact> 0.20791767E+01</totfact>
</mgrwt>
</event>
<event>
12    1  0.4672461E-008  0.1881577E+04  0.7818608E-02  0.8664081E-01
          1   -1    0    0  501    0  0.00000000000E+00  0.00000000000E+00  0.25512337620E+04  0.25512337620E+04  0.00000000000E+00 0. -1.
         -1   -1    0    0    0  501 -0.00000000000E+00 -0.00000000000E+00 -0.34692360979E+03  0.34692360979E+03  0.00000000000E+00 0.  1.
         23    2    1    2    0    0 -0.43560074392E+03  0.27579305554E+03  0.73329246707E+02  0.52846732054E+03  0.89948389995E+02 0.  0.
        254    2    1    2    0    0  0.43560074392E+03 -0.27579305554E+03  0.21309809055E+04  0.23696900513E+04  0.89918935814E+03 0.  0.
         23    2    4    4    0    0  0.40971965104E+03 -0.91271117749E+02  0.21200448361E+04  0.21630202195E+04  0.88689082022E+02 0.  0.
         23    2    4    4    0    0  0.25881092878E+02 -0.18452193779E+03  0.10936069369E+02  0.20666983177E+03  0.88739197968E+02 0.  0.
         11    1    3    3    0    0 -0.35662977041E+03  0.18373406085E+03  0.43238287652E+02  0.40350036900E+03  0.00000000000E+00 0. -1.
        -11    1    3    3    0    0 -0.78970973508E+02  0.92058994691E+02  0.30090959054E+02  0.12496695154E+03  0.00000000000E+00 0.  1.
          2    1    5    5  502    0  0.33089506049E+03 -0.10097948544E+03  0.18232725303E+04  0.18558047088E+04  0.00000000000E+00 0. -1.
          3    1    6    6  503    0  0.34401153995E+01 -0.17733966569E+03  0.25157680367E+02  0.17914826346E+03  0.00000000000E+00 0. -1.
         -2    1    5    5    0  502  0.78824590552E+02  0.97083676889E+01  0.29677230587E+03  0.30721551069E+03  0.00000000000E+00 0.  1.
         -3    1    6    6    0  503  0.22440977479E+02 -0.71822721049E+01 -0.14221610999E+02  0.27521568309E+02  0.00000000000E+00 0.  1.
<mgrwt>
<rscale>  0 0.18815772E+04</rscale>
<asrwt>0</asrwt>
<pdfrwt beam="1">  1        1 0.39249749E+00 0.18815772E+04</pdfrwt>
<pdfrwt beam="2">  1       -1 0.53372865E-01 0.18815772E+04</pdfrwt>
<totfact> 0.41453013E+00</totfact>
</mgrwt>
</event>
<event>
12    1  0.4672461E-008  0.2217374E+04  0.7818608E-02  0.8511231E-01
          2   -1    0    0  501    0  0.00000000000E+00  0.00000000000E+00  0.71802153431E+03  0.71802153431E+03  0.00000000000E+00 0. -1.
         -2   -1    0    0    0  501 -0.00000000000E+00 -0.00000000000E+00 -0.17119086828E+04  0.17119086828E+04  0.00000000000E+00 0.  1.
         23    2    1    2    0    0 -0.86572230940E+03  0.21517443646E+03 -0.18191230312E+03  0.91496436498E+03  0.91063428773E+02 0.  0.
        254    2    1    2    0    0  0.86572230940E+03 -0.21517443646E+03 -0.81197484538E+03  0.15149658521E+04  0.91653872178E+03 0.  0.
         23    2    4    4    0    0  0.26224213905E+03  0.32358139245E+03 -0.10985596019E+03  0.43980198802E+03  0.88778373709E+02 0.  0.
         23    2    4    4    0    0  0.60348017035E+03 -0.53875582891E+03 -0.70211888519E+03  0.10751638641E+04  0.92521600671E+02 0.  0.
         13    1    3    3    0    0 -0.50150628299E+02  0.19467244783E+02  0.96170987997E+01  0.54649315893E+02  0.00000000000E+00 0. -1.
        -13    1    3    3    0    0 -0.81557168110E+03  0.19570719167E+03 -0.19152940192E+03  0.86031504909E+03  0.00000000000E+00 0.  1.
          4    1    5    5  502    0  0.16221541311E+03  0.13878754902E+03 -0.32798941525E+02  0.21598980202E+03  0.00000000000E+00 0. -1.
          3    1    6    6  503    0  0.14945537285E+03 -0.18592900198E+03 -0.22643504895E+03  0.32890626878E+03  0.00000000000E+00 0. -1.
         -4    1    5    5    0  502  0.10002672594E+03  0.18479384344E+03 -0.77057018662E+02  0.22381218600E+03  0.00000000000E+00 0.  1.
         -3    1    6    6    0  503  0.45402479751E+03 -0.35282682693E+03 -0.47568383624E+03  0.74625759534E+03  0.00000000000E+00 0.  1.
<mgrwt>
<rscale>  0 0.22173744E+04</rscale>
<asrwt>0</asrwt>
<pdfrwt beam="1">  1        2 0.11046485E+00 0.22173744E+04</pdfrwt>
<pdfrwt beam="2">  1       -2 0.26337057E+00 0.22173744E+04</pdfrwt>
<totfact> 0.19262703E+00</totfact>
</mgrwt>
</event>
<event>
12    1  0.4672461E-008  0.1391083E+04  0.7818608E-02  0.8960298E-01
          1   -1    0    0  501    0  0.00000000000E+00  0.00000000000E+00  0.12465750743E+04  0.12465750743E+04  0.00000000000E+00 0. -1.
         -1   -1    0    0    0  501 -0.00000000000E+00 -0.00000000000E+00 -0.38808599112E+03  0.38808599112E+03  0.00000000000E+00 0.  1.
         23    2    1    2    0    0 -0.30148290371E+03  0.16330675687E+03  0.49263652174E+03  0.60673144008E+03  0.88720120357E+02 0.  0.
        254    2    1    2    0    0  0.30148290371E+03 -0.16330675687E+03  0.36585256148E+03  0.10279296254E+04  0.89734618734E+03 0.  0.
         23    2    4    4    0    0  0.44503627232E+01 -0.40379729030E+03 -0.91807770034E+02  0.42386659713E+03  0.90344718388E+02 0.  0.
         23    2    4    4    0    0  0.29703254099E+03  0.24049053343E+03  0.45766033152E+03  0.60406302825E+03  0.96825285873E+02 0.  0.
         11    1    3    3    0    0 -0.19728036238E+03  0.11192274229E+03  0.24905307226E+03  0.33685853771E+03  0.00000000000E+00 0.  1.
        -11    1    3    3    0    0 -0.10420254133E+03  0.51384014582E+02  0.24358344948E+03  0.26987290237E+03  0.00000000000E+00 0. -1.
          4    1    5    5  502    0 -0.81623063410E+01 -0.32117057194E+03 -0.35822166077E+02  0.32326519626E+03  0.00000000000E+00 0. -1.
          3    1    6    6  503    0  0.22926301835E+03  0.14164227118E+03  0.27058849077E+03  0.38189291157E+03  0.00000000000E+00 0. -1.
         -4    1    5    5    0  502  0.12612669064E+02 -0.82626718358E+02 -0.55985603957E+02  0.10060140087E+03  0.00000000000E+00 0.  1.
         -3    1    6    6    0  503  0.67769522636E+02  0.98848262245E+02  0.18707184074E+03  0.22217011668E+03  0.00000000000E+00 0.  1.
<mgrwt>
<rscale>  0 0.13910835E+04</rscale>
<asrwt>0</asrwt>
<pdfrwt beam="1">  1        1 0.19178078E+00 0.13910835E+04</pdfrwt>
<pdfrwt beam="2">  1       -1 0.59705538E-01 0.13910835E+04</pdfrwt>
<totfact> 0.27425161E+01</totfact>
</mgrwt>
</event>
<event>
12    1  0.4672461E-008  0.1298493E+04  0.7818608E-02  0.9030761E-01
          2   -1    0    0  501    0  0.00000000000E+00  0.00000000000E+00  0.13335506693E+04  0.13335506693E+04  0.00000000000E+00 0. -1.
         -2   -1    0    0    0  501 -0.00000000000E+00 -0.00000000000E+00 -0.31608911331E+03  0.31608911331E+03  0.00000000000E+00 0.  1.
         23    2    1    2    0    0 -0.19835311903E+03 -0.11509011314E+03 -0.31422285597E+02  0.24884568995E+03  0.91362593027E+02 0.  0.
        254    2    1    2    0    0  0.19835311903E+03  0.11509011314E+03  0.10488838416E+04  0.14007940926E+04  0.89970944359E+03 0.  0.
         23    2    4    4    0    0  0.34556412407E+03  0.13492483796E+03  0.11412892930E+04  0.12035414647E+04  0.91386712880E+02 0.  0.
         23    2    4    4    0    0 -0.14721100504E+03 -0.19834724821E+02 -0.92405451419E+02  0.19725262791E+03  0.91133613175E+02 0.  0.
         11    1    3    3    0    0 -0.95893672070E+02 -0.17064927939E+02  0.17270389758E+02  0.98919535336E+02  0.00000000000E+00 0. -1.
        -11    1    3    3    0    0 -0.10245944696E+03 -0.98025185200E+02 -0.48692675356E+02  0.14992615461E+03  0.00000000000E+00 0.  1.
          1    1    5    5  502    0  0.16514817281E+03  0.21906056513E+02  0.57118433201E+03  0.59498347492E+03  0.00000000000E+00 0. -1.
          1    1    6    6  503    0  0.87855978438E+00 -0.18869808170E+02 -0.32318533861E+02  0.37434331282E+02  0.00000000000E+00 0. -1.
         -1    1    5    5    0  502  0.18041595126E+03  0.11301878145E+03  0.57010496097E+03  0.60855798980E+03  0.00000000000E+00 0.  1.
         -1    1    6    6    0  503 -0.14808956483E+03 -0.96491665157E+00 -0.60086917558E+02  0.15981829662E+03  0.00000000000E+00 0.  1.
<mgrwt>
<rscale>  0 0.12984927E+04</rscale>
<asrwt>0</asrwt>
<pdfrwt beam="1">  1        2 0.20516164E+00 0.12984927E+04</pdfrwt>
<pdfrwt beam="2">  1       -2 0.48629095E-01 0.12984927E+04</pdfrwt>
<totfact> 0.62027651E+01</totfact>
</mgrwt>
</event>
<event>
12    1  0.4672461E-008  0.1174551E+04  0.7818608E-02  0.9135428E-01
          2   -1    0    0  501    0  0.00000000000E+00  0.00000000000E+00  0.13780322382E+04  0.13780322382E+04  0.00000000000E+00 0. -1.
         -2   -1    0    0    0  501 -0.00000000000E+00 -0.00000000000E+00 -0.25027906123E+03  0.25027906123E+03  0.00000000000E+00 0.  1.
         23    2    1    2    0    0  0.35766585231E+02  0.19895355016E+03  0.86965994542E+02  0.24030184807E+03  0.96540821606E+02 0.  0.
        254    2    1    2    0    0 -0.35766585231E+02 -0.19895355016E+03  0.10407871824E+04  0.13880094513E+04  0.89580718584E+03 0.  0.
         23    2    4    4    0    0  0.66061266601E+01 -0.12715653569E+02  0.11476096213E+04  0.11513029707E+04  0.91023946093E+02 0.  0.
         23    2    4    4    0    0 -0.42372711892E+02 -0.18623789659E+03 -0.10682243891E+03  0.23670648060E+03  0.90215983421E+02 0.  0.
         13    1    3    3    0    0  0.26200892239E+02  0.35557661526E+02  0.59868846603E+02  0.74398338966E+02  0.00000000000E+00 0. -1.
        -13    1    3    3    0    0  0.95656929927E+01  0.16339588864E+03  0.27097147939E+02  0.16590350910E+03  0.00000000000E+00 0.  1.
          3    1    6    6  502    0 -0.67363226325E+02 -0.11690838508E+03 -0.86449232900E+02  0.16024620005E+03  0.00000000000E+00 0. -1.
          3    1    5    5  503    0  0.82783679675E+01  0.19202567650E+02  0.10023696562E+04  0.10025877506E+04  0.00000000000E+00 0. -1.
         -3    1    5    5    0  503 -0.16722413075E+01 -0.31918221219E+02  0.14523996504E+03  0.14871522008E+03  0.00000000000E+00 0.  1.
         -3    1    6    6    0  502  0.24990514433E+02 -0.69329511518E+02 -0.20373206007E+02  0.76460280552E+02  0.00000000000E+00 0.  1.
<mgrwt>
<rscale>  0 0.11745512E+04</rscale>
<asrwt>0</asrwt>
<pdfrwt beam="1">  1        2 0.21200495E+00 0.11745512E+04</pdfrwt>
<pdfrwt beam="2">  1       -2 0.38504472E-01 0.11745512E+04</pdfrwt>
<totfact> 0.93744752E+01</totfact>
</mgrwt>
</event>
<event>
12    1  0.4672461E-008  0.1065923E+04  0.7818608E-02  0.9239057E-01
         -2   -1    0    0    0  501 -0.00000000000E+00  0.00000000000E+00  0.19393939437E+03  0.19393939437E+03  0.00000000000E+00 0.  1.
          2   -1    0    0  501    0  0.00000000000E+00 -0.00000000000E+00 -0.14646231195E+04  0.14646231195E+04  0.00000000000E+00 0. -1.
         23    2    1    2    0    0 -0.90234213965E+02 -0.20429656600E+02 -0.34976572849E+03  0.37297790289E+03  0.90646935860E+02 0.  0.
        254    2    1    2    0    0  0.90234213965E+02  0.20429656600E+02 -0.92091799663E+03  0.12855846110E+04  0.89223217339E+03 0.  0.
         23    2    4    4    0    0  0.31936536018E+03  0.32509555536E+03 -0.30501878342E+03  0.55547505615E+03  0.88513989626E+02 0.  0.
         23    2    4    4    0    0 -0.22913114622E+03 -0.30466589876E+03 -0.61589921321E+03  0.73010955483E+03  0.91682763843E+02 0.  0.
         13    1    3    3    0    0 -0.78806598339E+02 -0.52557687098E+02 -0.27339790150E+03  0.28934270849E+03  0.00000000000E+00 0. -1.
        -13    1    3    3    0    0 -0.11427615626E+02  0.32128030498E+02 -0.76367826992E+02  0.83635194399E+02  0.00000000000E+00 0.  1.
          2    1    5    5  502    0  0.36080875721E+01  0.32217415853E+01 -0.23322779921E+02  0.23819109513E+02  0.00000000000E+00 0. -1.
          4    1    6    6  503    0  0.29956331768E+01 -0.23747062855E+02 -0.67990405740E+02  0.72080455638E+02  0.00000000000E+00 0. -1.
         -2    1    5    5    0  502  0.31575727261E+03  0.32187381378E+03 -0.28169600350E+03  0.53165594664E+03  0.00000000000E+00 0.  1.
         -4    1    6    6    0  503 -0.23212677940E+03 -0.28091883591E+03 -0.54790880747E+03  0.65802909919E+03  0.00000000000E+00 0.  1.
<mgrwt>
<rscale>  0 0.10659233E+04</rscale>
<asrwt>0</asrwt>
<pdfrwt beam="1">  1        2 0.22532664E+00 0.10659233E+04</pdfrwt>
<pdfrwt beam="2">  1       -2 0.29836829E-01 0.10659233E+04</pdfrwt>
<totfact> 0.13687261E+02</totfact>
</mgrwt>
</event>
<event>
12    1  0.4672461E-008  0.2630404E+04  0.7818608E-02  0.8357947E-01
         -2   -1    0    0    0  501 -0.00000000000E+00  0.00000000000E+00  0.62401409889E+03  0.62401409889E+03  0.00000000000E+00 0.  1.
          2   -1    0    0  501    0  0.00000000000E+00 -0.00000000000E+00 -0.27719819887E+04  0.27719819887E+04  0.00000000000E+00 0. -1.
         23    2    1    2    0    0  0.22168423319E+03  0.81502775966E+03  0.77124753138E+02  0.85272351830E+03  0.88176090040E+02 0.  0.
        254    2    1    2    0    0 -0.22168423319E+03 -0.81502775966E+03 -0.22250926429E+04  0.25432725693E+04  0.89653998446E+03 0.  0.
         23    2    4    4    0    0  0.51047768258E+01 -0.64926174235E+03 -0.58970322732E+03  0.88140982285E+03  0.86985692414E+02 0.  0.
         23    2    4    4    0    0 -0.22678901002E+03 -0.16576601731E+03 -0.16353894156E+04  0.16618627464E+04  0.91529337886E+02 0.  0.
         11    1    3    3    0    0  0.89214428142E+02  0.43816605234E+03  0.74047494308E+02  0.45324577773E+03  0.00000000000E+00 0.  1.
        -11    1    3    3    0    0  0.13246980505E+03  0.37686170731E+03  0.30772588301E+01  0.39947774057E+03  0.00000000000E+00 0. -1.
          2    1    5    5  502    0  0.13767783048E+02 -0.71021924779E+02 -0.36146833850E+02  0.80871869316E+02  0.00000000000E+00 0. -1.
          3    1    6    6  503    0 -0.17307825454E+02 -0.21081663472E+02 -0.58410690830E+02  0.64465542423E+02  0.00000000000E+00 0. -1.
         -2    1    5    5    0  502 -0.86630062218E+01 -0.57823981757E+03 -0.55355639347E+03  0.80053795354E+03  0.00000000000E+00 0.  1.
         -3    1    6    6    0  503 -0.20948118456E+03 -0.14468435384E+03 -0.15769787248E+04  0.15973972040E+04  0.00000000000E+00 0.  1.
<mgrwt>
<rscale>  0 0.26304037E+04</rscale>
<asrwt>0</asrwt>
<pdfrwt beam="1">  1        2 0.42645876E+00 0.26304037E+04</pdfrwt>
<pdfrwt beam="2">  1       -2 0.96002171E-01 0.26304037E+04</pdfrwt>
<totfact> 0.19287340E+00</totfact>
</mgrwt>
</event>
<event>
12    1  0.4672461E-008  0.2338598E+04  0.7818608E-02  0.8462856E-01
         -2   -1    0    0    0  501 -0.00000000000E+00  0.00000000000E+00  0.58459177247E+03  0.58459177247E+03  0.00000000000E+00 0.  1.
          2   -1    0    0  501    0  0.00000000000E+00 -0.00000000000E+00 -0.23388280736E+04  0.23388280736E+04  0.00000000000E+00 0. -1.
         23    2    1    2    0    0  0.12853313494E+03 -0.87239778491E+03 -0.13401114700E+04  0.16065590822E+04  0.86802481355E+02 0.  0.
        254    2    1    2    0    0 -0.12853313494E+03  0.87239778491E+03 -0.41412483116E+03  0.13168607639E+04  0.88601593314E+03 0.  0.
         23    2    4    4    0    0 -0.14835385367E+03  0.10104969853E+04 -0.19822420011E+03  0.10443012823E+04  0.90328907813E+02 0.  0.
         23    2    4    4    0    0  0.19820718725E+02 -0.13809920040E+03 -0.21590063105E+03  0.27255948153E+03  0.90616435838E+02 0.  0.
         13    1    3    3    0    0  0.67145377989E+02 -0.31469340960E+03 -0.55571449668E+03  0.64215188675E+03  0.00000000000E+00 0. -1.
        -13    1    3    3    0    0  0.61387756954E+02 -0.55770437531E+03 -0.78439697331E+03  0.96440719548E+03  0.00000000000E+00 0.  1.
          2    1    5    5  502    0 -0.12189660281E+03  0.65724656759E+03 -0.93891491196E+02  0.67501662535E+03  0.00000000000E+00 0. -1.
          1    1    6    6  503    0  0.24387720536E+02 -0.13256986601E+03 -0.22419361508E+03  0.26159569440E+03  0.00000000000E+00 0. -1.
         -2    1    5    5    0  502 -0.26457250858E+02  0.35325041772E+03 -0.10433270891E+03  0.36928465700E+03  0.00000000000E+00 0.  1.
         -1    1    6    6    0  503 -0.45670018112E+01 -0.55293343918E+01  0.82929840244E+01  0.10963787137E+02  0.00000000000E+00 0.  1.
<mgrwt>
<rscale>  0 0.23385976E+04</rscale>
<asrwt>0</asrwt>
<pdfrwt beam="1">  1        2 0.35981970E+00 0.23385976E+04</pdfrwt>
<pdfrwt beam="2">  1       -2 0.89937198E-01 0.23385976E+04</pdfrwt>
<totfact> 0.41214738E+00</totfact>
</mgrwt>
</event>
<event>
12    1  0.4672461E-008  0.1532925E+04  0.7818608E-02  0.8862849E-01
          1   -1    0    0  501    0  0.00000000000E+00  0.00000000000E+00  0.26414072211E+04  0.26414072211E+04  0.00000000000E+00 0. -1.
         -1   -1    0    0    0  501 -0.00000000000E+00 -0.00000000000E+00 -0.22240602677E+03  0.22240602677E+03  0.00000000000E+00 0.  1.
         23    2    1    2    0    0 -0.72136083654E+02 -0.28658318650E+00 -0.12935034081E+03  0.18375272849E+03  0.10876515004E+03 0.  0.
        254    2    1    2    0    0  0.72136083654E+02  0.28658318650E+00  0.25483515352E+04  0.26800605194E+04  0.82669531518E+03 0.  0.
         23    2    4    4    0    0  0.42964055155E+02 -0.39018577076E+03  0.15967229551E+04  0.16469629763E+04  0.94191317446E+02 0.  0.
         23    2    4    4    0    0  0.29172028499E+02  0.39047235395E+03  0.95162858009E+03  0.10330975431E+04  0.91509085202E+02 0.  0.
         13    1    3    3    0    0 -0.35019374909E+00  0.36153688366E+01  0.18764263236E+02  0.19112590151E+02  0.00000000000E+00 0. -1.
        -13    1    3    3    0    0 -0.71785889905E+02 -0.39019520231E+01 -0.14811460405E+03  0.16464013834E+03  0.00000000000E+00 0.  1.
          2    1    5    5  502    0 -0.12711010236E+01 -0.11950437789E+02  0.11474772485E+02  0.16616228957E+02  0.00000000000E+00 0.  1.
          1    1    6    6  503    0  0.36943247004E+02  0.34682968695E+03  0.75707354787E+03  0.83355623213E+03  0.00000000000E+00 0. -1.
         -2    1    5    5    0  502  0.44235156179E+02 -0.37823533297E+03  0.15852481826E+04  0.16303467473E+04  0.00000000000E+00 0. -1.
         -1    1    6    6    0  503 -0.77712185047E+01  0.43642667001E+02  0.19455503223E+03  0.19954131097E+03  0.00000000000E+00 0.  1.
<mgrwt>
<rscale>  0 0.15329252E+04</rscale>
<asrwt>0</asrwt>
<pdfrwt beam="1">  1        1 0.40637032E+00 0.15329252E+04</pdfrwt>
<pdfrwt beam="2">  1       -1 0.34216314E-01 0.15329252E+04</pdfrwt>
<totfact> 0.84411688E+00</totfact>
</mgrwt>
</event>
<event>
12    1  0.4672461E-008  0.1914833E+04  0.7818608E-02  0.8647508E-01
         -1   -1    0    0    0  501 -0.00000000000E+00  0.00000000000E+00  0.10435375704E+04  0.10435375704E+04  0.00000000000E+00 0.  1.
          1   -1    0    0  501    0  0.00000000000E+00 -0.00000000000E+00 -0.87840261670E+03  0.87840261670E+03  0.00000000000E+00 0. -1.
         23    2    1    2    0    0  0.35471954454E+03  0.11679232838E+03  0.70152570155E+03  0.79994687836E+03  0.91160819501E+02 0.  0.
        254    2    1    2    0    0 -0.35471954454E+03 -0.11679232838E+03 -0.53639074788E+03  0.11219933087E+04  0.91196904945E+03 0.  0.
         23    2    4    4    0    0 -0.10658993269E+03  0.30612392102E+03  0.63376115329E+02  0.34214819898E+03  0.89306154866E+02 0.  0.
         23    2    4    4    0    0 -0.24812961185E+03 -0.42291624940E+03 -0.59976686321E+03  0.77984510974E+03  0.89507802459E+02 0.  0.
         11    1    3    3    0    0  0.11089117403E+03  0.82438952663E+02  0.25374961967E+03  0.28893235000E+03  0.00000000000E+00 0.  1.
        -11    1    3    3    0    0  0.24382837051E+03  0.34353375715E+02  0.44777608188E+03  0.51101452836E+03  0.00000000000E+00 0. -1.
          1    1    5    5  502    0 -0.72759910166E+02  0.18614519238E+03  0.82151087319E+02  0.21608525707E+03  0.00000000000E+00 0. -1.
          3    1    6    6  503    0 -0.24415044114E+03 -0.38235028865E+03 -0.51860402245E+03  0.68902199765E+03  0.00000000000E+00 0. -1.
         -1    1    5    5    0  502 -0.33830022524E+02  0.11997872864E+03 -0.18774971989E+02  0.12606294191E+03  0.00000000000E+00 0.  1.
         -3    1    6    6    0  503 -0.39791707165E+01 -0.40565960753E+02 -0.81162840753E+02  0.90823112095E+02  0.00000000000E+00 0.  1.
<mgrwt>
<rscale>  0 0.19148328E+04</rscale>
<asrwt>0</asrwt>
<pdfrwt beam="1">  1        1 0.13513886E+00 0.19148328E+04</pdfrwt>
<pdfrwt beam="2">  1       -1 0.16054424E+00 0.19148328E+04</pdfrwt>
<totfact> 0.51287842E+00</totfact>
</mgrwt>
</event>
<event>
12    1  0.4672461E-008  0.1349799E+04  0.7818608E-02  0.8990980E-01
         -2   -1    0    0    0  501 -0.00000000000E+00  0.00000000000E+00  0.26079510790E+03  0.26079510790E+03  0.00000000000E+00 0.  1.
          2   -1    0    0  501    0  0.00000000000E+00 -0.00000000000E+00 -0.17465408577E+04  0.17465408577E+04  0.00000000000E+00 0. -1.
         23    2    1    2    0    0 -0.35210220304E+03  0.91136243901E+02 -0.20574642196E+03  0.42829397504E+03  0.93927432477E+02 0.  0.
        254    2    1    2    0    0  0.35210220304E+03 -0.91136243901E+02 -0.12799993278E+04  0.15790419905E+04  0.85011384667E+03 0.  0.
         23    2    4    4    0    0  0.16881857327E+03  0.35738341183E+03 -0.76719708253E+03  0.86762198460E+03  0.89184813677E+02 0.  0.
         23    2    4    4    0    0  0.18328362977E+03 -0.44851965573E+03 -0.51280224528E+03  0.71142000592E+03  0.91594276791E+02 0.  0.
         13    1    3    3    0    0 -0.59348165204E+02 -0.11073386589E+02 -0.61912775011E+02  0.86475524360E+02  0.00000000000E+00 0. -1.
        -13    1    3    3    0    0 -0.29275403783E+03  0.10220963049E+03 -0.14383364695E+03  0.34181845068E+03  0.00000000000E+00 0.  1.
          4    1    5    5  502    0  0.87770423350E+02  0.10009697474E+03 -0.29853117054E+03  0.32686986914E+03  0.00000000000E+00 0. -1.
          3    1    6    6  503    0 -0.73870740509E+01 -0.55380916649E+02 -0.50543215849E+02  0.75340768912E+02  0.00000000000E+00 0. -1.
         -4    1    5    5    0  502  0.81048149919E+02  0.25728643709E+03 -0.46866591199E+03  0.54075211546E+03  0.00000000000E+00 0.  1.
         -3    1    6    6    0  503  0.19067070382E+03 -0.39313873908E+03 -0.46225902944E+03  0.63607923701E+03  0.00000000000E+00 0.  1.
<mgrwt>
<rscale>  0 0.13497990E+04</rscale>
<asrwt>0</asrwt>
<pdfrwt beam="1">  1        2 0.26869859E+00 0.13497990E+04</pdfrwt>
<pdfrwt beam="2">  1       -2 0.40122325E-01 0.13497990E+04</pdfrwt>
<totfact> 0.53054448E+01</totfact>
</mgrwt>
</event>
<event>
12    1  0.4672461E-008  0.1349425E+04  0.7818608E-02  0.8991263E-01
          2   -1    0    0  501    0  0.00000000000E+00  0.00000000000E+00  0.22268256733E+04  0.22268256733E+04  0.00000000000E+00 0. -1.
         -2   -1    0    0    0  501 -0.00000000000E+00 -0.00000000000E+00 -0.20443327880E+03  0.20443327880E+03  0.00000000000E+00 0.  1.
         23    2    1    2    0    0 -0.24272934752E+03 -0.27353968440E+03  0.59184330711E+03  0.70171219573E+03  0.91542396607E+02 0.  0.
        254    2    1    2    0    0  0.24272934752E+03  0.27353968440E+03  0.14305490874E+04  0.17295467564E+04  0.90062189399E+03 0.  0.
         23    2    4    4    0    0 -0.16525498940E+03  0.28586824475E+03  0.13695180062E+03  0.36981295672E+03  0.94741555734E+02 0.  0.
         23    2    4    4    0    0  0.40798433692E+03 -0.12328560344E+02  0.12935972868E+04  0.13597337997E+04  0.94227665764E+02 0.  0.
         13    1    3    3    0    0 -0.92931193360E+01  0.56652386917E+01  0.33578323860E+02  0.35298170344E+02  0.00000000000E+00 0.  1.
        -13    1    3    3    0    0 -0.23343622819E+03 -0.27920492310E+03  0.55826498325E+03  0.66641402539E+03  0.00000000000E+00 0. -1.
          3    1    5    5  502    0 -0.94063108856E+02  0.83378732368E+02  0.26656642677E+02  0.12849302727E+03  0.00000000000E+00 0. -1.
          3    1    6    6  503    0  0.21097644996E+03  0.38708856953E+02  0.70815848979E+03  0.73993099997E+03  0.00000000000E+00 0. -1.
         -3    1    5    5    0  502 -0.71191880546E+02  0.20248951238E+03  0.11029515795E+03  0.24131992944E+03  0.00000000000E+00 0.  1.
         -3    1    6    6    0  503  0.19700788696E+03 -0.51037417298E+02  0.58543879701E+03  0.61980279971E+03  0.00000000000E+00 0.  1.
<mgrwt>
<rscale>  0 0.13494255E+04</rscale>
<asrwt>0</asrwt>
<pdfrwt beam="1">  1        2 0.34258855E+00 0.13494255E+04</pdfrwt>
<pdfrwt beam="2">  1       -2 0.31451275E-01 0.13494255E+04</pdfrwt>
<totfact> 0.45810796E+01</totfact>
</mgrwt>
</event>
<event>
12    1  0.4672461E-008  0.1274296E+04  0.7818608E-02  0.9050201E-01
         -2   -1    0    0    0  501 -0.00000000000E+00  0.00000000000E+00  0.25242105213E+03  0.25242105213E+03  0.00000000000E+00 0. -1.
          2   -1    0    0  501    0  0.00000000000E+00 -0.00000000000E+00 -0.16082561069E+04  0.16082561069E+04  0.00000000000E+00 0.  1.
         23    2    1    2    0    0 -0.41225939635E+02 -0.29475827540E+03 -0.34783245000E+03  0.46734234736E+03  0.94018281960E+02 0.  0.
        254    2    1    2    0    0  0.41225939635E+02  0.29475827540E+03 -0.10080026048E+04  0.13933348117E+04  0.91472981104E+03 0.  0.
         23    2    4    4    0    0 -0.10976951486E+03  0.58360436742E+03 -0.49584100461E+03  0.77936707809E+03  0.94399875526E+02 0.  0.
         23    2    4    4    0    0  0.15099545449E+03 -0.28884609201E+03 -0.51216160021E+03  0.61396773363E+03  0.91734295985E+02 0.  0.
         13    1    3    3    0    0  0.20913279662E+02 -0.37746504710E+02 -0.80478049823E+02  0.91317470329E+02  0.00000000000E+00 0.  1.
        -13    1    3    3    0    0 -0.62139219297E+02 -0.25701177069E+03 -0.26735440018E+03  0.37602487703E+03  0.00000000000E+00 0. -1.
          3    1    6    6  502    0  0.92740267041E+02 -0.16921855576E+03 -0.21813927568E+03  0.29123945532E+03  0.00000000000E+00 0. -1.
          3    1    5    5  503    0 -0.94627261021E+02  0.56673348948E+03 -0.49185813823E+03  0.75635017999E+03  0.00000000000E+00 0. -1.
         -3    1    5    5    0  503 -0.15142253838E+02  0.16870877938E+02 -0.39828663810E+01  0.23016898104E+02  0.00000000000E+00 0.  1.
         -3    1    6    6    0  502  0.58255187452E+02 -0.11962753626E+03 -0.29402232453E+03  0.32272827830E+03  0.00000000000E+00 0.  1.
<mgrwt>
<rscale>  0 0.12742962E+04</rscale>
<asrwt>0</asrwt>
<pdfrwt beam="1">  1        2 0.24742401E+00 0.12742962E+04</pdfrwt>
<pdfrwt beam="2">  1       -2 0.38834009E-01 0.12742962E+04</pdfrwt>
<totfact> 0.67868546E+01</totfact>
</mgrwt>
</event>
<event>
12    1  0.4672461E-008  0.1361655E+04  0.7818608E-02  0.8982052E-01
          2   -1    0    0  501    0  0.00000000000E+00  0.00000000000E+00  0.21195674696E+04  0.21195674696E+04  0.00000000000E+00 0. -1.
         -2   -1    0    0    0  501 -0.00000000000E+00 -0.00000000000E+00 -0.21868896260E+03  0.21868896260E+03  0.00000000000E+00 0.  1.
         23    2    1    2    0    0  0.99480587680E+02 -0.10311570374E+03  0.11846754528E+04  0.11967488146E+04  0.90678338517E+02 0.  0.
        254    2    1    2    0    0 -0.99480587680E+02  0.10311570374E+03  0.71620305417E+03  0.11415076176E+04  0.87724773612E+03 0.  0.
         23    2    4    4    0    0  0.12378408390E+03  0.43305189230E+03  0.49441853574E+03  0.67492767449E+03  0.90671034268E+02 0.  0.
         23    2    4    4    0    0 -0.22326467158E+03 -0.32993618857E+03  0.22178451844E+03  0.46657994310E+03  0.99012466829E+02 0.  0.
         13    1    3    3    0    0  0.11620439917E+03 -0.93544901562E+02  0.10872234536E+04  0.10974101098E+04  0.00000000000E+00 0. -1.
        -13    1    3    3    0    0 -0.16723811488E+02 -0.95708021743E+01  0.97451999150E+02  0.99338704759E+02  0.00000000000E+00 0.  1.
          4    1    6    6  502    0 -0.13033532064E+03 -0.23067958931E+03  0.97368149018E+02  0.28227809899E+03  0.00000000000E+00 0. -1.
          4    1    5    5  503    0  0.12731440707E+03  0.42872814420E+03  0.49715159855E+03  0.66871256293E+03  0.00000000000E+00 0. -1.
         -4    1    5    5    0  503 -0.35303231644E+01  0.43237481049E+01 -0.27330628179E+01  0.62151115586E+01  0.00000000000E+00 0.  1.
         -4    1    6    6    0  502 -0.92929350939E+02 -0.99256599260E+02  0.12441636942E+03  0.18430184411E+03  0.00000000000E+00 0.  1.
<mgrwt>
<rscale>  0 0.13616549E+04</rscale>
<asrwt>0</asrwt>
<pdfrwt beam="1">  1        2 0.32608729E+00 0.13616549E+04</pdfrwt>
<pdfrwt beam="2">  1       -2 0.33644457E-01 0.13616549E+04</pdfrwt>
<totfact> 0.46253751E+01</totfact>
</mgrwt>
</event>
<event>
12    1  0.4672461E-008  0.1368883E+04  0.7818608E-02  0.8976656E-01
         -3   -1    0    0    0  501 -0.00000000000E+00  0.00000000000E+00  0.16905957410E+04  0.16905957410E+04  0.00000000000E+00 0.  1.
          3   -1    0    0  501    0  0.00000000000E+00 -0.00000000000E+00 -0.27709751752E+03  0.27709751752E+03  0.00000000000E+00 0. -1.
         23    2    1    2    0    0 -0.14415200559E+03  0.24887319549E+03  0.46550285942E+02  0.30553427829E+03  0.92014118156E+02 0.  0.
        254    2    1    2    0    0  0.14415200559E+03 -0.24887319549E+03  0.13669479375E+04  0.16621589802E+04  0.90083746784E+03 0.  0.
         23    2    4    4    0    0  0.28638552616E+03 -0.53097364234E+03  0.95213446617E+03  0.11314093866E+04  0.97864599631E+02 0.  0.
         23    2    4    4    0    0 -0.14223352056E+03  0.28210044686E+03  0.41481347136E+03  0.53074959367E+03  0.99065022398E+02 0.  0.
         13    1    3    3    0    0 -0.31764836648E+02  0.33663423117E+01  0.39501331694E+01  0.32186032062E+02  0.00000000000E+00 0. -1.
        -13    1    3    3    0    0 -0.11238716895E+03  0.24550685317E+03  0.42600152773E+02  0.27334824623E+03  0.00000000000E+00 0.  1.
          2    1    5    5  502    0  0.27789072931E+03 -0.47603552944E+03  0.89886961135E+03  0.10544191107E+04  0.00000000000E+00 0. -1.
          1    1    6    6  503    0 -0.11154984997E+03  0.14145729720E+03  0.17566105077E+03  0.25161546200E+03  0.00000000000E+00 0. -1.
         -2    1    5    5    0  502  0.84947968471E+01 -0.54938112899E+02  0.53264854816E+02  0.76990275886E+02  0.00000000000E+00 0.  1.
         -1    1    6    6    0  503 -0.30683670600E+02  0.14064314966E+03  0.23915242059E+03  0.27913413167E+03  0.00000000000E+00 0.  1.
<mgrwt>
<rscale>  0 0.13688826E+04</rscale>
<asrwt>0</asrwt>
<pdfrwt beam="1">  1        3 0.42630388E-01 0.13688826E+04</pdfrwt>
<pdfrwt beam="2">  1       -3 0.26009165E+00 0.13688826E+04</pdfrwt>
<totfact> 0.89820339E-01</totfact>
</mgrwt>
</event>
<event>
12    1  0.5296824E-008  0.2162264E+04  0.7818608E-02  0.8534301E-01
          1   -1    0    0  501    0  0.00000000000E+00  0.00000000000E+00  0.99456484366E+03  0.99456484366E+03  0.00000000000E+00 0. -1.
         -1   -1    0    0    0  501 -0.00000000000E+00 -0.00000000000E+00 -0.11752335407E+04  0.11752335407E+04  0.00000000000E+00 0.  1.
         23    2    1    2    0    0  0.66307393007E+03  0.23110622889E+03  0.47327282646E+03  0.85128825171E+03  0.87334949916E+02 0.  0.
        254    2    1    2    0    0 -0.66307393007E+03 -0.23110622889E+03 -0.65394152346E+03  0.13185101326E+04  0.90429659288E+03 0.  0.
         23    2    4    4    0    0 -0.70447627748E+03 -0.46328129306E+03 -0.33648602976E+03  0.91254677407E+03  0.92749041017E+02 0.  0.
         23    2    4    4    0    0  0.41402347414E+02  0.23217506417E+03 -0.31745549370E+03  0.40596335853E+03  0.91699744780E+02 0.  0.
         11    1    3    3    0    0  0.61032159911E+03  0.21661724784E+03  0.46175654360E+03  0.79538329877E+03  0.00000000000E+00 0. -1.
        -11    1    3    3    0    0  0.52752330957E+02  0.14488981047E+02  0.11516282864E+02  0.55904952949E+02  0.00000000000E+00 0.  1.
          1    1    5    5  502    0 -0.14156458664E+03 -0.11858817169E+03 -0.10868347853E+03  0.21427968910E+03  0.00000000000E+00 0. -1.
          3    1    6    6  503    0 -0.10601472135E+02  0.10920729034E+03 -0.88671975374E+02  0.14107211876E+03  0.00000000000E+00 0. -1.
         -1    1    5    5    0  502 -0.56291169084E+03 -0.34469312137E+03 -0.22780255123E+03  0.69826708497E+03  0.00000000000E+00 0.  1.
         -3    1    6    6    0  503  0.52003819549E+02  0.12296777384E+03 -0.22878351832E+03  0.26489123977E+03  0.00000000000E+00 0.  1.
<mgrwt>
<rscale>  0 0.21622636E+04</rscale>
<asrwt>0</asrwt>
<pdfrwt beam="1">  1        1 0.15300998E+00 0.21622636E+04</pdfrwt>
<pdfrwt beam="2">  1       -1 0.18080516E+00 0.21622636E+04</pdfrwt>
<totfact> 0.28703201E+00</totfact>
</mgrwt>
</event>
<event>
12    1  0.4672461E-008  0.1544556E+04  0.7818608E-02  0.8855352E-01
         -2   -1    0    0    0  501 -0.00000000000E+00  0.00000000000E+00  0.74337640871E+03  0.74337640871E+03  0.00000000000E+00 0.  1.
          2   -1    0    0  501    0  0.00000000000E+00 -0.00000000000E+00 -0.80230369809E+03  0.80230369809E+03  0.00000000000E+00 0. -1.
         23    2    1    2    0    0 -0.23603557967E+03  0.29202814667E+03  0.30171263292E+03  0.48692321931E+03  0.71207270160E+02 0.  0.
        254    2    1    2    0    0  0.23603557967E+03 -0.29202814667E+03 -0.36063992229E+03  0.10587568875E+04  0.92190658959E+03 0.  0.
         23    2    4    4    0    0  0.31918277859E+03  0.26525449229E+03 -0.15733003501E+03  0.45308081301E+03  0.91059823077E+02 0.  0.
         23    2    4    4    0    0 -0.83147198915E+02 -0.55728263896E+03 -0.20330988728E+03  0.60567607447E+03  0.89616965767E+02 0.  0.
         11    1    3    3    0    0 -0.14626936059E+03  0.20946089114E+03  0.23872425852E+03  0.34965391800E+03  0.00000000000E+00 0.  1.
        -11    1    3    3    0    0 -0.89766219081E+02  0.82567255526E+02  0.62988374397E+02  0.13726930131E+03  0.00000000000E+00 0. -1.
          2    1    5    5  502    0  0.96304875175E+02  0.11712881172E+03 -0.22088256644E+02  0.15323732769E+03  0.00000000000E+00 0. -1.
          1    1    6    6  503    0 -0.49628805879E+02 -0.49440127186E+03 -0.15873114509E+03  0.52162363099E+03  0.00000000000E+00 0. -1.
         -2    1    5    5    0  502  0.22287790341E+03  0.14812568057E+03 -0.13524177837E+03  0.29984348532E+03  0.00000000000E+00 0.  1.
         -1    1    6    6    0  503 -0.33518393036E+02 -0.62881367101E+02 -0.44578742191E+02  0.84052443484E+02  0.00000000000E+00 0.  1.
<mgrwt>
<rscale>  0 0.15445564E+04</rscale>
<asrwt>0</asrwt>
<pdfrwt beam="1">  1        2 0.12343134E+00 0.15445564E+04</pdfrwt>
<pdfrwt beam="2">  1       -2 0.11436560E+00 0.15445564E+04</pdfrwt>
<totfact> 0.19749709E+01</totfact>
</mgrwt>
</event>
<event>
12    1  0.4672461E-008  0.1377073E+04  0.7818608E-02  0.8970583E-01
          2   -1    0    0  501    0  0.00000000000E+00  0.00000000000E+00  0.46707831966E+04  0.46707831966E+04  0.00000000000E+00 0. -1.
         -2   -1    0    0    0  501 -0.00000000000E+00 -0.00000000000E+00 -0.10149963220E+03  0.10149963220E+03  0.00000000000E+00 0.  1.
         23    2    1    2    0    0  0.18035666154E+03  0.10961664164E+03  0.25212063207E+04  0.25316430186E+04  0.90502643416E+02 0.  0.
        254    2    1    2    0    0 -0.18035666154E+03 -0.10961664164E+03  0.20480772437E+04  0.22406398102E+04  0.88391290833E+03 0.  0.
         23    2    4    4    0    0  0.32742591265E+03  0.35495085183E+02  0.52972584912E+03  0.63048243088E+03  0.91820428399E+02 0.  0.
         23    2    4    4    0    0 -0.50778257419E+03 -0.14511172682E+03  0.15183513946E+04  0.16101573794E+04  0.91188118398E+02 0.  0.
         13    1    3    3    0    0  0.18208944583E+03  0.86995043689E+02  0.23886180431E+04  0.23971276270E+04  0.00000000000E+00 0. -1.
        -13    1    3    3    0    0 -0.17327842882E+01  0.22621597950E+02  0.13258827758E+03  0.13451539164E+03  0.00000000000E+00 0.  1.
          2    1    5    5  502    0  0.63796965594E+02 -0.11823198624E+01  0.18010193508E+03  0.19107108027E+03  0.00000000000E+00 0. -1.
          4    1    6    6  503    0 -0.16628061051E+03 -0.42049696547E+02  0.37302755187E+03  0.41056908416E+03  0.00000000000E+00 0. -1.
         -2    1    5    5    0  502  0.26362894705E+03  0.36677405045E+02  0.34962391405E+03  0.43941135060E+03  0.00000000000E+00 0.  1.
         -4    1    6    6    0  503 -0.34150196368E+03 -0.10306203027E+03  0.11453238427E+04  0.11995882952E+04  0.00000000000E+00 0.  1.
<mgrwt>
<rscale>  0 0.13770734E+04</rscale>
<asrwt>0</asrwt>
<pdfrwt beam="1">  1        2 0.71858187E+00 0.13770734E+04</pdfrwt>
<pdfrwt beam="2">  1       -2 0.15615332E-01 0.13770734E+04</pdfrwt>
<totfact> 0.27693023E+00</totfact>
</mgrwt>
</event>
<event>
12    1  0.4672461E-008  0.1280372E+04  0.7818608E-02  0.9045277E-01
          2   -1    0    0  501    0  0.00000000000E+00  0.00000000000E+00  0.47999783653E+03  0.47999783653E+03  0.00000000000E+00 0. -1.
         -2   -1    0    0    0  501 -0.00000000000E+00 -0.00000000000E+00 -0.85383281338E+03  0.85383281338E+03  0.00000000000E+00 0.  1.
         23    2    1    2    0    0  0.14062656300E+02  0.13703435509E+03  0.20372553095E+03  0.26330659630E+03  0.94074964342E+02 0.  0.
        254    2    1    2    0    0 -0.14062656300E+02 -0.13703435509E+03 -0.57756050780E+03  0.10705240536E+04  0.89076901406E+03 0.  0.
         23    2    4    4    0    0  0.93240070705E+02 -0.43231410991E+03 -0.56396195108E+02  0.45521835299E+03  0.91945732156E+02 0.  0.
         23    2    4    4    0    0 -0.10730272700E+03  0.29527975482E+03 -0.52116431269E+03  0.61530570062E+03  0.91021181941E+02 0.  0.
         13    1    3    3    0    0 -0.97295320784E+01  0.10371136289E+03  0.19553486836E+03  0.22155043519E+03  0.00000000000E+00 0. -1.
        -13    1    3    3    0    0  0.23792188379E+02  0.33322992206E+02  0.81906625923E+01  0.41756161116E+02  0.00000000000E+00 0.  1.
          1    1    5    5  502    0 -0.15480145313E+02 -0.29873734557E+02  0.44302653240E+01  0.33936737706E+02  0.00000000000E+00 0. -1.
          3    1    6    6  503    0  0.68167414658E+01  0.98324016142E+01 -0.59256854715E+02  0.60452617118E+02  0.00000000000E+00 0. -1.
         -1    1    5    5    0  502  0.10872021602E+03 -0.40244037536E+03 -0.60826460432E+02  0.42128161529E+03  0.00000000000E+00 0.  1.
         -3    1    6    6    0  503 -0.11411946847E+03  0.28544735321E+03 -0.46190745797E+03  0.55485308350E+03  0.00000000000E+00 0.  1.
<mgrwt>
<rscale>  0 0.12803717E+04</rscale>
<asrwt>0</asrwt>
<pdfrwt beam="1">  1        2 0.73845822E-01 0.12803717E+04</pdfrwt>
<pdfrwt beam="2">  1       -2 0.13135889E+00 0.12803717E+04</pdfrwt>
<totfact> 0.26790714E+01</totfact>
</mgrwt>
</event>
<event>
12    1  0.4672461E-008  0.3083460E+04  0.7818608E-02  0.8220292E-01
         -2   -1    0    0    0  501 -0.00000000000E+00  0.00000000000E+00  0.21102058438E+04  0.21102058438E+04  0.00000000000E+00 0.  1.
          2   -1    0    0  501    0  0.00000000000E+00 -0.00000000000E+00 -0.11263977245E+04  0.11263977245E+04  0.00000000000E+00 0. -1.
         23    2    1    2    0    0 -0.27110992187E+02  0.44758750054E+03 -0.94840072518E+03  0.10529696009E+04  0.90617152943E+02 0.  0.
        254    2    1    2    0    0  0.27110992187E+02 -0.44758750054E+03  0.19322088446E+04  0.21836339674E+04  0.91310279160E+03 0.  0.
         23    2    4    4    0    0 -0.28512788402E+03  0.62297127590E+02  0.11781852725E+04  0.12172491708E+04  0.91630591301E+02 0.  0.
         23    2    4    4    0    0  0.31223887621E+03 -0.50988462813E+03  0.75402357207E+03  0.96638479655E+03  0.88727548976E+02 0.  0.
         13    1    3    3    0    0 -0.31819391345E+02  0.19112268736E+03 -0.50240702664E+03  0.53847300370E+03  0.00000000000E+00 0. -1.
        -13    1    3    3    0    0  0.47083991580E+01  0.25646481318E+03 -0.44599369854E+03  0.51449659723E+03  0.00000000000E+00 0.  1.
          1    1    5    5  502    0 -0.10802830316E+03 -0.41057488394E+01  0.57607354464E+03  0.58612942282E+03  0.00000000000E+00 0. -1.
          3    1    6    6  503    0  0.31122561041E+03 -0.49616167076E+03  0.71076899636E+03  0.92099421838E+03  0.00000000000E+00 0. -1.
         -1    1    5    5    0  502 -0.17709958086E+03  0.66402876429E+02  0.60211172784E+03  0.63111974802E+03  0.00000000000E+00 0.  1.
         -3    1    6    6    0  503  0.10132657955E+01 -0.13722957370E+02  0.43254575709E+02  0.45390578167E+02  0.00000000000E+00 0.  1.
<mgrwt>
<rscale>  0 0.30834598E+04</rscale>
<asrwt>0</asrwt>
<pdfrwt beam="1">  1        2 0.17329196E+00 0.30834598E+04</pdfrwt>
<pdfrwt beam="2">  1       -2 0.32464705E+00 0.30834598E+04</pdfrwt>
<totfact> 0.39976367E-01</totfact>
</mgrwt>
</event>
<event>
12    1  0.7418635E-008  0.2331089E+04  0.7818608E-02  0.8465763E-01
         -1   -1    0    0    0  501 -0.00000000000E+00  0.00000000000E+00  0.91900225697E+03  0.91900225697E+03  0.00000000000E+00 0.  1.
          1   -1    0    0  501    0  0.00000000000E+00 -0.00000000000E+00 -0.14782267398E+04  0.14782267398E+04  0.00000000000E+00 0. -1.
         23    2    1    2    0    0  0.74582849233E+03  0.62954928248E+03 -0.40951808470E+03  0.10619815363E+04  0.86644576724E+02 0.  0.
        254    2    1    2    0    0 -0.74582849233E+03 -0.62954928248E+03 -0.14970639816E+03  0.13352474605E+04  0.89882219383E+03 0.  0.
         23    2    4    4    0    0 -0.17568342892E+03 -0.48242887623E+03 -0.43064105147E+03  0.67599977310E+03  0.89003877456E+02 0.  0.
         23    2    4    4    0    0 -0.57014506341E+03 -0.14712040625E+03  0.28093465332E+03  0.65924768741E+03  0.94728172486E+02 0.  0.
         13    1    3    3    0    0  0.18488131119E+03  0.15718727731E+03 -0.14325669314E+03  0.28180031850E+03  0.00000000000E+00 0. -1.
        -13    1    3    3    0    0  0.56094718113E+03  0.47236200517E+03 -0.26626139156E+03  0.78018121779E+03  0.00000000000E+00 0.  1.
          4    1    5    5  502    0 -0.17415220424E+03 -0.46193804298E+03 -0.43115306430E+03  0.65544542919E+03  0.00000000000E+00 0. -1.
          1    1    6    6  503    0 -0.54406511643E+03 -0.11740295894E+03  0.26709239012E+03  0.61735617802E+03  0.00000000000E+00 0. -1.
         -4    1    5    5    0  502 -0.15312246742E+01 -0.20490833252E+02  0.51201282838E+00  0.20554343909E+02  0.00000000000E+00 0.  1.
         -1    1    6    6    0  503 -0.26079946980E+02 -0.29717447301E+02  0.13842263198E+02  0.41891509391E+02  0.00000000000E+00 0.  1.
<mgrwt>
<rscale>  0 0.23310888E+04</rscale>
<asrwt>0</asrwt>
<pdfrwt beam="1">  1        1 0.22741950E+00 0.23310888E+04</pdfrwt>
<pdfrwt beam="2">  1       -1 0.14138496E+00 0.23310888E+04</pdfrwt>
<totfact> 0.24942490E+00</totfact>
</mgrwt>
</event>
<event>
12    1  0.4672461E-008  0.1856597E+04  0.7818608E-02  0.8676768E-01
          1   -1    0    0  501    0  0.00000000000E+00  0.00000000000E+00  0.10736242362E+04  0.10736242362E+04  0.00000000000E+00 0. -1.
         -1   -1    0    0    0  501 -0.00000000000E+00 -0.00000000000E+00 -0.80264372810E+03  0.80264372810E+03  0.00000000000E+00 0.  1.
         23    2    1    2    0    0  0.80365266712E+02  0.17679032278E+02 -0.62272649925E+03  0.63473756850E+03  0.91281781960E+02 0.  0.
        254    2    1    2    0    0 -0.80365266712E+02 -0.17679032278E+02  0.89370700733E+03  0.12415303958E+04  0.85785452405E+03 0.  0.
         23    2    4    4    0    0  0.32809120739E+03  0.18192463154E+03  0.30435324971E+03  0.49152665821E+03  0.90703600748E+02 0.  0.
         23    2    4    4    0    0 -0.40845647410E+03 -0.19960366382E+03  0.58935375762E+03  0.75000373758E+03  0.92138162156E+02 0.  0.
         11    1    3    3    0    0  0.79252436796E+02  0.15649951694E+02 -0.62574281400E+03  0.63093576456E+03  0.00000000000E+00 0.  1.
        -11    1    3    3    0    0  0.11128299156E+01  0.20290805843E+01  0.30163147560E+01  0.38018039331E+01  0.00000000000E+00 0. -1.
          4    1    5    5  502    0  0.31625360616E+03  0.14768314795E+03  0.28393170328E+03  0.44993762648E+03  0.00000000000E+00 0. -1.
          3    1    6    6  503    0 -0.37084226082E+03 -0.19268716421E+03  0.49276504976E+03  0.64611896732E+03  0.00000000000E+00 0. -1.
         -4    1    5    5    0  502  0.11837601232E+02  0.34241483584E+02  0.20421546439E+02  0.41589031727E+02  0.00000000000E+00 0.  1.
         -3    1    6    6    0  503 -0.37614213279E+02 -0.69164996048E+01  0.96588707851E+02  0.10388477026E+03  0.00000000000E+00 0.  1.
<mgrwt>
<rscale>  0 0.18565966E+04</rscale>
<asrwt>0</asrwt>
<pdfrwt beam="1">  1        1 0.16517296E+00 0.18565966E+04</pdfrwt>
<pdfrwt beam="2">  1       -1 0.12348365E+00 0.18565966E+04</pdfrwt>
<totfact> 0.71927732E+00</totfact>
</mgrwt>
</event>
<event>
12    1  0.4672461E-008  0.1410668E+04  0.7818608E-02  0.8946132E-01
          1   -1    0    0  501    0  0.00000000000E+00  0.00000000000E+00  0.10771056518E+04  0.10771056518E+04  0.00000000000E+00 0. -1.
         -1   -1    0    0    0  501 -0.00000000000E+00 -0.00000000000E+00 -0.46188248384E+03  0.46188248384E+03  0.00000000000E+00 0.  1.
         23    2    1    2    0    0 -0.14854634921E+03 -0.34583403991E+03  0.38870307669E+03  0.54861375067E+03  0.90662917271E+02 0.  0.
        254    2    1    2    0    0  0.14854634921E+03  0.34583403991E+03  0.22652009125E+03  0.99037438496E+03  0.88761639778E+03 0.  0.
         23    2    4    4    0    0  0.38326194580E+03  0.40060870719E+03 -0.10274914873E+03  0.57076228570E+03  0.88516347826E+02 0.  0.
         23    2    4    4    0    0 -0.23471559659E+03 -0.54774667277E+02  0.32926923998E+03  0.41961209926E+03  0.97797781095E+02 0.  0.
         13    1    3    3    0    0 -0.15357073577E+03 -0.28763805795E+03  0.30453753120E+03  0.44616446651E+03  0.00000000000E+00 0. -1.
        -13    1    3    3    0    0  0.50243865607E+01 -0.58195981960E+02  0.84165545492E+02  0.10244928416E+03  0.00000000000E+00 0.  1.
          4    1    5    5  502    0  0.27125635701E+03  0.24084623922E+03 -0.97303502683E+02  0.37557275434E+03  0.00000000000E+00 0.  1.
          1    1    6    6  503    0 -0.19148345844E+03 -0.77765892981E+02  0.23194084996E+03  0.31066059751E+03  0.00000000000E+00 0. -1.
         -4    1    5    5    0  502  0.11200558880E+03  0.15976246797E+03 -0.54456460452E+01  0.19518953136E+03  0.00000000000E+00 0. -1.
         -1    1    6    6    0  503 -0.43232138157E+02  0.22991225704E+02  0.97328390019E+02  0.10895150175E+03  0.00000000000E+00 0.  1.
<mgrwt>
<rscale>  0 0.14106683E+04</rscale>
<asrwt>0</asrwt>
<pdfrwt beam="1">  1        1 0.16570856E+00 0.14106683E+04</pdfrwt>
<pdfrwt beam="2">  1       -1 0.71058844E-01 0.14106683E+04</pdfrwt>
<totfact> 0.25718265E+01</totfact>
</mgrwt>
</event>
<event>
12    1  0.4672461E-008  0.1938414E+04  0.7818608E-02  0.8635968E-01
          1   -1    0    0  501    0  0.00000000000E+00  0.00000000000E+00  0.19330457737E+04  0.19330457737E+04  0.00000000000E+00 0. -1.
         -1   -1    0    0    0  501 -0.00000000000E+00 -0.00000000000E+00 -0.48594923457E+03  0.48594923457E+03  0.00000000000E+00 0.  1.
         23    2    1    2    0    0 -0.64833847650E+03 -0.18106552179E+03  0.10115313128E+04  0.12187183565E+04  0.94611481068E+02 0.  0.
        254    2    1    2    0    0  0.64833847650E+03  0.18106552179E+03  0.43556522627E+03  0.12002766517E+04  0.89320740652E+03 0.  0.
         23    2    4    4    0    0  0.77855876081E+03 -0.77131174728E+02  0.19088606697E+03  0.81065685417E+03  0.92865938333E+02 0.  0.
         23    2    4    4    0    0 -0.13022028430E+03  0.25819669652E+03  0.24467915931E+03  0.38961979756E+03  0.91174772365E+02 0.  0.
         11    1    3    3    0    0 -0.31233353520E+01 -0.94010593737E+01  0.56026510138E+01  0.11380898007E+02  0.00000000000E+00 0.  1.
        -11    1    3    3    0    0 -0.64521514115E+03 -0.17166446242E+03  0.10059286618E+04  0.12073374585E+04  0.00000000000E+00 0. -1.
          1    1    5    5  502    0  0.66756329600E+02 -0.27324522965E+02  0.42991789463E+00  0.72133362089E+02  0.00000000000E+00 0. -1.
          1    1    6    6  503    0 -0.39751456192E+02  0.16742985375E+03  0.11297041006E+03  0.20585249026E+03  0.00000000000E+00 0. -1.
         -1    1    5    5    0  502  0.71180243121E+03 -0.49806651763E+02  0.19045614907E+03  0.73852349208E+03  0.00000000000E+00 0.  1.
         -1    1    6    6    0  503 -0.90468828113E+02  0.90766842772E+02  0.13170874924E+03  0.18376730731E+03  0.00000000000E+00 0.  1.
<mgrwt>
<rscale>  0 0.19384139E+04</rscale>
<asrwt>0</asrwt>
<pdfrwt beam="1">  1        1 0.29739166E+00 0.19384139E+04</pdfrwt>
<pdfrwt beam="2">  1       -1 0.74761421E-01 0.19384139E+04</pdfrwt>
<totfact> 0.55533159E+00</totfact>
</mgrwt>
</event>
<event>
12    1  0.4672461E-008  0.1542488E+04  0.7818608E-02  0.8856680E-01
          2   -1    0    0  501    0  0.00000000000E+00  0.00000000000E+00  0.23296707989E+04  0.23296707989E+04  0.00000000000E+00 0.  1.
         -2   -1    0    0    0  501 -0.00000000000E+00 -0.00000000000E+00 -0.25532244544E+03  0.25532244544E+03  0.00000000000E+00 0. -1.
         23    2    1    2    0    0  0.28313282691E+03 -0.26592043379E+03  0.15319901149E+03  0.42753209730E+03  0.91847059381E+02 0.  0.
        254    2    1    2    0    0 -0.28313282691E+03  0.26592043379E+03  0.19211493420E+04  0.21574611470E+04  0.90163514352E+03 0.  0.
         23    2    4    4    0    0  0.24805313280E+03  0.94994595626E+02  0.19737098704E+03  0.34334078265E+03  0.91505500475E+02 0.  0.
         23    2    4    4    0    0 -0.53118595970E+03  0.17092583817E+03  0.17237783549E+04  0.18141203644E+04  0.90811417905E+02 0.  0.
         13    1    3    3    0    0  0.25443820080E+03 -0.20085472036E+03  0.14764681920E+03  0.35620359338E+03  0.00000000000E+00 0. -1.
        -13    1    3    3    0    0  0.28694626113E+02 -0.65065713438E+02  0.55521922941E+01  0.71328503926E+02  0.00000000000E+00 0.  1.
          2    1    5    5  502    0  0.20444821801E+03  0.10250729232E+03  0.13098424968E+03  0.26355965642E+03  0.00000000000E+00 0. -1.
          3    1    6    6  503    0 -0.52893169588E+03  0.15780940925E+03  0.16786580084E+04  0.17670781696E+04  0.00000000000E+00 0. -1.
         -2    1    5    5    0  502  0.43604914785E+02 -0.75126966974E+01  0.66386737366E+02  0.79781126234E+02  0.00000000000E+00 0.  1.
         -3    1    6    6    0  503 -0.22542638187E+01  0.13116428913E+02  0.45120346564E+02  0.47042194750E+02  0.00000000000E+00 0.  1.
<mgrwt>
<rscale>  0 0.15424879E+04</rscale>
<asrwt>0</asrwt>
<pdfrwt beam="1">  1        2 0.35841088E+00 0.15424879E+04</pdfrwt>
<pdfrwt beam="2">  1       -2 0.39280378E-01 0.15424879E+04</pdfrwt>
<totfact> 0.25777800E+01</totfact>
</mgrwt>
</event>
<event>
12    1  0.4672461E-008  0.1517044E+04  0.7818608E-02  0.8873198E-01
         -2   -1    0    0    0  501 -0.00000000000E+00  0.00000000000E+00  0.60038414251E+03  0.60038414251E+03  0.00000000000E+00 0.  1.
          2   -1    0    0  501    0  0.00000000000E+00 -0.00000000000E+00 -0.95831197842E+03  0.95831197842E+03  0.00000000000E+00 0. -1.
         23    2    1    2    0    0  0.37612689739E+03 -0.28465220457E+03 -0.19114761370E+03  0.51679646467E+03  0.89681966764E+02 0.  0.
        254    2    1    2    0    0 -0.37612689739E+03  0.28465220457E+03 -0.16678022221E+03  0.10418996563E+04  0.91391516603E+03 0.  0.
         23    2    4    4    0    0 -0.59649413525E+02 -0.58714946721E+02  0.33209352274E+03  0.35256753669E+03  0.83739253538E+02 0.  0.
         23    2    4    4    0    0 -0.31647748387E+03  0.34336715129E+03 -0.49887374495E+03  0.68933211958E+03  0.90800656976E+02 0.  0.
         13    1    3    3    0    0 -0.35073859995E+01  0.82572518143E+00  0.18972198625E+01  0.40722256606E+01  0.00000000000E+00 0.  1.
        -13    1    3    3    0    0  0.37963428339E+03 -0.28547792975E+03 -0.19304483356E+03  0.51272423901E+03  0.00000000000E+00 0. -1.
          1    1    5    5  502    0 -0.17388944812E+02 -0.68994767158E+02  0.16080290536E+03  0.17584148449E+03  0.00000000000E+00 0. -1.
          3    1    6    6  503    0 -0.73265610114E+01  0.72141363058E+01  0.30550997251E+01  0.10726411013E+02  0.00000000000E+00 0. -1.
         -1    1    5    5    0  502 -0.42260468713E+02  0.10279820437E+02  0.17129061738E+03  0.17672605220E+03  0.00000000000E+00 0.  1.
         -3    1    6    6    0  503 -0.30915092286E+03  0.33615301498E+03 -0.50192884467E+03  0.67860570856E+03  0.00000000000E+00 0.  1.
<mgrwt>
<rscale>  0 0.15170436E+04</rscale>
<asrwt>0</asrwt>
<pdfrwt beam="1">  1        2 0.14743261E+00 0.15170436E+04</pdfrwt>
<pdfrwt beam="2">  1       -2 0.92366792E-01 0.15170436E+04</pdfrwt>
<totfact> 0.25751069E+01</totfact>
</mgrwt>
</event>
<event>
12    1  0.4784820E-008  0.1691270E+04  0.7818608E-02  0.8766359E-01
          1   -1    0    0  501    0  0.00000000000E+00  0.00000000000E+00  0.12115381770E+04  0.12115381770E+04  0.00000000000E+00 0. -1.
         -1   -1    0    0    0  501 -0.00000000000E+00 -0.00000000000E+00 -0.59024019103E+03  0.59024019103E+03  0.00000000000E+00 0.  1.
         23    2    1    2    0    0 -0.51688672899E+03 -0.26116855736E+03  0.17350509393E+03  0.61147201312E+03  0.91722948365E+02 0.  0.
        254    2    1    2    0    0  0.51688672899E+03  0.26116855736E+03  0.44779289207E+03  0.11903063549E+04  0.93857862668E+03 0.  0.
         23    2    4    4    0    0  0.41337154732E+03  0.16023607647E+03  0.73071256269E+03  0.85961162446E+03  0.91867618316E+02 0.  0.
         23    2    4    4    0    0  0.10351518166E+03  0.10093248089E+03 -0.28291967062E+03  0.33069473048E+03  0.91720805753E+02 0.  0.
         13    1    3    3    0    0 -0.45861404467E+02 -0.32603233351E+02  0.45843702712E+02  0.72580192360E+02  0.00000000000E+00 0.  1.
        -13    1    3    3    0    0 -0.47102532452E+03 -0.22856532401E+03  0.12766139122E+03  0.53889182076E+03  0.00000000000E+00 0. -1.
          4    1    5    5  502    0  0.36121856263E+03  0.10594094906E+03  0.62955697966E+03  0.73351504778E+03  0.00000000000E+00 0. -1.
          3    1    6    6  503    0  0.11514867152E+03  0.10453236643E+03 -0.27569740437E+03  0.31653639753E+03  0.00000000000E+00 0. -1.
         -4    1    5    5    0  502  0.52152984686E+02  0.54295127414E+02  0.10115558304E+03  0.12609657669E+03  0.00000000000E+00 0.  1.
         -3    1    6    6    0  503 -0.11633489855E+02 -0.35998855415E+01 -0.72222662548E+01  0.14158332952E+02  0.00000000000E+00 0.  1.
<mgrwt>
<rscale>  0 0.16912700E+04</rscale>
<asrwt>0</asrwt>
<pdfrwt beam="1">  1        1 0.18639049E+00 0.16912700E+04</pdfrwt>
<pdfrwt beam="2">  1       -1 0.90806183E-01 0.16912700E+04</pdfrwt>
<totfact> 0.11821130E+01</totfact>
</mgrwt>
</event>
<event>
12    1  0.4672461E-008  0.1947799E+04  0.7818608E-02  0.8631423E-01
          2   -1    0    0  501    0  0.00000000000E+00  0.00000000000E+00  0.83468070815E+03  0.83468070815E+03  0.00000000000E+00 0.  1.
         -2   -1    0    0    0  501 -0.00000000000E+00 -0.00000000000E+00 -0.11363386533E+04  0.11363386533E+04  0.00000000000E+00 0. -1.
         23    2    1    2    0    0  0.44521456961E+03  0.59911622008E+03  0.59269777149E+02  0.75444423142E+03  0.92287234658E+02 0.  0.
        254    2    1    2    0    0 -0.44521456961E+03 -0.59911622008E+03 -0.36092772229E+03  0.12165751300E+04  0.89029768512E+03 0.  0.
         23    2    4    4    0    0 -0.66562705855E+03 -0.61168974261E+03 -0.35825871910E+03  0.97685869717E+03  0.93165885096E+02 0.  0.
         23    2    4    4    0    0  0.22041248894E+03  0.12573522525E+02 -0.26690031855E+01  0.23971643285E+03  0.93365335390E+02 0.  0.
         11    1    3    3    0    0  0.19705168632E+03  0.20541042181E+03  0.49720875209E+02  0.28895496864E+03  0.00000000000E+00 0.  1.
        -11    1    3    3    0    0  0.24816288329E+03  0.39370579827E+03  0.95489019394E+01  0.46548926278E+03  0.00000000000E+00 0. -1.
          4    1    5    5  502    0 -0.61682339220E+03 -0.53097407754E+03 -0.31014639575E+03  0.87097379695E+03  0.00000000000E+00 0. -1.
          1    1    6    6  503    0  0.74804599721E+02  0.40787212712E+02  0.25102587562E+02  0.88822659060E+02  0.00000000000E+00 0.  1.
         -4    1    5    5    0  502 -0.48803666356E+02 -0.80715665061E+02 -0.48112323356E+02  0.10588490022E+03  0.00000000000E+00 0.  1.
         -1    1    6    6    0  503  0.14560788922E+03 -0.28213690187E+02 -0.27771590748E+02  0.15089377379E+03  0.00000000000E+00 0. -1.
<mgrwt>
<rscale>  0 0.19477987E+04</rscale>
<asrwt>0</asrwt>
<pdfrwt beam="1">  1        2 0.12841242E+00 0.19477987E+04</pdfrwt>
<pdfrwt beam="2">  1       -2 0.17482133E+00 0.19477987E+04</pdfrwt>
<totfact> 0.59785893E+00</totfact>
</mgrwt>
</event>
<event>
12    1  0.4672461E-008  0.2475963E+04  0.7818608E-02  0.8411599E-01
          1   -1    0    0  501    0  0.00000000000E+00  0.00000000000E+00  0.14203383523E+04  0.14203383523E+04  0.00000000000E+00 0. -1.
         -1   -1    0    0    0  501 -0.00000000000E+00 -0.00000000000E+00 -0.10790373405E+04  0.10790373405E+04  0.00000000000E+00 0.  1.
         23    2    1    2    0    0  0.60281724576E+03  0.68658350757E+03  0.72085975606E+03  0.11673609564E+04  0.91144225850E+02 0.  0.
        254    2    1    2    0    0 -0.60281724576E+03 -0.68658350757E+03 -0.37955874426E+03  0.13320147365E+04  0.89185922281E+03 0.  0.
         23    2    4    4    0    0 -0.62427589291E+03 -0.54747904899E+03 -0.61903516879E+03  0.10396762705E+04  0.90931334699E+02 0.  0.
         23    2    4    4    0    0  0.21458647151E+02 -0.13910445858E+03  0.23947642454E+03  0.29233846605E+03  0.91116940728E+02 0.  0.
         11    1    3    3    0    0  0.50947811132E+03  0.55399606741E+03  0.55290473709E+03  0.93390750983E+03  0.00000000000E+00 0. -1.
        -11    1    3    3    0    0  0.93339134440E+02  0.13258744016E+03  0.16795501897E+03  0.23345344654E+03  0.00000000000E+00 0.  1.
          1    1    5    5  502    0 -0.60449017261E+03 -0.53127295389E+03 -0.57617797426E+03  0.98976784063E+03  0.00000000000E+00 0. -1.
          3    1    6    6  503    0  0.42250658333E+02 -0.14044885718E+03  0.21382034214E+03  0.25928775197E+03  0.00000000000E+00 0. -1.
         -1    1    5    5    0  502 -0.19785720300E+02 -0.16206095097E+02 -0.42857194539E+02  0.49908429848E+02  0.00000000000E+00 0.  1.
         -3    1    6    6    0  503 -0.20792011182E+02  0.13443986000E+01  0.25656082399E+02  0.33050714072E+02  0.00000000000E+00 0.  1.
<mgrwt>
<rscale>  0 0.24759629E+04</rscale>
<asrwt>0</asrwt>
<pdfrwt beam="1">  1        1 0.21851359E+00 0.24759629E+04</pdfrwt>
<pdfrwt beam="2">  1       -1 0.16600574E+00 0.24759629E+04</pdfrwt>
<totfact> 0.17433929E+00</totfact>
</mgrwt>
</event>
<event>
12    1  0.4672461E-008  0.2805516E+04  0.7818608E-02  0.8301558E-01
          2   -1    0    0  501    0  0.00000000000E+00  0.00000000000E+00  0.14047999775E+04  0.14047999775E+04  0.00000000000E+00 0. -1.
         -2   -1    0    0    0  501 -0.00000000000E+00 -0.00000000000E+00 -0.14007194458E+04  0.14007194458E+04  0.00000000000E+00 0.  1.
         23    2    1    2    0    0  0.71743155367E+03  0.84735431424E+03  0.58983128162E+03  0.12604056678E+04  0.89465851839E+02 0.  0.
        254    2    1    2    0    0 -0.71743155367E+03 -0.84735431424E+03 -0.58575074987E+03  0.15451137555E+04  0.90086359026E+03 0.  0.
         23    2    4    4    0    0  0.40066594391E+02 -0.28241533898E+03 -0.51216637557E+03  0.59310358579E+03  0.89965057290E+02 0.  0.
         23    2    4    4    0    0 -0.75749814806E+03 -0.56493897526E+03 -0.73584374294E+02  0.95201016967E+03  0.89158358656E+02 0.  0.
         11    1    3    3    0    0  0.52414423767E+03  0.59396513631E+03  0.37795814574E+03  0.87770959033E+03  0.00000000000E+00 0. -1.
        -11    1    3    3    0    0  0.19328731601E+03  0.25338917793E+03  0.21187313589E+03  0.38269607750E+03  0.00000000000E+00 0.  1.
          2    1    5    5  502    0  0.29850964864E+02 -0.20374652050E+03 -0.44024896779E+03  0.48602765184E+03  0.00000000000E+00 0. -1.
          3    1    6    6  503    0 -0.65941168034E+03 -0.49097447196E+03 -0.33550622719E+02  0.82280334258E+03  0.00000000000E+00 0. -1.
         -2    1    5    5    0  502  0.10215629527E+02 -0.78668818482E+02 -0.71917407782E+02  0.10707593394E+03  0.00000000000E+00 0.  1.
         -3    1    6    6    0  503 -0.98086467728E+02 -0.73964503305E+02 -0.40033751575E+02  0.12920682709E+03  0.00000000000E+00 0.  1.
<mgrwt>
<rscale>  0 0.28055165E+04</rscale>
<asrwt>0</asrwt>
<pdfrwt beam="1">  1        2 0.21612307E+00 0.28055165E+04</pdfrwt>
<pdfrwt beam="2">  1       -2 0.21549530E+00 0.28055165E+04</pdfrwt>
<totfact> 0.13205099E+00</totfact>
</mgrwt>
</event>
<event>
12    1  0.4672461E-008  0.2741326E+04  0.7818608E-02  0.8321719E-01
          1   -1    0    0  501    0  0.00000000000E+00  0.00000000000E+00  0.12961176834E+04  0.12961176834E+04  0.00000000000E+00 0. -1.
         -1   -1    0    0    0  501 -0.00000000000E+00 -0.00000000000E+00 -0.14494957406E+04  0.14494957406E+04  0.00000000000E+00 0.  1.
         23    2    1    2    0    0 -0.11311323648E+04 -0.66416282925E+02  0.39104770238E+03  0.12019617323E+04  0.89006465516E+02 0.  0.
        254    2    1    2    0    0  0.11311323648E+04  0.66416282925E+02 -0.54442575957E+03  0.15436516916E+04  0.89587364511E+03 0.  0.
         23    2    4    4    0    0  0.11946139205E+04  0.22761486260E+03 -0.35619322360E+03  0.12709310087E+04  0.97370795072E+02 0.  0.
         23    2    4    4    0    0 -0.63481555643E+02 -0.16119857967E+03 -0.18823253597E+03  0.27272068291E+03  0.94499699972E+02 0.  0.
         13    1    3    3    0    0 -0.68037458702E+03 -0.36230718071E+02  0.28082256022E+03  0.73694202887E+03  0.00000000000E+00 0. -1.
        -13    1    3    3    0    0 -0.45075777781E+03 -0.30185564853E+02  0.11022514216E+03  0.46501970340E+03  0.00000000000E+00 0.  1.
          2    1    5    5  502    0  0.47423167303E+02  0.15816104576E+02  0.36242987444E+01  0.50122265536E+02  0.00000000000E+00 0. -1.
          1    1    6    6  503    0  0.13486959539E+02 -0.33761920498E+02 -0.82389238945E+02  0.90054161743E+02  0.00000000000E+00 0. -1.
         -2    1    5    5    0  502  0.11471907532E+04  0.21179875802E+03 -0.35981752234E+03  0.12208087432E+04  0.00000000000E+00 0.  1.
         -1    1    6    6    0  503 -0.76968515182E+02 -0.12743665917E+03 -0.10584329703E+03  0.18266652117E+03  0.00000000000E+00 0.  1.
<mgrwt>
<rscale>  0 0.27413260E+04</rscale>
<asrwt>0</asrwt>
<pdfrwt beam="1">  1        1 0.19940272E+00 0.27413260E+04</pdfrwt>
<pdfrwt beam="2">  1       -1 0.22299934E+00 0.27413260E+04</pdfrwt>
<totfact> 0.83234017E-01</totfact>
</mgrwt>
</event>
<event>
12    1  0.4672461E-008  0.1065919E+04  0.7818608E-02  0.9239061E-01
         -2   -1    0    0    0  501 -0.00000000000E+00  0.00000000000E+00  0.15366445297E+03  0.15366445297E+03  0.00000000000E+00 0.  1.
          2   -1    0    0  501    0  0.00000000000E+00 -0.00000000000E+00 -0.18484817730E+04  0.18484817730E+04  0.00000000000E+00 0. -1.
         23    2    1    2    0    0  0.33670767414E+01  0.76594738288E+02 -0.64549147662E+02  0.13551606201E+03  0.91213592521E+02 0.  0.
        254    2    1    2    0    0 -0.33670767414E+01 -0.76594738288E+02 -0.16302681724E+04  0.18666301640E+04  0.90590052655E+03 0.  0.
         23    2    4    4    0    0 -0.37581251074E+03  0.17126159051E+03 -0.10215748427E+04  0.11058734252E+04  0.93676559087E+02 0.  0.
         23    2    4    4    0    0  0.37244543400E+03 -0.24785632879E+03 -0.60869332971E+03  0.76075673878E+03  0.89971578519E+02 0.  0.
         11    1    3    3    0    0 -0.17117505465E+01  0.51668694360E+02  0.13496172035E+02  0.53429680201E+02  0.00000000000E+00 0.  1.
        -11    1    3    3    0    0  0.50788272879E+01  0.24926043928E+02 -0.78045319697E+02  0.82086381813E+02  0.00000000000E+00 0. -1.
          1    1    6    6  502    0  0.57969250774E+02 -0.14509675882E+02 -0.46961196129E+02  0.76002096493E+02  0.00000000000E+00 0. -1.
          1    1    5    5  503    0 -0.18452958243E+03  0.33637723285E+02 -0.43325226320E+03  0.47211247260E+03  0.00000000000E+00 0. -1.
         -1    1    5    5    0  503 -0.19128292832E+03  0.13762386722E+03 -0.58832257948E+03  0.63376095258E+03  0.00000000000E+00 0.  1.
         -1    1    6    6    0  502  0.31447618323E+03 -0.23334665291E+03 -0.56173213358E+03  0.68475464229E+03  0.00000000000E+00 0.  1.
<mgrwt>
<rscale>  0 0.10659192E+04</rscale>
<asrwt>0</asrwt>
<pdfrwt beam="1">  1        2 0.28438180E+00 0.10659192E+04</pdfrwt>
<pdfrwt beam="2">  1       -2 0.23640686E-01 0.10659192E+04</pdfrwt>
<totfact> 0.12820852E+02</totfact>
</mgrwt>
</event>
<event>
12    1  0.4672461E-008  0.1024504E+04  0.7818608E-02  0.9282070E-01
         -2   -1    0    0    0  501 -0.00000000000E+00  0.00000000000E+00  0.59938954211E+03  0.59938954211E+03  0.00000000000E+00 0.  1.
          2   -1    0    0  501    0  0.00000000000E+00 -0.00000000000E+00 -0.43778242257E+03  0.43778242257E+03  0.00000000000E+00 0. -1.
         23    2    1    2    0    0 -0.16101675768E+02  0.50639791442E+02 -0.21086271689E+02  0.11580900195E+03  0.10071465454E+03 0.  0.
        254    2    1    2    0    0  0.16101675768E+02 -0.50639791442E+02  0.18269339123E+03  0.92136296273E+03  0.90150384439E+03 0.  0.
         23    2    4    4    0    0 -0.27552255226E+02  0.24241122101E+03 -0.26809536734E+03  0.37376622295E+03  0.91124840694E+02 0.  0.
         23    2    4    4    0    0  0.43653930995E+02 -0.29305101245E+03  0.45078875857E+03  0.54759673977E+03  0.94165402184E+02 0.  0.
         11    1    3    3    0    0 -0.35875057612E+01  0.30830380273E+02 -0.61616870767E+02  0.68992907668E+02  0.00000000000E+00 0. -1.
        -11    1    3    3    0    0 -0.12514170007E+02  0.19809411170E+02  0.40530599078E+02  0.46816094278E+02  0.00000000000E+00 0.  1.
          2    1    6    6  502    0  0.14919195871E+02 -0.24226671876E+03  0.40979754495E+03  0.47628749015E+03  0.00000000000E+00 0. -1.
          2    1    5    5  503    0 -0.60446932338E+02  0.16554708107E+03 -0.16987019567E+03  0.24477653290E+03  0.00000000000E+00 0. -1.
         -2    1    5    5    0  503  0.32894677112E+02  0.76864139938E+02 -0.98225171673E+02  0.12898969006E+03  0.00000000000E+00 0.  1.
         -2    1    6    6    0  502  0.28734735123E+02 -0.50784293692E+02  0.40991213621E+02  0.71309249629E+02  0.00000000000E+00 0.  1.
<mgrwt>
<rscale>  0 0.10245042E+04</rscale>
<asrwt>0</asrwt>
<pdfrwt beam="1">  1        2 0.67351142E-01 0.10245042E+04</pdfrwt>
<pdfrwt beam="2">  1       -2 0.92213775E-01 0.10245042E+04</pdfrwt>
<totfact> 0.71525006E+01</totfact>
</mgrwt>
</event>
<event>
12    1  0.4672461E-008  0.1105722E+04  0.7818608E-02  0.9199632E-01
         -1   -1    0    0    0  501 -0.00000000000E+00  0.00000000000E+00  0.13244768862E+03  0.13244768862E+03  0.00000000000E+00 0.  1.
          1   -1    0    0  501    0  0.00000000000E+00 -0.00000000000E+00 -0.23077450611E+04  0.23077450611E+04  0.00000000000E+00 0. -1.
         23    2    1    2    0    0  0.13847653691E+03 -0.22970904511E+02 -0.17656626948E+03  0.24402188784E+03  0.93100056388E+02 0.  0.
        254    2    1    2    0    0 -0.13847653691E+03  0.22970904511E+02 -0.19987311030E+04  0.21961708618E+04  0.89918686528E+03 0.  0.
         23    2    4    4    0    0 -0.28829307803E+03 -0.28185573595E+03 -0.46584396703E+03  0.62296948974E+03  0.92329999442E+02 0.  0.
         23    2    4    4    0    0  0.14981654112E+03  0.30482664046E+03 -0.15328871359E+04  0.15732013721E+04  0.99273908610E+02 0.  0.
         13    1    3    3    0    0 -0.12171322135E+01  0.18168996668E+02 -0.41850616167E+02  0.45640638955E+02  0.00000000000E+00 0. -1.
        -13    1    3    3    0    0  0.13969366913E+03 -0.41139901178E+02 -0.13471565331E+03  0.19838124889E+03  0.00000000000E+00 0.  1.
          1    1    5    5  502    0 -0.22499373225E+03 -0.17309580960E+03 -0.28161229247E+03  0.39986225394E+03  0.00000000000E+00 0. -1.
          3    1    6    6  503    0  0.10950919139E+03  0.16819034646E+03 -0.10781864260E+04  0.10967069913E+04  0.00000000000E+00 0. -1.
         -1    1    5    5    0  502 -0.63299345783E+02 -0.10875992635E+03 -0.18423167456E+03  0.22310723580E+03  0.00000000000E+00 0.  1.
         -3    1    6    6    0  503  0.40307349730E+02  0.13663629400E+03 -0.45470070994E+03  0.47649438076E+03  0.00000000000E+00 0.  1.
<mgrwt>
<rscale>  0 0.11057224E+04</rscale>
<asrwt>0</asrwt>
<pdfrwt beam="1">  1        1 0.35503768E+00 0.11057224E+04</pdfrwt>
<pdfrwt beam="2">  1       -1 0.20376569E-01 0.11057224E+04</pdfrwt>
<totfact> 0.36530066E+01</totfact>
</mgrwt>
</event>
<event>
12    1  0.4672461E-008  0.2142512E+04  0.7818608E-02  0.8542744E-01
         -2   -1    0    0    0  501 -0.00000000000E+00  0.00000000000E+00  0.36486824129E+03  0.36486824129E+03  0.00000000000E+00 0.  1.
          2   -1    0    0  501    0  0.00000000000E+00 -0.00000000000E+00 -0.31452146417E+04  0.31452146417E+04  0.00000000000E+00 0. -1.
         23    2    1    2    0    0  0.13062653723E+03 -0.33225244699E+03 -0.24670413300E+04  0.24944049192E+04  0.91148210727E+02 0.  0.
        254    2    1    2    0    0 -0.13062653723E+03  0.33225244699E+03 -0.31330507049E+03  0.10156779639E+04  0.89776760819E+03 0.  0.
         23    2    4    4    0    0 -0.65613740971E+02  0.60077560962E+03 -0.34011081401E+02  0.61223254255E+03  0.91844631701E+02 0.  0.
         23    2    4    4    0    0 -0.65012796258E+02 -0.26852316263E+03 -0.27929398909E+03  0.40344542131E+03  0.91824414448E+02 0.  0.
         13    1    3    3    0    0  0.81571486494E+02 -0.14416367715E+03 -0.14040938652E+04  0.14138304903E+04  0.00000000000E+00 0. -1.
        -13    1    3    3    0    0  0.49055050735E+02 -0.18808876984E+03 -0.10629474648E+04  0.10805744288E+04  0.00000000000E+00 0.  1.
          1    1    5    5  502    0 -0.40784422977E+02  0.96444761810E+02 -0.22796093999E+02  0.10716633398E+03  0.00000000000E+00 0. -1.
          3    1    6    6  503    0  0.19423354951E+02 -0.26613297311E+02 -0.48317030259E+02  0.58481362197E+02  0.00000000000E+00 0. -1.
         -1    1    5    5    0  502 -0.24829317994E+02  0.50433084781E+03 -0.11214987402E+02  0.50506620856E+03  0.00000000000E+00 0.  1.
         -3    1    6    6    0  503 -0.84436151209E+02 -0.24190986532E+03 -0.23097695883E+03  0.34496405911E+03  0.00000000000E+00 0.  1.
<mgrwt>
<rscale>  0 0.21425115E+04</rscale>
<asrwt>0</asrwt>
<pdfrwt beam="1">  1        2 0.48387916E+00 0.21425115E+04</pdfrwt>
<pdfrwt beam="2">  1       -2 0.56133578E-01 0.21425115E+04</pdfrwt>
<totfact> 0.38593859E+00</totfact>
</mgrwt>
</event>
<event>
12    1  0.4672461E-008  0.2727410E+04  0.7818608E-02  0.8326166E-01
         -2   -1    0    0    0  501 -0.00000000000E+00  0.00000000000E+00  0.24063496062E+04  0.24063496062E+04  0.00000000000E+00 0.  1.
          2   -1    0    0  501    0  0.00000000000E+00 -0.00000000000E+00 -0.77282676647E+03  0.77282676647E+03  0.00000000000E+00 0. -1.
         23    2    1    2    0    0  0.79272210109E+03  0.35849614300E+03 -0.20556024504E+03  0.89795563758E+03  0.84507387897E+02 0.  0.
        254    2    1    2    0    0 -0.79272210109E+03 -0.35849614300E+03  0.18390830847E+04  0.22812207351E+04  0.10318980741E+04 0.  0.
         23    2    4    4    0    0 -0.10117541929E+04 -0.42277553025E+03  0.14326490822E+04  0.18063922498E+04  0.90464753838E+02 0.  0.
         23    2    4    4    0    0  0.21903209185E+03  0.64279387254E+02  0.40643400257E+03  0.47482848523E+03  0.90369215174E+02 0.  0.
         11    1    3    3    0    0  0.22753586943E+03  0.75307701899E+02 -0.27842531015E+02  0.24128619599E+03  0.00000000000E+00 0.  1.
        -11    1    3    3    0    0  0.56518623166E+03  0.28318844110E+03 -0.17771771403E+03  0.65666944158E+03  0.00000000000E+00 0. -1.
          4    1    5    5  502    0 -0.89880044804E+03 -0.37389578913E+03  0.12210522463E+04  0.15616045898E+04  0.00000000000E+00 0. -1.
          3    1    6    6  503    0  0.17457046141E+03  0.10155317859E+02  0.27481645972E+03  0.32573311624E+03  0.00000000000E+00 0. -1.
         -4    1    5    5    0  502 -0.11295374490E+03 -0.48879741130E+02  0.21159683584E+03  0.24478766006E+03  0.00000000000E+00 0.  1.
         -3    1    6    6    0  503  0.44461630438E+02  0.54124069395E+02  0.13161754285E+03  0.14909536899E+03  0.00000000000E+00 0.  1.
<mgrwt>
<rscale>  0 0.27274100E+04</rscale>
<asrwt>0</asrwt>
<pdfrwt beam="1">  1        2 0.11889643E+00 0.27274100E+04</pdfrwt>
<pdfrwt beam="2">  1       -2 0.37020763E+00 0.27274100E+04</pdfrwt>
<totfact> 0.36531914E-01</totfact>
</mgrwt>
</event>
<event>
12    1  0.4672461E-008  0.1896491E+04  0.7818608E-02  0.8656605E-01
          2   -1    0    0  501    0  0.00000000000E+00  0.00000000000E+00  0.23746065333E+04  0.23746065333E+04  0.00000000000E+00 0.  1.
         -2   -1    0    0    0  501 -0.00000000000E+00 -0.00000000000E+00 -0.37866060952E+03  0.37866060952E+03  0.00000000000E+00 0. -1.
         23    2    1    2    0    0  0.48301837130E+03 -0.53524063648E+03  0.65666908186E+03  0.97941981369E+03  0.90882354874E+02 0.  0.
        254    2    1    2    0    0 -0.48301837130E+03  0.53524063648E+03  0.13392768419E+04  0.17738473291E+04  0.91273358754E+03 0.  0.
         23    2    4    4    0    0 -0.66265236183E+03  0.48882326702E+03  0.13295616319E+04  0.15666919028E+04  0.93450769195E+02 0.  0.
         23    2    4    4    0    0  0.17963399053E+03  0.46417369456E+02  0.97152100103E+01  0.20715542632E+03  0.91629922018E+02 0.  0.
         11    1    3    3    0    0  0.19411868729E+03 -0.24925520990E+03  0.34000603952E+03  0.46412749469E+03  0.00000000000E+00 0. -1.
        -11    1    3    3    0    0  0.28889968401E+03 -0.28598542658E+03  0.31666304234E+03  0.51529231900E+03  0.00000000000E+00 0.  1.
          4    1    5    5  502    0 -0.47635727891E+03  0.31549733428E+03  0.97870019392E+03  0.11332735304E+04  0.00000000000E+00 0. -1.
          1    1    6    6  503    0  0.16121219791E+03  0.67729507919E+02 -0.58716795285E+01  0.17496038300E+03  0.00000000000E+00 0. -1.
         -4    1    5    5    0  502 -0.18629508292E+03  0.17332593275E+03  0.35086143800E+03  0.43341837243E+03  0.00000000000E+00 0.  1.
         -1    1    6    6    0  503  0.18421792615E+02 -0.21312138464E+02  0.15586889539E+02  0.32195043323E+02  0.00000000000E+00 0.  1.
<mgrwt>
<rscale>  0 0.18964915E+04</rscale>
<asrwt>0</asrwt>
<pdfrwt beam="1">  1        2 0.36532407E+00 0.18964915E+04</pdfrwt>
<pdfrwt beam="2">  1       -2 0.58255480E-01 0.18964915E+04</pdfrwt>
<totfact> 0.10620507E+01</totfact>
</mgrwt>
</event>
<event>
12    1  0.4672461E-008  0.2128833E+04  0.7818608E-02  0.8548648E-01
          1   -1    0    0  501    0  0.00000000000E+00  0.00000000000E+00  0.77861997146E+03  0.77861997146E+03  0.00000000000E+00 0. -1.
         -1   -1    0    0    0  501 -0.00000000000E+00 -0.00000000000E+00 -0.14551158248E+04  0.14551158248E+04  0.00000000000E+00 0.  1.
         23    2    1    2    0    0 -0.14308754348E+03  0.79100110659E+03  0.56632670078E+02  0.81108182666E+03  0.92139429599E+02 0.  0.
        254    2    1    2    0    0  0.14308754348E+03 -0.79100110659E+03 -0.73312852341E+03  0.14226539696E+04  0.91668429115E+03 0.  0.
         23    2    4    4    0    0 -0.37685874194E+03 -0.28420317728E+03 -0.21988002161E+03  0.52874860647E+03  0.91836308647E+02 0.  0.
         23    2    4    4    0    0  0.51994628542E+03 -0.50679792931E+03 -0.51324850180E+03  0.89390536312E+03  0.91948315632E+02 0.  0.
         11    1    3    3    0    0 -0.38405261740E+02  0.70959404064E+02  0.16560257232E+02  0.82367731995E+02  0.00000000000E+00 0.  1.
        -11    1    3    3    0    0 -0.10468228174E+03  0.72004170253E+03  0.40072412846E+02  0.72871409466E+03  0.00000000000E+00 0. -1.
          2    1    5    5  502    0 -0.11383803590E+03 -0.90522873207E+02 -0.11585752213E+03  0.18594745071E+03  0.00000000000E+00 0. -1.
          4    1    6    6  503    0  0.32719584198E+02 -0.71355598528E+01 -0.30718237440E+02  0.45443344023E+02  0.00000000000E+00 0. -1.
         -2    1    5    5    0  502 -0.26302070604E+03 -0.19368030407E+03 -0.10402249948E+03  0.34280115576E+03  0.00000000000E+00 0.  1.
         -4    1    6    6    0  503  0.48722670122E+03 -0.49966236946E+03 -0.48253026436E+03  0.84846201910E+03  0.00000000000E+00 0.  1.
<mgrwt>
<rscale>  0 0.21288328E+04</rscale>
<asrwt>0</asrwt>
<pdfrwt beam="1">  1        1 0.11978769E+00 0.21288328E+04</pdfrwt>
<pdfrwt beam="2">  1       -1 0.22386397E+00 0.21288328E+04</pdfrwt>
<totfact> 0.21960723E+00</totfact>
</mgrwt>
</event>
<event>
12    1  0.4672461E-008  0.1655798E+04  0.7818608E-02  0.8786984E-01
          1   -1    0    0  501    0  0.00000000000E+00  0.00000000000E+00  0.32469324595E+04  0.32469324595E+04  0.00000000000E+00 0. -1.
         -1   -1    0    0    0  501 -0.00000000000E+00 -0.00000000000E+00 -0.21109661798E+03  0.21109661798E+03  0.00000000000E+00 0.  1.
         23    2    1    2    0    0  0.21255967935E+03  0.47261877667E+03  0.15869234326E+04  0.16720087019E+04  0.93471884300E+02 0.  0.
        254    2    1    2    0    0 -0.21255967935E+03 -0.47261877667E+03  0.14489124089E+04  0.17860203755E+04  0.90662643227E+03 0.  0.
         23    2    4    4    0    0  0.32228470200E+03 -0.17521641712E+02  0.43955745675E+03  0.55298747741E+03  0.91705808507E+02 0.  0.
         23    2    4    4    0    0 -0.53484438135E+03 -0.45509713496E+03  0.10093549522E+04  0.12330328981E+04  0.91655844478E+02 0.  0.
         13    1    3    3    0    0  0.11820407684E+03  0.33888755119E+03  0.98987702406E+03  0.10529356575E+04  0.00000000000E+00 0. -1.
        -13    1    3    3    0    0  0.94355602516E+02  0.13373122548E+03  0.59704640853E+03  0.61907304442E+03  0.00000000000E+00 0.  1.
          1    1    5    5  502    0  0.11956140815E+03  0.20921692231E+02  0.10800988914E+03  0.16247702507E+03  0.00000000000E+00 0. -1.
          3    1    6    6  503    0 -0.64994975325E+02 -0.81600478388E+02  0.10831899103E+03  0.15038613203E+03  0.00000000000E+00 0. -1.
         -1    1    5    5    0  502  0.20272329385E+03 -0.38443333943E+02  0.33154756761E+03  0.39051045234E+03  0.00000000000E+00 0.  1.
         -3    1    6    6    0  503 -0.46984940603E+03 -0.37349665657E+03  0.90103596115E+03  0.10826467661E+04  0.00000000000E+00 0.  1.
<mgrwt>
<rscale>  0 0.16557976E+04</rscale>
<asrwt>0</asrwt>
<pdfrwt beam="1">  1        1 0.49952804E+00 0.16557976E+04</pdfrwt>
<pdfrwt beam="2">  1       -1 0.32476405E-01 0.16557976E+04</pdfrwt>
<totfact> 0.33404727E+00</totfact>
</mgrwt>
</event>
<event>
12    1  0.4672461E-008  0.1655682E+04  0.7818608E-02  0.8787052E-01
          2   -1    0    0  501    0  0.00000000000E+00  0.00000000000E+00  0.23343043844E+04  0.23343043844E+04  0.00000000000E+00 0. -1.
         -2   -1    0    0    0  501 -0.00000000000E+00 -0.00000000000E+00 -0.29358672397E+03  0.29358672397E+03  0.00000000000E+00 0.  1.
         23    2    1    2    0    0  0.37458601694E+03  0.27771573037E+03  0.18014367824E+03  0.50827422179E+03  0.91925125741E+02 0.  0.
        254    2    1    2    0    0 -0.37458601694E+03 -0.27771573037E+03  0.18605739822E+04  0.21196168866E+04  0.90199750096E+03 0.  0.
         23    2    4    4    0    0  0.26503592409E+03  0.83813395789E+01  0.77768535562E+03  0.82675702573E+03  0.91751726681E+02 0.  0.
         23    2    4    4    0    0 -0.63962194103E+03 -0.28609706995E+03  0.10828886266E+04  0.12928598609E+04  0.88719115064E+02 0.  0.
         11    1    3    3    0    0  0.30232182601E+03  0.26286320469E+03  0.16315935344E+03  0.43256967702E+03  0.00000000000E+00 0.  1.
        -11    1    3    3    0    0  0.72264190930E+02  0.14852525682E+02  0.16984324801E+02  0.75704544770E+02  0.00000000000E+00 0. -1.
          3    1    6    6  502    0 -0.30923664159E+03 -0.15595915320E+03  0.45912546418E+03  0.57510585967E+03  0.00000000000E+00 0. -1.
          3    1    5    5  503    0  0.14677552023E+02 -0.23025311896E+02  0.98582361184E+02  0.10229407343E+03  0.00000000000E+00 0. -1.
         -3    1    5    5    0  503  0.25035837207E+03  0.31406651475E+02  0.67910299443E+03  0.72446295231E+03  0.00000000000E+00 0.  1.
         -3    1    6    6    0  502 -0.33038529944E+03 -0.13013791675E+03  0.62376316243E+03  0.71775400122E+03  0.00000000000E+00 0.  1.
<mgrwt>
<rscale>  0 0.16556821E+04</rscale>
<asrwt>0</asrwt>
<pdfrwt beam="1">  1        2 0.35912374E+00 0.16556821E+04</pdfrwt>
<pdfrwt beam="2">  1       -2 0.45167190E-01 0.16556821E+04</pdfrwt>
<totfact> 0.19259941E+01</totfact>
</mgrwt>
</event>
<event>
12    1  0.4672461E-008  0.1692076E+04  0.7818608E-02  0.8765897E-01
          1   -1    0    0  501    0  0.00000000000E+00  0.00000000000E+00  0.13998957160E+04  0.13998957160E+04  0.00000000000E+00 0. -1.
         -1   -1    0    0    0  501 -0.00000000000E+00 -0.00000000000E+00 -0.51130974795E+03  0.51130974795E+03  0.00000000000E+00 0.  1.
         23    2    1    2    0    0  0.13553102245E+03  0.39457659718E+03  0.80030739573E+03  0.90711984075E+03  0.91187327695E+02 0.  0.
        254    2    1    2    0    0 -0.13553102245E+03 -0.39457659718E+03  0.88278572313E+02  0.10040856232E+04  0.90902996831E+03 0.  0.
         23    2    4    4    0    0 -0.18106638908E+03 -0.67232531201E+03  0.52702009588E+02  0.70477154300E+03  0.95493788189E+02 0.  0.
         23    2    4    4    0    0  0.45535366633E+02  0.27774871484E+03  0.35576562726E+02  0.29931408019E+03  0.95422264562E+02 0.  0.
         11    1    3    3    0    0 -0.11851026302E+02  0.25282334533E+02  0.35873955252E+02  0.45459695658E+02  0.00000000000E+00 0.  1.
        -11    1    3    3    0    0  0.14738204875E+03  0.36929426264E+03  0.76443344048E+03  0.86166014509E+03  0.00000000000E+00 0. -1.
          2    1    5    5  502    0 -0.84508691718E+02 -0.18572271074E+03  0.43315216247E+02  0.20859255073E+03  0.00000000000E+00 0. -1.
          3    1    6    6  503    0  0.45969918408E+02  0.24004685738E+03 -0.42836399068E+01  0.24444647002E+03  0.00000000000E+00 0. -1.
         -2    1    5    5    0  502 -0.96557697366E+02 -0.48660260127E+03  0.93867933405E+01  0.49617899227E+03  0.00000000000E+00 0.  1.
         -3    1    6    6    0  503 -0.43455177502E+00  0.37701857457E+02  0.39860202633E+02  0.54867610162E+02  0.00000000000E+00 0.  1.
<mgrwt>
<rscale>  0 0.16920760E+04</rscale>
<asrwt>0</asrwt>
<pdfrwt beam="1">  1        1 0.21536857E+00 0.16920760E+04</pdfrwt>
<pdfrwt beam="2">  1       -1 0.78663039E-01 0.16920760E+04</pdfrwt>
<totfact> 0.11830739E+01</totfact>
</mgrwt>
</event>
<event>
12    1  0.4672461E-008  0.1194663E+04  0.7818608E-02  0.9117541E-01
         -2   -1    0    0    0  501 -0.00000000000E+00  0.00000000000E+00  0.24786771777E+03  0.24786771777E+03  0.00000000000E+00 0.  1.
          2   -1    0    0  501    0  0.00000000000E+00 -0.00000000000E+00 -0.14394966287E+04  0.14394966287E+04  0.00000000000E+00 0. -1.
         23    2    1    2    0    0 -0.99502855658E+02 -0.44331413005E+02 -0.59949761223E+03  0.61619250227E+03  0.91813508358E+02 0.  0.
        254    2    1    2    0    0  0.99502855658E+02  0.44331413005E+02 -0.59213129871E+03  0.10711718442E+04  0.88595911443E+03 0.  0.
         23    2    4    4    0    0  0.20954561116E+03  0.39415826211E+03 -0.12907521517E+03  0.47358900140E+03  0.91411335891E+02 0.  0.
         23    2    4    4    0    0 -0.11004275550E+03 -0.34982684910E+03 -0.46305608355E+03  0.59758284281E+03  0.90532232489E+02 0.  0.
         11    1    3    3    0    0 -0.24375370426E+02 -0.12757074131E+02 -0.29265898247E+02  0.40167081348E+02  0.00000000000E+00 0.  1.
        -11    1    3    3    0    0 -0.75127485232E+02 -0.31574338875E+02 -0.57023171398E+03  0.57602542092E+03  0.00000000000E+00 0. -1.
          4    1    5    5  502    0  0.99487245762E+02  0.13392869547E+03 -0.10489956653E+02  0.16716652395E+03  0.00000000000E+00 0. -1.
          1    1    6    6  503    0 -0.31023228387E+02 -0.12795066103E+03 -0.10221941914E+03  0.16668119872E+03  0.00000000000E+00 0. -1.
         -4    1    5    5    0  502  0.11005836540E+03  0.26022956664E+03 -0.11858525851E+03  0.30642247744E+03  0.00000000000E+00 0.  1.
         -1    1    6    6    0  503 -0.79019527113E+02 -0.22187618807E+03 -0.36083666441E+03  0.43090164409E+03  0.00000000000E+00 0.  1.
<mgrwt>
<rscale>  0 0.11946627E+04</rscale>
<asrwt>0</asrwt>
<pdfrwt beam="1">  1        2 0.22146102E+00 0.11946627E+04</pdfrwt>
<pdfrwt beam="2">  1       -2 0.38133495E-01 0.11946627E+04</pdfrwt>
<totfact> 0.87987527E+01</totfact>
</mgrwt>
</event>
<event>
12    1  0.4672461E-008  0.1846525E+04  0.7818608E-02  0.8681942E-01
         -2   -1    0    0    0  501 -0.00000000000E+00  0.00000000000E+00  0.54056649193E+03  0.54056649193E+03  0.00000000000E+00 0.  1.
          2   -1    0    0  501    0  0.00000000000E+00 -0.00000000000E+00 -0.15768888640E+04  0.15768888640E+04  0.00000000000E+00 0. -1.
         23    2    1    2    0    0 -0.29531382403E+03 -0.56906629038E+03 -0.71856110532E+02  0.65138866667E+03  0.89984426047E+02 0.  0.
        254    2    1    2    0    0  0.29531382403E+03  0.56906629038E+03 -0.96446626154E+03  0.14660666892E+04  0.89894920333E+03 0.  0.
         23    2    4    4    0    0  0.14881273465E+03  0.42474515407E+03  0.18257262951E+02  0.45780235355E+03  0.81829037453E+02 0.  0.
         23    2    4    4    0    0  0.14650108938E+03  0.14432113632E+03 -0.98272352449E+03  0.10082643357E+04  0.92521810826E+02 0.  0.
         11    1    3    3    0    0 -0.27605901320E+03 -0.53475981315E+03 -0.44464745727E+02  0.60345153090E+03  0.00000000000E+00 0. -1.
        -11    1    3    3    0    0 -0.19254810836E+02 -0.34306477233E+02 -0.27391364805E+02  0.47937135775E+02  0.00000000000E+00 0.  1.
          1    1    5    5  502    0  0.15466437122E+03  0.35245587849E+03  0.14018654095E+02  0.38515287441E+03  0.00000000000E+00 0. -1.
          3    1    6    6  503    0  0.70198991835E+02  0.12972826353E+03 -0.66857014777E+03  0.68464835011E+03  0.00000000000E+00 0. -1.
         -1    1    5    5    0  502 -0.58516365706E+01  0.72289275581E+02  0.42386088560E+01  0.72649479142E+02  0.00000000000E+00 0.  1.
         -3    1    6    6    0  503  0.76302097550E+02  0.14592872781E+02 -0.31415337672E+03  0.32361598559E+03  0.00000000000E+00 0.  1.
<mgrwt>
<rscale>  0 0.18465246E+04</rscale>
<asrwt>0</asrwt>
<pdfrwt beam="1">  1        2 0.24259828E+00 0.18465246E+04</pdfrwt>
<pdfrwt beam="2">  1       -2 0.83164076E-01 0.18465246E+04</pdfrwt>
<totfact> 0.13683646E+01</totfact>
</mgrwt>
</event>
<event>
12    1  0.4672461E-008  0.2171601E+04  0.7818608E-02  0.8530342E-01
          2   -1    0    0  501    0  0.00000000000E+00  0.00000000000E+00  0.11485752766E+04  0.11485752766E+04  0.00000000000E+00 0. -1.
         -2   -1    0    0    0  501 -0.00000000000E+00 -0.00000000000E+00 -0.10264567319E+04  0.10264567319E+04  0.00000000000E+00 0.  1.
         23    2    1    2    0    0 -0.16291212420E+03  0.30295215576E+03  0.91582727052E+03  0.98261353978E+03  0.92029398780E+02 0.  0.
        254    2    1    2    0    0  0.16291212420E+03 -0.30295215576E+03 -0.79370872580E+03  0.11924184688E+04  0.82071182173E+03 0.  0.
         23    2    4    4    0    0 -0.56968494038E+02 -0.27055631596E+03  0.67110347044E+02  0.29886967833E+03  0.91504953547E+02 0.  0.
         23    2    4    4    0    0  0.21988061824E+03 -0.32395839802E+02 -0.86081907285E+03  0.89354879044E+03  0.89571133719E+02 0.  0.
         11    1    3    3    0    0 -0.15271324245E+03  0.28814388979E+03  0.90417584817E+03  0.96118791090E+03  0.00000000000E+00 0. -1.
        -11    1    3    3    0    0 -0.10198881757E+02  0.14808265973E+02  0.11651422346E+02  0.21425628880E+02  0.00000000000E+00 0.  1.
          2    1    5    5  502    0 -0.49684892237E+02 -0.26759589602E+03  0.45594038944E+02  0.27596189677E+03  0.00000000000E+00 0. -1.
          4    1    6    6  503    0  0.10615912888E+03 -0.24445095750E+02 -0.58572682465E+03  0.59577112759E+03  0.00000000000E+00 0. -1.
         -2    1    5    5    0  502 -0.72836018013E+01 -0.29604199398E+01  0.21516308100E+02  0.22907781553E+02  0.00000000000E+00 0.  1.
         -4    1    6    6    0  503  0.11372148936E+03 -0.79507440519E+01 -0.27509224820E+03  0.29777766285E+03  0.00000000000E+00 0.  1.
<mgrwt>
<rscale>  0 0.21716011E+04</rscale>
<asrwt>0</asrwt>
<pdfrwt beam="1">  1        2 0.17670389E+00 0.21716011E+04</pdfrwt>
<pdfrwt beam="2">  1       -2 0.15791642E+00 0.21716011E+04</pdfrwt>
<totfact> 0.48651191E+00</totfact>
</mgrwt>
</event>
<event>
12    1  0.4672461E-008  0.2561302E+04  0.7818608E-02  0.8381466E-01
         -1   -1    0    0    0  501 -0.00000000000E+00  0.00000000000E+00  0.20488503612E+04  0.20488503612E+04  0.00000000000E+00 0.  1.
          1   -1    0    0  501    0  0.00000000000E+00 -0.00000000000E+00 -0.80048162751E+03  0.80048162751E+03  0.00000000000E+00 0. -1.
         23    2    1    2    0    0  0.92664513847E+03  0.41238073432E+03  0.12902312414E+02  0.10180876790E+04  0.87217944435E+02 0.  0.
        254    2    1    2    0    0 -0.92664513847E+03 -0.41238073432E+03  0.12354664212E+04  0.18312443096E+04  0.89350397925E+03 0.  0.
         23    2    4    4    0    0 -0.53654477507E+03 -0.42865144842E+03  0.12496805482E+04  0.14289339785E+04  0.92349783351E+02 0.  0.
         23    2    4    4    0    0 -0.39010036339E+03  0.16270714093E+02 -0.14214126949E+02  0.40231033116E+03  0.95961093671E+02 0.  0.
         13    1    3    3    0    0  0.11600833833E+03  0.22052675410E+02 -0.50395363870E+01  0.11819328230E+03  0.00000000000E+00 0.  1.
        -13    1    3    3    0    0  0.81063680014E+03  0.39032805891E+03  0.17941848801E+02  0.89989439672E+03  0.00000000000E+00 0. -1.
          1    1    5    5  502    0 -0.46944026606E+03 -0.36032074656E+03  0.11306708420E+04  0.12761746576E+04  0.00000000000E+00 0. -1.
          3    1    6    6  503    0 -0.34937362254E+03  0.42980388883E+02 -0.16475750623E+01  0.35201130161E+03  0.00000000000E+00 0. -1.
         -1    1    5    5    0  502 -0.67104509018E+02 -0.68330701859E+02  0.11900970617E+03  0.15275932086E+03  0.00000000000E+00 0.  1.
         -3    1    6    6    0  503 -0.40726740850E+02 -0.26709674790E+02 -0.12566551886E+02  0.50299029552E+02  0.00000000000E+00 0.  1.
<mgrwt>
<rscale>  0 0.25613021E+04</rscale>
<asrwt>0</asrwt>
<pdfrwt beam="1">  1        1 0.12315102E+00 0.25613021E+04</pdfrwt>
<pdfrwt beam="2">  1       -1 0.31520775E+00 0.25613021E+04</pdfrwt>
<totfact> 0.51343347E-01</totfact>
</mgrwt>
</event>
<event>
12    1  0.4672461E-008  0.1319855E+04  0.7818608E-02  0.9013967E-01
          3   -1    0    0  501    0  0.00000000000E+00  0.00000000000E+00  0.67205437232E+03  0.67205437232E+03  0.00000000000E+00 0. -1.
         -3   -1    0    0    0  501 -0.00000000000E+00 -0.00000000000E+00 -0.64801932310E+03  0.64801932310E+03  0.00000000000E+00 0.  1.
         23    2    1    2    0    0  0.27300032829E+03 -0.61294569372E+02 -0.19517703528E+03  0.35327761697E+03  0.91786687888E+02 0.  0.
        254    2    1    2    0    0 -0.27300032829E+03  0.61294569372E+02  0.21921208450E+03  0.96679607845E+03  0.89908537739E+03 0.  0.
         23    2    4    4    0    0  0.27413658371E+03 -0.51102603080E+02  0.27086188793E+03  0.39870810341E+03  0.88541780092E+02 0.  0.
         23    2    4    4    0    0 -0.54713691200E+03  0.11239717245E+03 -0.51649803429E+02  0.56808797504E+03  0.89801560903E+02 0.  0.
         13    1    3    3    0    0  0.74498823885E+02 -0.88852267227E+01 -0.10498012211E+03  0.12903429022E+03  0.00000000000E+00 0.  1.
        -13    1    3    3    0    0  0.19850150441E+03 -0.52409342649E+02 -0.90196913164E+02  0.22424332675E+03  0.00000000000E+00 0. -1.
          2    1    5    5  502    0  0.62608048769E+02  0.24983479278E+02  0.71154420919E+02  0.98014762275E+02  0.00000000000E+00 0. -1.
          3    1    6    6  503    0  0.27798216379E+01 -0.19921022869E+01 -0.25346109667E+01  0.42567749074E+01  0.00000000000E+00 0. -1.
         -2    1    5    5    0  502  0.21152853494E+03 -0.76086082358E+02  0.19970746701E+03  0.30069334113E+03  0.00000000000E+00 0.  1.
         -3    1    6    6    0  503 -0.54991673364E+03  0.11438927474E+03 -0.49115192463E+02  0.56383120013E+03  0.00000000000E+00 0.  1.
<mgrwt>
<rscale>  0 0.13198549E+04</rscale>
<asrwt>0</asrwt>
<pdfrwt beam="1">  1        3 0.10339298E+00 0.13198549E+04</pdfrwt>
<pdfrwt beam="2">  1       -3 0.99695281E-01 0.13198549E+04</pdfrwt>
<totfact> 0.18264269E+00</totfact>
</mgrwt>
</event>
<event>
12    1  0.4672461E-008  0.2047631E+04  0.7818608E-02  0.8584670E-01
         -1   -1    0    0    0  501 -0.00000000000E+00  0.00000000000E+00  0.60657194963E+03  0.60657194963E+03  0.00000000000E+00 0.  1.
          1   -1    0    0  501    0  0.00000000000E+00 -0.00000000000E+00 -0.17280691204E+04  0.17280691204E+04  0.00000000000E+00 0. -1.
         23    2    1    2    0    0 -0.11101547776E+03  0.54720716615E+03 -0.11307850960E+04  0.12645021323E+04  0.92361194218E+02 0.  0.
        254    2    1    2    0    0  0.11101547776E+03 -0.54720716615E+03  0.92879252149E+01  0.10701389378E+04  0.91288058453E+03 0.  0.
         23    2    4    4    0    0 -0.18032186264E+03 -0.66092480608E+03 -0.14874911556E+03  0.70731556628E+03  0.93975728150E+02 0.  0.
         23    2    4    4    0    0  0.29133734040E+03  0.11371763994E+03  0.15803704078E+03  0.36282337150E+03  0.94106031174E+02 0.  0.
         13    1    3    3    0    0 -0.84788374303E+02  0.49144372440E+03 -0.94128188254E+03  0.10652312355E+04  0.00000000000E+00 0. -1.
        -13    1    3    3    0    0 -0.26227103461E+02  0.55763441751E+02 -0.18950321348E+03  0.19927089680E+03  0.00000000000E+00 0.  1.
          4    1    5    5  502    0  0.96251138988E+01 -0.60492271889E+02 -0.57449706176E+01  0.61522048594E+02  0.00000000000E+00 0. -1.
          4    1    6    6  503    0  0.67964620067E+02  0.72196348033E+02  0.41621332881E+02  0.10753528538E+03  0.00000000000E+00 0. -1.
         -4    1    5    5    0  502 -0.18994697654E+03 -0.60043253420E+03 -0.14300414495E+03  0.64579351769E+03  0.00000000000E+00 0.  1.
         -4    1    6    6    0  503  0.22337272034E+03  0.41521291902E+02  0.11641570790E+03  0.25528808612E+03  0.00000000000E+00 0.  1.
<mgrwt>
<rscale>  0 0.20476311E+04</rscale>
<asrwt>0</asrwt>
<pdfrwt beam="1">  1        1 0.26585679E+00 0.20476311E+04</pdfrwt>
<pdfrwt beam="2">  1       -1 0.93318761E-01 0.20476311E+04</pdfrwt>
<totfact> 0.46950442E+00</totfact>
</mgrwt>
</event>
<event>
12    1  0.4672461E-008  0.2153820E+04  0.7818608E-02  0.8537899E-01
         -2   -1    0    0    0  501 -0.00000000000E+00  0.00000000000E+00  0.83219590914E+03  0.83219590914E+03  0.00000000000E+00 0. -1.
          2   -1    0    0  501    0  0.00000000000E+00 -0.00000000000E+00 -0.13935841730E+04  0.13935841730E+04  0.00000000000E+00 0.  1.
         23    2    1    2    0    0 -0.71107574028E+03 -0.50823805446E+03 -0.77178236065E+02  0.88604718615E+03  0.12324166318E+03 0.  0.
        254    2    1    2    0    0  0.71107574028E+03  0.50823805446E+03 -0.48421002783E+03  0.13397328960E+04  0.89246302624E+03 0.  0.
         23    2    4    4    0    0 -0.10896948165E+03  0.30519686165E+03 -0.34179877605E+03  0.47821059792E+03  0.82701271820E+02 0.  0.
         23    2    4    4    0    0  0.82004522193E+03  0.20304119280E+03 -0.14241125178E+03  0.86152229810E+03  0.90773418426E+02 0.  0.
         13    1    3    3    0    0 -0.12267464806E+03 -0.73852856320E+02  0.31583356021E+02  0.14663158610E+03  0.00000000000E+00 0.  1.
        -13    1    3    3    0    0 -0.58840109222E+03 -0.43438519814E+03 -0.10876159209E+03  0.73941560005E+03  0.00000000000E+00 0. -1.
          2    1    5    5  502    0 -0.92169516612E+02  0.16102001412E+03 -0.15577509903E+03  0.24225719023E+03  0.00000000000E+00 0.  1.
          4    1    6    6  503    0  0.38127538963E+03  0.79233186505E+02 -0.22281566349E+02  0.39005805821E+03  0.00000000000E+00 0. -1.
         -2    1    5    5    0  502 -0.16799965039E+02  0.14417684753E+03 -0.18602367702E+03  0.23595340769E+03  0.00000000000E+00 0. -1.
         -4    1    6    6    0  503  0.43876983231E+03  0.12380800630E+03 -0.12012968543E+03  0.47146423988E+03  0.00000000000E+00 0.  1.
<mgrwt>
<rscale>  0 0.21538199E+04</rscale>
<asrwt>0</asrwt>
<pdfrwt beam="1">  1        2 0.21439756E+00 0.21538199E+04</pdfrwt>
<pdfrwt beam="2">  1       -2 0.12803014E+00 0.21538199E+04</pdfrwt>
<totfact> 0.60453827E+00</totfact>
</mgrwt>
</event>
<event>
12    1  0.4672461E-008  0.2688110E+04  0.7818608E-02  0.8338873E-01
         -1   -1    0    0    0  501 -0.00000000000E+00  0.00000000000E+00  0.73892687508E+03  0.73892687508E+03  0.00000000000E+00 0.  1.
          1   -1    0    0  501    0  0.00000000000E+00 -0.00000000000E+00 -0.24447398204E+04  0.24447398204E+04  0.00000000000E+00 0. -1.
         23    2    1    2    0    0  0.16325756938E+03  0.90568584670E+03  0.13759452627E+03  0.93505244937E+03  0.92037723440E+02 0.  0.
        254    2    1    2    0    0 -0.16325756938E+03 -0.90568584670E+03 -0.18434074716E+04  0.22486142461E+04  0.90066366343E+03 0.  0.
         23    2    4    4    0    0  0.10374874224E+03 -0.58957288075E+03 -0.36043252263E+03  0.70623115897E+03  0.10242491540E+03 0.  0.
         23    2    4    4    0    0 -0.26700631162E+03 -0.31611296595E+03 -0.14829749489E+04  0.15423830871E+04  0.92255680525E+02 0.  0.
         11    1    3    3    0    0  0.11239809755E+03  0.37049715043E+03  0.64473858810E+02  0.39250267423E+03  0.00000000000E+00 0. -1.
        -11    1    3    3    0    0  0.50859471832E+02  0.53518869627E+03  0.73120667462E+02  0.54254977513E+03  0.00000000000E+00 0.  1.
          2    1    5    5  502    0  0.40389092502E+02 -0.91031011874E+02 -0.27199229442E+02  0.10323624363E+03  0.00000000000E+00 0.  1.
          4    1    6    6  503    0 -0.24314785236E+03 -0.23142139977E+03 -0.11973561029E+04  0.12435185481E+04  0.00000000000E+00 0. -1.
         -2    1    5    5    0  502  0.63359649738E+02 -0.49854186888E+03 -0.33323329319E+03  0.60299491534E+03  0.00000000000E+00 0. -1.
         -4    1    6    6    0  503 -0.23858459257E+02 -0.84691566180E+02 -0.28561884605E+03  0.29886453901E+03  0.00000000000E+00 0.  1.
<mgrwt>
<rscale>  0 0.26881101E+04</rscale>
<asrwt>0</asrwt>
<pdfrwt beam="1">  1        1 0.37611382E+00 0.26881101E+04</pdfrwt>
<pdfrwt beam="2">  1       -1 0.11368106E+00 0.26881101E+04</pdfrwt>
<totfact> 0.91221026E-01</totfact>
</mgrwt>
</event>
<event>
12    1  0.4672461E-008  0.2001451E+04  0.7818608E-02  0.8605943E-01
          2   -1    0    0  501    0  0.00000000000E+00  0.00000000000E+00  0.19008214616E+04  0.19008214616E+04  0.00000000000E+00 0.  1.
         -2   -1    0    0    0  501 -0.00000000000E+00 -0.00000000000E+00 -0.52685182797E+03  0.52685182797E+03  0.00000000000E+00 0. -1.
         23    2    1    2    0    0 -0.30938021411E+03  0.50093353224E+03  0.11996691720E+04  0.13398369716E+04  0.96470035249E+02 0.  0.
        254    2    1    2    0    0  0.30938021411E+03 -0.50093353224E+03  0.17430046166E+03  0.10878363180E+04  0.89797365392E+03 0.  0.
         23    2    4    4    0    0  0.33128140964E+03 -0.40832385753E+02 -0.27236330923E+03  0.44020581424E+03  0.90469500818E+02 0.  0.
         23    2    4    4    0    0 -0.21901195526E+02 -0.46010114649E+03  0.44666377090E+03  0.64763050372E+03  0.88000100863E+02 0.  0.
         13    1    3    3    0    0 -0.82537283868E+02  0.15456115962E+03  0.26655664813E+03  0.31898903109E+03  0.00000000000E+00 0. -1.
        -13    1    3    3    0    0 -0.22684293025E+03  0.34637237262E+03  0.93311252385E+03  0.10208479405E+04  0.00000000000E+00 0.  1.
          4    1    5    5  502    0  0.17023089189E+03 -0.39062740949E+02 -0.19418372895E+03  0.26117384033E+03  0.00000000000E+00 0. -1.
          3    1    6    6  503    0 -0.12407398227E+02 -0.41741999150E+03  0.43359475901E+03  0.60199485702E+03  0.00000000000E+00 0. -1.
         -4    1    5    5    0  502  0.16105051775E+03 -0.17696448039E+01 -0.78179580286E+02  0.17903197391E+03  0.00000000000E+00 0.  1.
         -3    1    6    6    0  503 -0.94937972981E+01 -0.42681154990E+02  0.13069011888E+02  0.45635646704E+02  0.00000000000E+00 0.  1.
<mgrwt>
<rscale>  0 0.20014507E+04</rscale>
<asrwt>0</asrwt>
<pdfrwt beam="1">  1        2 0.29243407E+00 0.20014507E+04</pdfrwt>
<pdfrwt beam="2">  1       -2 0.81054128E-01 0.20014507E+04</pdfrwt>
<totfact> 0.94563877E+00</totfact>
</mgrwt>
</event>
<event>
12    1  0.4672461E-008  0.1996560E+04  0.7818608E-02  0.8608231E-01
          2   -1    0    0  501    0  0.00000000000E+00  0.00000000000E+00  0.92505357133E+03  0.92505357133E+03  0.00000000000E+00 0. -1.
         -2   -1    0    0    0  501 -0.00000000000E+00 -0.00000000000E+00 -0.10773024963E+04  0.10773024963E+04  0.00000000000E+00 0.  1.
         23    2    1    2    0    0  0.52727068886E+03  0.35086756600E+03 -0.53549968129E+03  0.83406837818E+03  0.88248074274E+02 0.  0.
        254    2    1    2    0    0 -0.52727068886E+03 -0.35086756600E+03  0.38325075635E+03  0.11682876894E+04  0.90382108561E+03 0.  0.
         23    2    4    4    0    0 -0.46572681958E+03 -0.39336729405E+03  0.63823315133E+03  0.88716798243E+03  0.89923162111E+02 0.  0.
         23    2    4    4    0    0 -0.61543869287E+02  0.42499728054E+02 -0.25498239498E+03  0.28111970699E+03  0.91751802018E+02 0.  0.
         11    1    3    3    0    0  0.13163561694E+03  0.12404898597E+03 -0.18653586598E+03  0.25983016735E+03  0.00000000000E+00 0. -1.
        -11    1    3    3    0    0  0.39563507193E+03  0.22681858003E+03 -0.34896381531E+03  0.57423821083E+03  0.00000000000E+00 0.  1.
          4    1    5    5  502    0 -0.27333524169E+03 -0.18628478499E+03  0.38587181754E+03  0.50824328332E+03  0.00000000000E+00 0. -1.
          4    1    6    6  503    0 -0.60158484389E+02 -0.13575555836E+02 -0.11923549484E+03  0.13424024058E+03  0.00000000000E+00 0. -1.
         -4    1    5    5    0  502 -0.19239157788E+03 -0.20708250906E+03  0.25236133379E+03  0.37892469911E+03  0.00000000000E+00 0.  1.
         -4    1    6    6    0  503 -0.13853848982E+01  0.56075283890E+02 -0.13574690014E+03  0.14687946641E+03  0.00000000000E+00 0.  1.
<mgrwt>
<rscale>  0 0.19965596E+04</rscale>
<asrwt>0</asrwt>
<pdfrwt beam="1">  1        2 0.14231593E+00 0.19965596E+04</pdfrwt>
<pdfrwt beam="2">  1       -2 0.16573885E+00 0.19965596E+04</pdfrwt>
<totfact> 0.59924571E+00</totfact>
</mgrwt>
</event>
<event>
12    1  0.4672461E-008  0.1391794E+04  0.7818608E-02  0.8959780E-01
          1   -1    0    0  501    0  0.00000000000E+00  0.00000000000E+00  0.56980741062E+03  0.56980741062E+03  0.00000000000E+00 0. -1.
         -1   -1    0    0    0  501 -0.00000000000E+00 -0.00000000000E+00 -0.84988878569E+03  0.84988878569E+03  0.00000000000E+00 0.  1.
         23    2    1    2    0    0 -0.34017274053E+02  0.33282084049E+03 -0.29789009393E+03  0.45851976980E+03  0.97851849459E+02 0.  0.
        254    2    1    2    0    0  0.34017274053E+02 -0.33282084049E+03  0.17808718856E+02  0.96117642651E+03  0.90089737796E+03 0.  0.
         23    2    4    4    0    0 -0.20027208943E+03 -0.50813718671E+03  0.21902518373E+03  0.59506655030E+03  0.88429960145E+02 0.  0.
         23    2    4    4    0    0  0.23428936348E+03  0.17531634623E+03 -0.20121646487E+03  0.36610987621E+03  0.89000273210E+02 0.  0.
         11    1    3    3    0    0 -0.24486565177E+02  0.33430395681E+03 -0.29851515146E+03  0.44885412225E+03  0.00000000000E+00 0. -1.
        -11    1    3    3    0    0 -0.95307088752E+01 -0.14831163204E+01  0.62505752959E+00  0.96656475520E+01  0.00000000000E+00 0.  1.
          2    1    5    5  502    0 -0.15746063126E+03 -0.46861302251E+03  0.18674620788E+03  0.52845639500E+03  0.00000000000E+00 0. -1.
          1    1    6    6  503    0  0.20612138204E+03  0.17916629683E+03 -0.16155533883E+03  0.31731169780E+03  0.00000000000E+00 0. -1.
         -2    1    5    5    0  502 -0.42811458171E+02 -0.39524164207E+02  0.32278975850E+02  0.66610155298E+02  0.00000000000E+00 0.  1.
         -1    1    6    6    0  503  0.28167981435E+02 -0.38499506011E+01 -0.39661126041E+02  0.48798178415E+02  0.00000000000E+00 0.  1.
<mgrwt>
<rscale>  0 0.13917944E+04</rscale>
<asrwt>0</asrwt>
<pdfrwt beam="1">  1        1 0.87662679E-01 0.13917944E+04</pdfrwt>
<pdfrwt beam="2">  1       -1 0.13075212E+00 0.13917944E+04</pdfrwt>
<totfact> 0.17992772E+01</totfact>
</mgrwt>
</event>
<event>
12    1  0.4672461E-008  0.1916254E+04  0.7818608E-02  0.8646808E-01
         -1   -1    0    0    0  501 -0.00000000000E+00  0.00000000000E+00  0.11930401649E+04  0.11930401649E+04  0.00000000000E+00 0. -1.
          1   -1    0    0  501    0  0.00000000000E+00 -0.00000000000E+00 -0.76946930020E+03  0.76946930020E+03  0.00000000000E+00 0.  1.
         23    2    1    2    0    0 -0.68725736059E+03  0.96855563585E+02  0.44180576830E+03  0.82777060177E+03  0.91149066737E+02 0.  0.
        254    2    1    2    0    0  0.68725736059E+03 -0.96855563585E+02 -0.18234903584E+02  0.11347388633E+04  0.89755005230E+03 0.  0.
         23    2    4    4    0    0  0.18237420109E+03  0.36226899164E+03 -0.13550461967E+03  0.43741543790E+03  0.92041250742E+02 0.  0.
         23    2    4    4    0    0  0.50488315950E+03 -0.45912455522E+03  0.11726971608E+03  0.69732342544E+03  0.82494917375E+02 0.  0.
         13    1    3    3    0    0 -0.63553865898E+03  0.64271688708E+02  0.39919669596E+03  0.75325841455E+03  0.00000000000E+00 0. -1.
        -13    1    3    3    0    0 -0.51718701613E+02  0.32583874878E+02  0.42609072343E+02  0.74512187221E+02  0.00000000000E+00 0.  1.
          4    1    5    5  502    0  0.68021748468E+02  0.10353393424E+03 -0.84552929018E+02  0.14998477126E+03  0.00000000000E+00 0. -1.
          1    1    6    6  503    0  0.26949790700E+03 -0.21198854518E+03  0.25090201022E+02  0.34379904502E+03  0.00000000000E+00 0.  1.
         -4    1    5    5    0  502  0.11435245262E+03  0.25873505740E+03 -0.50951690650E+02  0.28743066664E+03  0.00000000000E+00 0.  1.
         -1    1    6    6    0  503  0.23538525250E+03 -0.24713601004E+03  0.92179515062E+02  0.35352438042E+03  0.00000000000E+00 0. -1.
<mgrwt>
<rscale>  0 0.19162545E+04</rscale>
<asrwt>0</asrwt>
<pdfrwt beam="1">  1        1 0.11837989E+00 0.19162545E+04</pdfrwt>
<pdfrwt beam="2">  1       -1 0.18354464E+00 0.19162545E+04</pdfrwt>
<totfact> 0.43143538E+00</totfact>
</mgrwt>
</event>
<event>
12    1  0.5280007E-008  0.2781479E+04  0.7818608E-02  0.8309041E-01
          1   -1    0    0  501    0  0.00000000000E+00  0.00000000000E+00  0.13128996060E+04  0.13128996060E+04  0.00000000000E+00 0.  1.
         -1   -1    0    0    0  501 -0.00000000000E+00 -0.00000000000E+00 -0.14731947545E+04  0.14731947545E+04  0.00000000000E+00 0. -1.
         23    2    1    2    0    0  0.36025294181E+03  0.56693452834E+03  0.97658413635E+03  0.11889161346E+04  0.92779621779E+02 0.  0.
        254    2    1    2    0    0 -0.36025294181E+03 -0.56693452834E+03 -0.11368792849E+04  0.15971782259E+04  0.89849142192E+03 0.  0.
         23    2    4    4    0    0 -0.38233304219E+03  0.13276611673E+03 -0.45816283421E+03  0.61772080993E+03  0.88659006624E+02 0.  0.
         23    2    4    4    0    0  0.22080100382E+02 -0.69970064507E+03 -0.67871645067E+03  0.97945741594E+03  0.92802401218E+02 0.  0.
         11    1    3    3    0    0  0.36249043203E+03  0.56881062047E+03  0.96775187297E+03  0.11796137177E+04  0.00000000000E+00 0.  1.
        -11    1    3    3    0    0 -0.22374902213E+01 -0.18760921341E+01  0.88322633812E+01  0.93024169236E+01  0.00000000000E+00 0. -1.
          1    1    5    5  502    0 -0.85218948782E+02  0.24994610536E+01 -0.60640104075E+02  0.10462188471E+03  0.00000000000E+00 0. -1.
          3    1    6    6  503    0  0.26637777384E+02 -0.18830638594E+03 -0.23556500624E+03  0.30275359343E+03  0.00000000000E+00 0. -1.
         -1    1    5    5    0  502 -0.29711409341E+03  0.13026665568E+03 -0.39752273014E+03  0.51309892522E+03  0.00000000000E+00 0.  1.
         -3    1    6    6    0  503 -0.45576770017E+01 -0.51139425913E+03 -0.44315144444E+03  0.67670382251E+03  0.00000000000E+00 0.  1.
<mgrwt>
<rscale>  0 0.27814793E+04</rscale>
<asrwt>0</asrwt>
<pdfrwt beam="1">  1        1 0.20198455E+00 0.27814793E+04</pdfrwt>
<pdfrwt beam="2">  1       -1 0.22664535E+00 0.27814793E+04</pdfrwt>
<totfact> 0.76297507E-01</totfact>
</mgrwt>
</event>
<event>
12    1  0.4672461E-008  0.1877351E+04  0.7818608E-02  0.8666213E-01
         -1   -1    0    0    0  501 -0.00000000000E+00  0.00000000000E+00  0.37759985060E+03  0.37759985060E+03  0.00000000000E+00 0.  1.
          1   -1    0    0  501    0  0.00000000000E+00 -0.00000000000E+00 -0.23334537819E+04  0.23334537819E+04  0.00000000000E+00 0. -1.
         23    2    1    2    0    0  0.63172098535E+03 -0.29535710384E+03 -0.92239168629E+03  0.11597987853E+04  0.89552092921E+02 0.  0.
        254    2    1    2    0    0 -0.63172098535E+03  0.29535710384E+03 -0.10334622450E+04  0.15512548472E+04  0.92306021851E+03 0.  0.
         23    2    4    4    0    0  0.49538848542E+02  0.42938343900E+03 -0.28032694615E+03  0.52303721484E+03  0.90335464570E+02 0.  0.
         23    2    4    4    0    0 -0.68125983389E+03 -0.13402633517E+03 -0.75313529890E+03  0.10282176324E+04  0.89110612913E+02 0.  0.
         11    1    3    3    0    0  0.16935423618E+03 -0.96556969805E+02 -0.32139404957E+03  0.37589658262E+03  0.00000000000E+00 0.  1.
        -11    1    3    3    0    0  0.46236674917E+03 -0.19880013403E+03 -0.60099763672E+03  0.78390220268E+03  0.00000000000E+00 0. -1.
          2    1    5    5  502    0  0.60511499847E+02  0.37338775287E+03 -0.21058632779E+03  0.43292800447E+03  0.00000000000E+00 0. -1.
          3    1    6    6  503    0 -0.45183853090E+03 -0.68372099110E+02 -0.43860721238E+03  0.63341067933E+03  0.00000000000E+00 0. -1.
         -2    1    5    5    0  502 -0.10972651305E+02  0.55995686133E+02 -0.69740618362E+02  0.90109210360E+02  0.00000000000E+00 0.  1.
         -3    1    6    6    0  503 -0.22942130300E+03 -0.65654236055E+02 -0.31452808652E+03  0.39480695307E+03  0.00000000000E+00 0.  1.
<mgrwt>
<rscale>  0 0.18773511E+04</rscale>
<asrwt>0</asrwt>
<pdfrwt beam="1">  1        1 0.35899289E+00 0.18773511E+04</pdfrwt>
<pdfrwt beam="2">  1       -1 0.58092285E-01 0.18773511E+04</pdfrwt>
<totfact> 0.49704864E+00</totfact>
</mgrwt>
</event>
<event>
12    1  0.4672461E-008  0.1896134E+04  0.7818608E-02  0.8656783E-01
          2   -1    0    0  501    0  0.00000000000E+00  0.00000000000E+00  0.38621804393E+04  0.38621804393E+04  0.00000000000E+00 0. -1.
         -2   -1    0    0    0  501 -0.00000000000E+00 -0.00000000000E+00 -0.23272632038E+03  0.23272632038E+03  0.00000000000E+00 0.  1.
         23    2    1    2    0    0 -0.51957177509E+03 -0.18210564460E+03  0.23225598979E+04  0.23885279672E+04  0.87544707765E+02 0.  0.
        254    2    1    2    0    0  0.51957177509E+03  0.18210564460E+03  0.13068942210E+04  0.17063787924E+04  0.94901990652E+03 0.  0.
         23    2    4    4    0    0  0.35285072720E+03  0.34598151625E+03  0.13608857267E+04  0.14506846308E+04  0.90934546386E+02 0.  0.
         23    2    4    4    0    0  0.16672104789E+03 -0.16387587165E+03 -0.53991505693E+02  0.25569416157E+03  0.88392377812E+02 0.  0.
         11    1    3    3    0    0 -0.36932024824E+03 -0.16916739720E+03  0.17355294002E+04  0.17824357921E+04  0.00000000000E+00 0. -1.
        -11    1    3    3    0    0 -0.15025152685E+03 -0.12938247398E+02  0.58703049769E+03  0.60609217516E+03  0.00000000000E+00 0.  1.
          2    1    5    5  502    0  0.22092554628E+03  0.15310807932E+03  0.72779026466E+03  0.77584073771E+03  0.00000000000E+00 0. -1.
          4    1    6    6  503    0  0.33061239009E+02 -0.26611919277E+02 -0.47915491279E+02  0.64008859363E+02  0.00000000000E+00 0. -1.
         -2    1    5    5    0  502  0.13192518092E+03  0.19287343692E+03  0.63309546203E+03  0.67484389312E+03  0.00000000000E+00 0.  1.
         -4    1    6    6    0  503  0.13365980888E+03 -0.13726395237E+03 -0.60760144138E+01  0.19168530220E+03  0.00000000000E+00 0.  1.
<mgrwt>
<rscale>  0 0.18961340E+04</rscale>
<asrwt>0</asrwt>
<pdfrwt beam="1">  1        2 0.59418156E+00 0.18961340E+04</pdfrwt>
<pdfrwt beam="2">  1       -2 0.35804052E-01 0.18961340E+04</pdfrwt>
<totfact> 0.30557530E+00</totfact>
</mgrwt>
</event>
<event>
12    1  0.4672461E-008  0.2427106E+04  0.7818608E-02  0.8429425E-01
          2   -1    0    0  501    0  0.00000000000E+00  0.00000000000E+00  0.91085416666E+03  0.91085416666E+03  0.00000000000E+00 0. -1.
         -2   -1    0    0    0  501 -0.00000000000E+00 -0.00000000000E+00 -0.16168459723E+04  0.16168459723E+04  0.00000000000E+00 0.  1.
         23    2    1    2    0    0 -0.79452171979E+03  0.57071714844E+03 -0.74706674530E+03  0.12342514744E+04  0.91022817418E+02 0.  0.
        254    2    1    2    0    0  0.79452171979E+03 -0.57071714844E+03  0.41074939690E+02  0.12934486646E+04  0.84518605671E+03 0.  0.
         23    2    4    4    0    0  0.48893383729E+03 -0.66161630134E+03  0.29282688049E+03  0.87773560665E+03  0.88768157593E+02 0.  0.
         23    2    4    4    0    0  0.30558788251E+03  0.90899152899E+02 -0.25175194080E+03  0.41571305792E+03  0.88270589067E+02 0.  0.
         13    1    3    3    0    0 -0.11554042300E+02 -0.20767774099E+01 -0.45598880819E+01  0.12593707841E+02  0.00000000000E+00 0. -1.
        -13    1    3    3    0    0 -0.78296767749E+03  0.57279392585E+03 -0.74250685722E+03  0.12216577665E+04  0.00000000000E+00 0.  1.
          2    1    5    5  502    0  0.14972321244E+03 -0.24614177181E+03  0.67107592630E+02  0.29581453846E+03  0.00000000000E+00 0. -1.
          1    1    6    6  503    0  0.14552143823E+03  0.89270067658E+02 -0.12770287601E+03  0.21319863627E+03  0.00000000000E+00 0. -1.
         -2    1    5    5    0  502  0.33921062485E+03 -0.41547452953E+03  0.22571928786E+03  0.58192106819E+03  0.00000000000E+00 0.  1.
         -1    1    6    6    0  503  0.16006644427E+03  0.16290852411E+01 -0.12404906479E+03  0.20251442165E+03  0.00000000000E+00 0.  1.
<mgrwt>
<rscale>  0 0.24271060E+04</rscale>
<asrwt>0</asrwt>
<pdfrwt beam="1">  1        2 0.14013141E+00 0.24271060E+04</pdfrwt>
<pdfrwt beam="2">  1       -2 0.24874553E+00 0.24271060E+04</pdfrwt>
<totfact> 0.16918906E+00</totfact>
</mgrwt>
</event>
<event>
12    1  0.4672461E-008  0.1495889E+04  0.7818608E-02  0.8887191E-01
         -2   -1    0    0    0  501 -0.00000000000E+00  0.00000000000E+00  0.19025243947E+03  0.19025243947E+03  0.00000000000E+00 0. -1.
          2   -1    0    0  501    0  0.00000000000E+00 -0.00000000000E+00 -0.29404144132E+04  0.29404144132E+04  0.00000000000E+00 0.  1.
         23    2    1    2    0    0 -0.35022770701E+03  0.30898558661E+03 -0.77518771578E+03  0.90967054149E+03  0.91939979627E+02 0.  0.
        254    2    1    2    0    0  0.35022770701E+03 -0.30898558661E+03 -0.19749742579E+04  0.22209963112E+04  0.90231355708E+03 0.  0.
         23    2    4    4    0    0 -0.29102389528E+03 -0.14970888727E+03 -0.52597750036E+03  0.62613980293E+03  0.91055276477E+02 0.  0.
         23    2    4    4    0    0  0.64125160229E+03 -0.15927669934E+03 -0.14489967576E+04  0.15948565083E+04  0.86040653612E+02 0.  0.
         13    1    3    3    0    0 -0.34057333285E+03  0.27253206161E+03 -0.68724731978E+03  0.81398574815E+03  0.00000000000E+00 0.  1.
        -13    1    3    3    0    0 -0.96543741586E+01  0.36453525001E+02 -0.87940396005E+02  0.95684793332E+02  0.00000000000E+00 0. -1.
          2    1    5    5  502    0 -0.84614910723E+02 -0.44444696202E+01 -0.10073084984E+03  0.13162879828E+03  0.00000000000E+00 0. -1.
          4    1    6    6  503    0  0.46897119788E+02 -0.11095037942E+02 -0.17072241297E+03  0.17739386123E+03  0.00000000000E+00 0. -1.
         -2    1    5    5    0  502 -0.20640898456E+03 -0.14526441765E+03 -0.42524665052E+03  0.49451100465E+03  0.00000000000E+00 0.  1.
         -4    1    6    6    0  503  0.59435448250E+03 -0.14818166140E+03 -0.12782743446E+04  0.14174626470E+04  0.00000000000E+00 0.  1.
<mgrwt>
<rscale>  0 0.14958891E+04</rscale>
<asrwt>0</asrwt>
<pdfrwt beam="1">  1        2 0.45237143E+00 0.14958891E+04</pdfrwt>
<pdfrwt beam="2">  1       -2 0.29269607E-01 0.14958891E+04</pdfrwt>
<totfact> 0.19815747E+01</totfact>
</mgrwt>
</event>
<event>
12    1  0.4672461E-008  0.1914744E+04  0.7818608E-02  0.8647552E-01
         -2   -1    0    0    0  501 -0.00000000000E+00  0.00000000000E+00  0.45060400468E+03  0.45060400468E+03  0.00000000000E+00 0.  1.
          2   -1    0    0  501    0  0.00000000000E+00 -0.00000000000E+00 -0.20340726854E+04  0.20340726854E+04  0.00000000000E+00 0. -1.
         23    2    1    2    0    0  0.53825619655E+03  0.21835813610E+03 -0.12263655773E+04  0.13600478525E+04  0.91420036526E+02 0.  0.
        254    2    1    2    0    0 -0.53825619655E+03 -0.21835813610E+03 -0.35710310340E+03  0.11246288376E+04  0.89435305512E+03 0.  0.
         23    2    4    4    0    0 -0.23547160030E+03  0.33940845563E+03 -0.10385416163E+03  0.43546214763E+03  0.90535191078E+02 0.  0.
         23    2    4    4    0    0 -0.30278459625E+03 -0.55776659173E+03 -0.25324894177E+03  0.68916668998E+03  0.89630449598E+02 0.  0.
         11    1    3    3    0    0  0.36459414111E+03  0.13897392512E+03 -0.72091126965E+03  0.81972903957E+03  0.00000000000E+00 0.  1.
        -11    1    3    3    0    0  0.17366205544E+03  0.79384210981E+02 -0.50545430764E+03  0.54031881289E+03  0.00000000000E+00 0. -1.
          4    1    6    6  502    0 -0.12499247778E+03 -0.15361651655E+03 -0.57739935423E+02  0.20628876315E+03  0.00000000000E+00 0. -1.
          4    1    5    5  503    0 -0.13728492028E+02  0.93921413735E+01 -0.25150669566E+02  0.30153606626E+02  0.00000000000E+00 0. -1.
         -4    1    5    5    0  503 -0.22174310827E+03  0.33001631426E+03 -0.78703492062E+02  0.40530854100E+03  0.00000000000E+00 0.  1.
         -4    1    6    6    0  502 -0.17779211847E+03 -0.40415007518E+03 -0.19550900635E+03  0.48287792683E+03  0.00000000000E+00 0.  1.
<mgrwt>
<rscale>  0 0.19147442E+04</rscale>
<asrwt>0</asrwt>
<pdfrwt beam="1">  1        2 0.31293426E+00 0.19147442E+04</pdfrwt>
<pdfrwt beam="2">  1       -2 0.69323693E-01 0.19147442E+04</pdfrwt>
<totfact> 0.11359318E+01</totfact>
</mgrwt>
</event>
<event>
12    1  0.4672461E-008  0.1772374E+04  0.7818608E-02  0.8721130E-01
         -1   -1    0    0    0  501 -0.00000000000E+00  0.00000000000E+00  0.96078411766E+03  0.96078411766E+03  0.00000000000E+00 0.  1.
          1   -1    0    0  501    0  0.00000000000E+00 -0.00000000000E+00 -0.81738151501E+03  0.81738151501E+03  0.00000000000E+00 0. -1.
         23    2    1    2    0    0  0.12924958100E+03 -0.64506655808E+03  0.64734194039E+02  0.66742408950E+03  0.91913441980E+02 0.  0.
        254    2    1    2    0    0 -0.12924958100E+03  0.64506655808E+03  0.78668408615E+02  0.11107415432E+04  0.89148288748E+03 0.  0.
         23    2    4    4    0    0  0.28913976196E+03  0.25462230788E+03 -0.22589826878E+03  0.45583766961E+03  0.91233938746E+02 0.  0.
         23    2    4    4    0    0 -0.41838934296E+03  0.39044425020E+03  0.30456667740E+03  0.65490387355E+03  0.92961646914E+02 0.  0.
         13    1    3    3    0    0  0.54875815388E+02 -0.33234144289E+03  0.77806632309E+02  0.34571095124E+03  0.00000000000E+00 0.  1.
        -13    1    3    3    0    0  0.74373765612E+02 -0.31272511519E+03 -0.13072438270E+02  0.32171313825E+03  0.00000000000E+00 0. -1.
          2    1    5    5  502    0  0.25647482499E+03  0.24650383278E+03 -0.17931949771E+03  0.39837037752E+03  0.00000000000E+00 0. -1.
          4    1    6    6  503    0 -0.25445040026E+02  0.62384449402E+01 -0.77963900230E+00  0.26210228808E+02  0.00000000000E+00 0.  1.
         -2    1    5    5    0  502  0.32664936971E+02  0.81184751047E+01 -0.46578771075E+02  0.57467292090E+02  0.00000000000E+00 0.  1.
         -4    1    6    6    0  503 -0.39294430294E+03  0.38420580526E+03  0.30534631640E+03  0.62869364475E+03  0.00000000000E+00 0. -1.
<mgrwt>
<rscale>  0 0.17723738E+04</rscale>
<asrwt>0</asrwt>
<pdfrwt beam="1">  1        1 0.12575100E+00 0.17723738E+04</pdfrwt>
<pdfrwt beam="2">  1       -1 0.14781294E+00 0.17723738E+04</pdfrwt>
<totfact> 0.73317499E+00</totfact>
</mgrwt>
</event>
<event>
12    1  0.4672461E-008  0.1054070E+04  0.7818608E-02  0.9251152E-01
         -1   -1    0    0    0  501 -0.00000000000E+00  0.00000000000E+00  0.10287208689E+04  0.10287208689E+04  0.00000000000E+00 0.  1.
          1   -1    0    0  501    0  0.00000000000E+00 -0.00000000000E+00 -0.27001087402E+03  0.27001087402E+03  0.00000000000E+00 0. -1.
         23    2    1    2    0    0 -0.10661172890E+03 -0.88208509643E+02  0.60307533719E+02  0.18104008942E+03  0.99958558629E+02 0.  0.
        254    2    1    2    0    0  0.10661172890E+03  0.88208509643E+02  0.69840246120E+03  0.11176916535E+04  0.86158100760E+03 0.  0.
         23    2    4    4    0    0 -0.27764002656E+03 -0.22293433074E+03  0.33430984232E+03  0.49685328236E+03  0.91194371274E+02 0.  0.
         23    2    4    4    0    0  0.38425175546E+03  0.31114284038E+03  0.36409261888E+03  0.62083837117E+03  0.91747312223E+02 0.  0.
         13    1    3    3    0    0 -0.84176244760E+02 -0.90880126655E+02  0.80831060152E+01  0.12413772273E+03  0.00000000000E+00 0. -1.
        -13    1    3    3    0    0 -0.22435484139E+02  0.26716170113E+01  0.52224427704E+02  0.56902366691E+02  0.00000000000E+00 0.  1.
          2    1    5    5  502    0 -0.17706406522E+03 -0.18879169611E+03  0.20969645939E+03  0.33311648532E+03  0.00000000000E+00 0. -1.
          3    1    6    6  503    0  0.28483600159E+03  0.27495582584E+03  0.30416139654E+03  0.49924584035E+03  0.00000000000E+00 0. -1.
         -2    1    5    5    0  502 -0.10057596134E+03 -0.34142634621E+02  0.12461338293E+03  0.16373679704E+03  0.00000000000E+00 0.  1.
         -3    1    6    6    0  503  0.99415753872E+02  0.36187014539E+02  0.59931222335E+02  0.12159253081E+03  0.00000000000E+00 0.  1.
<mgrwt>
<rscale>  0 0.10540699E+04</rscale>
<asrwt>0</asrwt>
<pdfrwt beam="1">  1        1 0.41540135E-01 0.10540699E+04</pdfrwt>
<pdfrwt beam="2">  1       -1 0.15826475E+00 0.10540699E+04</pdfrwt>
<totfact> 0.30291625E+01</totfact>
</mgrwt>
</event>
<event>
12    1  0.4672461E-008  0.1317620E+04  0.7818608E-02  0.9015708E-01
         -2   -1    0    0    0  501 -0.00000000000E+00  0.00000000000E+00  0.29170834451E+03  0.29170834451E+03  0.00000000000E+00 0.  1.
          2   -1    0    0  501    0  0.00000000000E+00 -0.00000000000E+00 -0.14878929692E+04  0.14878929692E+04  0.00000000000E+00 0. -1.
         23    2    1    2    0    0 -0.86714389871E+02 -0.26681600458E+03 -0.67384830041E+02  0.30386940155E+03  0.95319107032E+02 0.  0.
        254    2    1    2    0    0  0.86714389871E+02  0.26681600458E+03 -0.11287997946E+04  0.14757319121E+04  0.90823209282E+03 0.  0.
         23    2    4    4    0    0 -0.70243660991E+02  0.56115417367E+02 -0.11849501543E+04  0.11921112805E+04  0.94548004005E+02 0.  0.
         23    2    4    4    0    0  0.15695805086E+03  0.21070058722E+03  0.56150359609E+02  0.28362063164E+03  0.90869316199E+02 0.  0.
         11    1    3    3    0    0 -0.85633738258E+02 -0.11177496207E+03 -0.23703029393E+02  0.14278870010E+03  0.00000000000E+00 0.  1.
        -11    1    3    3    0    0 -0.10806516125E+01 -0.15504104251E+03 -0.43681800649E+02  0.16108070145E+03  0.00000000000E+00 0. -1.
          3    1    5    5  502    0 -0.18633776501E+02  0.31310729301E+02 -0.93402937994E+03  0.93473978304E+03  0.00000000000E+00 0. -1.
          3    1    6    6  503    0  0.67327309389E+02  0.12977993023E+03  0.69955415562E+02  0.16207886058E+03  0.00000000000E+00 0. -1.
         -3    1    5    5    0  502 -0.51609884490E+02  0.24804688066E+02 -0.25092077431E+03  0.25737149746E+03  0.00000000000E+00 0.  1.
         -3    1    6    6    0  503  0.89630741472E+02  0.80920656991E+02 -0.13805055953E+02  0.12154177107E+03  0.00000000000E+00 0.  1.
<mgrwt>
<rscale>  0 0.13176203E+04</rscale>
<asrwt>0</asrwt>
<pdfrwt beam="1">  1        2 0.22890661E+00 0.13176203E+04</pdfrwt>
<pdfrwt beam="2">  1       -2 0.44878207E-01 0.13176203E+04</pdfrwt>
<totfact> 0.59424524E+01</totfact>
</mgrwt>
</event>
<event>
12    1  0.4672461E-008  0.2264169E+04  0.7818608E-02  0.8492184E-01
          1   -1    0    0  501    0  0.00000000000E+00  0.00000000000E+00  0.18759529242E+04  0.18759529242E+04  0.00000000000E+00 0. -1.
         -1   -1    0    0    0  501 -0.00000000000E+00 -0.00000000000E+00 -0.68318113257E+03  0.68318113257E+03  0.00000000000E+00 0.  1.
         23    2    1    2    0    0  0.45387476780E+03  0.39617704652E+03 -0.31948547175E+03  0.68790066087E+03  0.90431164602E+02 0.  0.
        254    2    1    2    0    0 -0.45387476780E+03 -0.39617704652E+03  0.15122572634E+04  0.18712333959E+04  0.92284009138E+03 0.  0.
         23    2    4    4    0    0 -0.61478582313E+03 -0.26564747794E+03  0.14985197420E+04  0.16439136741E+04  0.91436096793E+02 0.  0.
         23    2    4    4    0    0  0.16091105533E+03 -0.13052956858E+03  0.13737521385E+02  0.22731972183E+03  0.92494326502E+02 0.  0.
         11    1    3    3    0    0  0.11644189701E+03  0.92665686837E+02 -0.12414314716E+03  0.19379671277E+03  0.00000000000E+00 0. -1.
        -11    1    3    3    0    0  0.33743287079E+03  0.30351135968E+03 -0.19534232459E+03  0.49410394809E+03  0.00000000000E+00 0.  1.
          1    1    5    5  502    0 -0.34720690763E+03 -0.19194208668E+03  0.93776448941E+03  0.10182321145E+04  0.00000000000E+00 0. -1.
          3    1    6    6  503    0  0.13153812932E+03 -0.14347420216E+03  0.88148125487E+01  0.19484564935E+03  0.00000000000E+00 0.  1.
         -1    1    5    5    0  502 -0.26757891551E+03 -0.73705391253E+02  0.56075525259E+03  0.62568155960E+03  0.00000000000E+00 0.  1.
         -3    1    6    6    0  503  0.29372926011E+02  0.12944633577E+02  0.49227088362E+01  0.32474072476E+02  0.00000000000E+00 0. -1.
<mgrwt>
<rscale>  0 0.22641693E+04</rscale>
<asrwt>0</asrwt>
<pdfrwt beam="1">  1        1 0.28860814E+00 0.22641693E+04</pdfrwt>
<pdfrwt beam="2">  1       -1 0.10510479E+00 0.22641693E+04</pdfrwt>
<totfact> 0.27855161E+00</totfact>
</mgrwt>
</event>
<event>
12    1  0.4672461E-008  0.2537794E+04  0.7818608E-02  0.8389643E-01
         -2   -1    0    0    0  501 -0.00000000000E+00  0.00000000000E+00  0.13519157833E+04  0.13519157833E+04  0.00000000000E+00 0.  1.
          2   -1    0    0  501    0  0.00000000000E+00 -0.00000000000E+00 -0.11909765588E+04  0.11909765588E+04  0.00000000000E+00 0. -1.
         23    2    1    2    0    0  0.27371532070E+03  0.27291046473E+03  0.11095554326E+04  0.11784613185E+04  0.90871462861E+02 0.  0.
        254    2    1    2    0    0 -0.27371532070E+03 -0.27291046473E+03 -0.94861620807E+03  0.13644310235E+04  0.90133185301E+03 0.  0.
         23    2    4    4    0    0  0.79165402178E+02 -0.48078577458E+03 -0.75378644166E+03  0.90217022965E+03  0.91076899963E+02 0.  0.
         23    2    4    4    0    0 -0.35288072288E+03  0.20787530984E+03 -0.19482976641E+03  0.46226079389E+03  0.89383749480E+02 0.  0.
         11    1    3    3    0    0  0.21003774426E+03  0.24926932982E+03  0.85590261456E+03  0.91587135472E+03  0.00000000000E+00 0.  1.
        -11    1    3    3    0    0  0.63677576436E+02  0.23641134916E+02  0.25365281800E+03  0.26258996379E+03  0.00000000000E+00 0. -1.
          4    1    5    5  502    0  0.14448472350E+02 -0.13697234470E+03 -0.29172270057E+03  0.32260241102E+03  0.00000000000E+00 0. -1.
          1    1    6    6  503    0 -0.15449188960E+03  0.90471305585E+02 -0.36816945870E+02  0.18277934399E+03  0.00000000000E+00 0. -1.
         -4    1    5    5    0  502  0.64716929827E+02 -0.34381342988E+03 -0.46206374109E+03  0.57956781863E+03  0.00000000000E+00 0.  1.
         -1    1    6    6    0  503 -0.19838883328E+03  0.11740400426E+03 -0.15801282054E+03  0.27948144990E+03  0.00000000000E+00 0.  1.
<mgrwt>
<rscale>  0 0.25377943E+04</rscale>
<asrwt>0</asrwt>
<pdfrwt beam="1">  1        2 0.18322716E+00 0.25377943E+04</pdfrwt>
<pdfrwt beam="2">  1       -2 0.20798704E+00 0.25377943E+04</pdfrwt>
<totfact> 0.20117053E+00</totfact>
</mgrwt>
</event>
<event>
12    1  0.4672461E-008  0.2403353E+04  0.7818608E-02  0.8438249E-01
         -2   -1    0    0    0  501 -0.00000000000E+00  0.00000000000E+00  0.46748041663E+03  0.46748041663E+03  0.00000000000E+00 0.  1.
          2   -1    0    0  501    0  0.00000000000E+00 -0.00000000000E+00 -0.30889560545E+04  0.30889560545E+04  0.00000000000E+00 0. -1.
         23    2    1    2    0    0  0.61030631550E+03 -0.81862766359E+03 -0.13530144847E+04  0.16973662209E+04  0.88197741108E+02 0.  0.
        254    2    1    2    0    0 -0.61030631550E+03  0.81862766359E+03 -0.12684611532E+04  0.18590702503E+04  0.89695231094E+03 0.  0.
         23    2    4    4    0    0 -0.46031226828E+03  0.20651499272E+03 -0.10777002185E+04  0.11937155077E+04  0.94779353738E+02 0.  0.
         23    2    4    4    0    0 -0.14999404722E+03  0.61211267087E+03 -0.19076093465E+03  0.66535474255E+03  0.95535664553E+02 0.  0.
         13    1    3    3    0    0  0.43103522876E+03 -0.56207530245E+03 -0.87107858866E+03  0.11227189861E+04  0.00000000000E+00 0. -1.
        -13    1    3    3    0    0  0.17927108674E+03 -0.25655236114E+03 -0.48193589608E+03  0.57464723481E+03  0.00000000000E+00 0.  1.
          2    1    5    5  502    0 -0.10243106473E+03  0.48746760765E+02 -0.15987359948E+03  0.19603045049E+03  0.00000000000E+00 0. -1.
          4    1    6    6  503    0 -0.13446529584E+02  0.14512534049E+03 -0.80406979906E+02  0.16645556773E+03  0.00000000000E+00 0. -1.
         -2    1    5    5    0  502 -0.35788120355E+03  0.15776823196E+03 -0.91782661904E+03  0.99768505726E+03  0.00000000000E+00 0.  1.
         -4    1    6    6    0  503 -0.13654751764E+03  0.46698733037E+03 -0.11035395474E+03  0.49889917482E+03  0.00000000000E+00 0.  1.
<mgrwt>
<rscale>  0 0.24033530E+04</rscale>
<asrwt>0</asrwt>
<pdfrwt beam="1">  1        2 0.47522400E+00 0.24033530E+04</pdfrwt>
<pdfrwt beam="2">  1       -2 0.71920065E-01 0.24033530E+04</pdfrwt>
<totfact> 0.24102989E+00</totfact>
</mgrwt>
</event>
<event>
12    1  0.4672461E-008  0.1840505E+04  0.7818608E-02  0.8685051E-01
         -1   -1    0    0    0  501 -0.00000000000E+00  0.00000000000E+00  0.56937586926E+03  0.56937586926E+03  0.00000000000E+00 0.  1.
          1   -1    0    0  501    0  0.00000000000E+00 -0.00000000000E+00 -0.14873567841E+04  0.14873567841E+04  0.00000000000E+00 0. -1.
         23    2    1    2    0    0 -0.68192697207E+02 -0.29309683263E+03 -0.10541800667E+04  0.11005276171E+04  0.96485365596E+02 0.  0.
        254    2    1    2    0    0  0.68192697207E+02  0.29309683263E+03  0.13619915186E+03  0.95620503624E+03  0.89734155432E+03 0.  0.
         23    2    4    4    0    0  0.43822039305E+02  0.35207882353E+03  0.47388269409E+03  0.59902696592E+03  0.91589459127E+02 0.  0.
         23    2    4    4    0    0  0.24370657903E+02 -0.58981990897E+02 -0.33768354223E+03  0.35717807032E+03  0.97330339608E+02 0.  0.
         11    1    3    3    0    0 -0.14331153162E+02 -0.23382096283E+03 -0.83209669180E+03  0.86444347943E+03  0.00000000000E+00 0. -1.
        -11    1    3    3    0    0 -0.53861544045E+02 -0.59275869807E+02 -0.22208337487E+03  0.23608413767E+03  0.00000000000E+00 0.  1.
          1    1    5    5  502    0 -0.22339238131E+02  0.17665521902E+03  0.25159186242E+03  0.30822811877E+03  0.00000000000E+00 0. -1.
          1    1    6    6  503    0  0.19000795282E+02 -0.28241548504E+02 -0.23299404153E+02  0.41248969892E+02  0.00000000000E+00 0. -1.
         -1    1    5    5    0  502  0.66161277436E+02  0.17542360452E+03  0.22229083167E+03  0.29079884714E+03  0.00000000000E+00 0.  1.
         -1    1    6    6    0  503  0.53698626203E+01 -0.30740442393E+02 -0.31438413808E+03  0.31592910043E+03  0.00000000000E+00 0.  1.
<mgrwt>
<rscale>  0 0.18405054E+04</rscale>
<asrwt>0</asrwt>
<pdfrwt beam="1">  1        1 0.22882412E+00 0.18405054E+04</pdfrwt>
<pdfrwt beam="2">  1       -1 0.87596288E-01 0.18405054E+04</pdfrwt>
<totfact> 0.80475492E+00</totfact>
</mgrwt>
</event>
<event>
12    1  0.4672461E-008  0.1251303E+04  0.7818608E-02  0.9069100E-01
         -2   -1    0    0    0  501 -0.00000000000E+00  0.00000000000E+00  0.36106143331E+03  0.36106143331E+03  0.00000000000E+00 0.  1.
          2   -1    0    0  501    0  0.00000000000E+00 -0.00000000000E+00 -0.10841361495E+04  0.10841361495E+04  0.00000000000E+00 0. -1.
         23    2    1    2    0    0  0.11362528947E+03  0.45823265745E+02  0.12761841537E+03  0.19835662524E+03  0.89712946352E+02 0.  0.
        254    2    1    2    0    0 -0.11362528947E+03 -0.45823265745E+02 -0.85069313152E+03  0.12468409575E+04  0.90328461256E+03 0.  0.
         23    2    4    4    0    0 -0.22816819010E+03  0.16407235712E+03  0.59442482181E+02  0.30105584291E+03  0.90115206914E+02 0.  0.
         23    2    4    4    0    0  0.11454290064E+03 -0.20989562287E+03 -0.91013561370E+03  0.94578511462E+03  0.94796619855E+02 0.  0.
         13    1    3    3    0    0  0.11185768364E+03  0.65977970047E+01  0.86992735473E+02  0.14185699961E+03  0.00000000000E+00 0.  1.
        -13    1    3    3    0    0  0.17676058277E+01  0.39225468740E+02  0.40625679900E+02  0.56499625624E+02  0.00000000000E+00 0. -1.
          2    1    5    5  502    0 -0.22067030852E+03  0.16863250059E+03  0.70889960381E+02  0.28663163084E+03  0.00000000000E+00 0. -1.
          4    1    6    6  503    0  0.10024390050E+03 -0.11307509266E+03 -0.43009069248E+03  0.45586491412E+03  0.00000000000E+00 0.  1.
         -2    1    5    5    0  502 -0.74978815862E+01 -0.45601434677E+01 -0.11447478200E+02  0.14424212071E+02  0.00000000000E+00 0.  1.
         -4    1    6    6    0  503  0.14299000142E+02 -0.96820530201E+02 -0.48004492121E+03  0.48992020050E+03  0.00000000000E+00 0. -1.
<mgrwt>
<rscale>  0 0.12513029E+04</rscale>
<asrwt>0</asrwt>
<pdfrwt beam="1">  1        2 0.16679018E+00 0.12513029E+04</pdfrwt>
<pdfrwt beam="2">  1       -2 0.55547913E-01 0.12513029E+04</pdfrwt>
<totfact> 0.66738652E+01</totfact>
</mgrwt>
</event>
<event>
12    1  0.4672461E-008  0.1506752E+04  0.7818608E-02  0.8879975E-01
         -2   -1    0    0    0  501 -0.00000000000E+00  0.00000000000E+00  0.41358993902E+03  0.41358993902E+03  0.00000000000E+00 0.  1.
          2   -1    0    0  501    0  0.00000000000E+00 -0.00000000000E+00 -0.13723141984E+04  0.13723141984E+04  0.00000000000E+00 0. -1.
         23    2    1    2    0    0  0.11985246069E+03  0.31310418275E+02 -0.85409653053E+03  0.86847857482E+03  0.97104051557E+02 0.  0.
        254    2    1    2    0    0 -0.11985246069E+03 -0.31310418275E+02 -0.10462772884E+03  0.91742556258E+03  0.90298269453E+03 0.  0.
         23    2    4    4    0    0 -0.45910087237E+03 -0.75476374878E+02 -0.24776976373E+03  0.53480339899E+03  0.90302411794E+02 0.  0.
         23    2    4    4    0    0  0.33924841168E+03  0.44165956603E+02  0.14314203489E+03  0.38262216359E+03  0.94180472326E+02 0.  0.
         13    1    3    3    0    0  0.82432796512E+02 -0.18335198349E+02 -0.32698954278E+03  0.33771808735E+03  0.00000000000E+00 0.  1.
        -13    1    3    3    0    0  0.37419664179E+02  0.49645616624E+02 -0.52710698775E+03  0.53076048747E+03  0.00000000000E+00 0. -1.
          4    1    5    5  502    0 -0.40023053984E+03 -0.55103366706E+02 -0.24490909491E+03  0.47244188089E+03  0.00000000000E+00 0. -1.
          3    1    6    6  503    0  0.32777990647E+03  0.46237888845E+02  0.11214312954E+03  0.34950492265E+03  0.00000000000E+00 0. -1.
         -4    1    5    5    0  502 -0.58870332530E+02 -0.20373008171E+02 -0.28606688163E+01  0.62361518104E+02  0.00000000000E+00 0.  1.
         -3    1    6    6    0  503  0.11468505213E+02 -0.20719322420E+01  0.30998905350E+02  0.33117240947E+02  0.00000000000E+00 0.  1.
<mgrwt>
<rscale>  0 0.15067519E+04</rscale>
<asrwt>0</asrwt>
<pdfrwt beam="1">  1        2 0.21112526E+00 0.15067519E+04</pdfrwt>
<pdfrwt beam="2">  1       -2 0.63629221E-01 0.15067519E+04</pdfrwt>
<totfact> 0.33126145E+01</totfact>
</mgrwt>
</event>
<event>
12    1  0.4672461E-008  0.2852712E+04  0.7818608E-02  0.8287088E-01
         -1   -1    0    0    0  501 -0.00000000000E+00  0.00000000000E+00  0.64646050131E+03  0.64646050131E+03  0.00000000000E+00 0.  1.
          1   -1    0    0  501    0  0.00000000000E+00 -0.00000000000E+00 -0.31471237473E+04  0.31471237473E+04  0.00000000000E+00 0. -1.
         23    2    1    2    0    0  0.91134280540E+02  0.44324050086E+03  0.46911569600E+03  0.65737791520E+03  0.85490282893E+02 0.  0.
        254    2    1    2    0    0 -0.91134280540E+02 -0.44324050086E+03 -0.29697789420E+04  0.31362063334E+04  0.90079720401E+03 0.  0.
         23    2    4    4    0    0 -0.28014488198E+03 -0.33614945277E+02 -0.23261506249E+04  0.23449741385E+04  0.91191342232E+02 0.  0.
         23    2    4    4    0    0  0.18901060144E+03 -0.40962555558E+03 -0.64362831709E+03  0.79123219494E+03  0.90955332523E+02 0.  0.
         11    1    3    3    0    0  0.52046345206E+02  0.21903670295E+03  0.29355530258E+03  0.36994677314E+03  0.00000000000E+00 0.  1.
        -11    1    3    3    0    0  0.39087935335E+02  0.22420379791E+03  0.17556039343E+03  0.28743114206E+03  0.00000000000E+00 0. -1.
          2    1    5    5  502    0 -0.17726609896E+03 -0.58260168799E+02 -0.12877259890E+04  0.13011747537E+04  0.00000000000E+00 0. -1.
          1    1    6    6  503    0  0.96464939327E+02 -0.11035489097E+03 -0.19035066384E+03  0.24024375477E+03  0.00000000000E+00 0. -1.
         -2    1    5    5    0  502 -0.10287878302E+03  0.24645223522E+02 -0.10384246360E+04  0.10437993848E+04  0.00000000000E+00 0.  1.
         -1    1    6    6    0  503  0.92545662116E+02 -0.29927066462E+03 -0.45327765325E+03  0.55098844018E+03  0.00000000000E+00 0.  1.
<mgrwt>
<rscale>  0 0.28527118E+04</rscale>
<asrwt>0</asrwt>
<pdfrwt beam="1">  1        1 0.48417287E+00 0.28527118E+04</pdfrwt>
<pdfrwt beam="2">  1       -1 0.99455465E-01 0.28527118E+04</pdfrwt>
<totfact> 0.38701981E-01</totfact>
</mgrwt>
</event>
<event>
12    1  0.5292184E-008  0.1699527E+04  0.7818608E-02  0.8761634E-01
         -2   -1    0    0    0  501 -0.00000000000E+00  0.00000000000E+00  0.70757370058E+03  0.70757370058E+03  0.00000000000E+00 0.  1.
          2   -1    0    0  501    0  0.00000000000E+00 -0.00000000000E+00 -0.10205267226E+04  0.10205267226E+04  0.00000000000E+00 0. -1.
         23    2    1    2    0    0 -0.44820432290E+03  0.21213196694E+03 -0.46029341415E+03  0.68263525699E+03  0.90740181353E+02 0.  0.
        254    2    1    2    0    0  0.44820432290E+03 -0.21213196694E+03  0.14734039217E+03  0.10454651662E+04  0.90851589751E+03 0.  0.
         23    2    4    4    0    0  0.20089243242E+03 -0.12065604464E+02 -0.36928980396E+03  0.43198926140E+03  0.98673271190E+02 0.  0.
         23    2    4    4    0    0  0.24731189048E+03 -0.20006636247E+03  0.51663019612E+03  0.61347590476E+03  0.90863664941E+02 0.  0.
         13    1    3    3    0    0 -0.19713989298E+02  0.23581279407E+02 -0.56894103576E+02  0.64665733849E+02  0.00000000000E+00 0.  1.
        -13    1    3    3    0    0 -0.42849033360E+03  0.18855068753E+03 -0.40339931058E+03  0.61796952314E+03  0.00000000000E+00 0. -1.
          2    1    5    5  502    0  0.17129518034E+03 -0.29641188022E+02 -0.35388294231E+03  0.39427626823E+03  0.00000000000E+00 0.  1.
          4    1    6    6  503    0  0.24874026110E+03 -0.17200175165E+03  0.47970084450E+03  0.56707073657E+03  0.00000000000E+00 0.  1.
         -2    1    5    5    0  502  0.29597252080E+02  0.17575583558E+02 -0.15406861649E+02  0.37712993172E+02  0.00000000000E+00 0. -1.
         -4    1    6    6    0  503 -0.14283706181E+01 -0.28064610817E+02  0.36929351624E+02  0.46405168186E+02  0.00000000000E+00 0. -1.
<mgrwt>
<rscale>  0 0.16995268E+04</rscale>
<asrwt>0</asrwt>
<pdfrwt beam="1">  1        2 0.15700411E+00 0.16995268E+04</pdfrwt>
<pdfrwt beam="2">  1       -2 0.10885749E+00 0.16995268E+04</pdfrwt>
<totfact> 0.15671824E+01</totfact>
</mgrwt>
</event>
<event>
12    1  0.4672461E-008  0.1264701E+04  0.7818608E-02  0.9058036E-01
          3   -1    0    0  501    0  0.00000000000E+00  0.00000000000E+00  0.42865088577E+03  0.42865088577E+03  0.00000000000E+00 0. -1.
         -3   -1    0    0    0  501 -0.00000000000E+00 -0.00000000000E+00 -0.93285036930E+03  0.93285036930E+03  0.00000000000E+00 0.  1.
         23    2    1    2    0    0 -0.22941069338E+03  0.10470220894E+03  0.57813252291E+02  0.27420823909E+03  0.90862354393E+02 0.  0.
        254    2    1    2    0    0  0.22941069338E+03 -0.10470220894E+03 -0.56201273582E+03  0.10872930160E+04  0.89596649971E+03 0.  0.
         23    2    4    4    0    0  0.65676558716E+02 -0.35627961907E+03 -0.65887620160E+03  0.75848573094E+03  0.99670345067E+02 0.  0.
         23    2    4    4    0    0  0.16373413467E+03  0.25157741012E+03  0.96863465780E+02  0.32880728504E+03  0.92906617391E+02 0.  0.
         11    1    3    3    0    0 -0.16834060639E+03  0.70125306216E+02 -0.14275873653E+01  0.18236818894E+03  0.00000000000E+00 0. -1.
        -11    1    3    3    0    0 -0.61070086992E+02  0.34576902729E+02  0.59240839656E+02  0.91840050146E+02  0.00000000000E+00 0.  1.
          4    1    5    5  502    0  0.50914088562E+02 -0.11499459157E+03 -0.15483368489E+03  0.19947298183E+03  0.00000000000E+00 0. -1.
          3    1    6    6  503    0  0.90822256398E+02  0.95270837830E+02  0.13109597466E+01  0.13163181004E+03  0.00000000000E+00 0. -1.
         -4    1    5    5    0  502  0.14762470154E+02 -0.24128502750E+03 -0.50404251671E+03  0.55901274911E+03  0.00000000000E+00 0.  1.
         -3    1    6    6    0  503  0.72911878268E+02  0.15630657229E+03  0.95552506034E+02  0.19717547501E+03  0.00000000000E+00 0.  1.
<mgrwt>
<rscale>  0 0.12647010E+04</rscale>
<asrwt>0</asrwt>
<pdfrwt beam="1">  1        3 0.65946291E-01 0.12647010E+04</pdfrwt>
<pdfrwt beam="2">  1       -3 0.14351544E+00 0.12647010E+04</pdfrwt>
<totfact> 0.20667465E+00</totfact>
</mgrwt>
</event>
<event>
12    1  0.4672461E-008  0.2194146E+04  0.7818608E-02  0.8520869E-01
         -2   -1    0    0    0  501 -0.00000000000E+00  0.00000000000E+00  0.68167296506E+03  0.68167296506E+03  0.00000000000E+00 0.  1.
          2   -1    0    0  501    0  0.00000000000E+00 -0.00000000000E+00 -0.17656110631E+04  0.17656110631E+04  0.00000000000E+00 0. -1.
         23    2    1    2    0    0  0.89476519815E+03  0.18557716328E+02 -0.27586308000E+03  0.93994399488E+03  0.80281541790E+02 0.  0.
        254    2    1    2    0    0 -0.89476519815E+03 -0.18557716328E+02 -0.80807501803E+03  0.15073400333E+04  0.90451069230E+03 0.  0.
         23    2    4    4    0    0 -0.97117830144E+03 -0.21869696445E+03 -0.78959956151E+03  0.12738381896E+04  0.90446726138E+02 0.  0.
         23    2    4    4    0    0  0.76413103293E+02  0.20013924812E+03 -0.18475456515E+02  0.23350184368E+03  0.91033441740E+02 0.  0.
         11    1    3    3    0    0  0.95215908952E+02 -0.38084132743E+01 -0.48474296641E+01  0.95415255088E+02  0.00000000000E+00 0. -1.
        -11    1    3    3    0    0  0.79954928920E+03  0.22366129602E+02 -0.27101565034E+03  0.84452873979E+03  0.00000000000E+00 0.  1.
          1    1    5    5  502    0 -0.19550800723E+03 -0.55456223354E+02 -0.20717286820E+03  0.29020573895E+03  0.00000000000E+00 0. -1.
          3    1    6    6  503    0  0.72515250215E+02  0.89779839684E+02 -0.37707461213E+02  0.12141142351E+03  0.00000000000E+00 0. -1.
         -1    1    5    5    0  502 -0.77567029421E+03 -0.16324074109E+03 -0.58242669331E+03  0.98363245064E+03  0.00000000000E+00 0.  1.
         -3    1    6    6    0  503  0.38978530771E+01  0.11035940844E+03  0.19232004698E+02  0.11209042017E+03  0.00000000000E+00 0.  1.
<mgrwt>
<rscale>  0 0.21941461E+04</rscale>
<asrwt>0</asrwt>
<pdfrwt beam="1">  1        2 0.27163247E+00 0.21941461E+04</pdfrwt>
<pdfrwt beam="2">  1       -2 0.10487277E+00 0.21941461E+04</pdfrwt>
<totfact> 0.60791133E+00</totfact>
</mgrwt>
</event>
<event>
12    1  0.4672461E-008  0.1377969E+04  0.7818608E-02  0.8969922E-01
          1   -1    0    0  501    0  0.00000000000E+00  0.00000000000E+00  0.96098764726E+03  0.96098764726E+03  0.00000000000E+00 0. -1.
         -1   -1    0    0    0  501 -0.00000000000E+00 -0.00000000000E+00 -0.49397027670E+03  0.49397027670E+03  0.00000000000E+00 0.  1.
         23    2    1    2    0    0 -0.29628597094E+03  0.18725578096E+03  0.29625075283E+03  0.46830027534E+03  0.93223040359E+02 0.  0.
        254    2    1    2    0    0  0.29628597094E+03 -0.18725578096E+03  0.17076661773E+03  0.98665764862E+03  0.90635642756E+03 0.  0.
         23    2    4    4    0    0  0.10011177723E+03 -0.51542805423E+03  0.24496116116E+03  0.58663106024E+03  0.91878089507E+02 0.  0.
         23    2    4    4    0    0  0.19617419371E+03  0.32817227327E+03 -0.74194543429E+02  0.40002658838E+03  0.91296691696E+02 0.  0.
         13    1    3    3    0    0 -0.29312642713E+03  0.19542137386E+03  0.29491673858E+03  0.45944368353E+03  0.00000000000E+00 0. -1.
        -13    1    3    3    0    0 -0.31595438065E+01 -0.81655928999E+01  0.13340142571E+01  0.88565918112E+01  0.00000000000E+00 0.  1.
          2    1    5    5  502    0  0.39206899142E+02 -0.36695928546E+03  0.13914124263E+03  0.39440662207E+03  0.00000000000E+00 0. -1.
          3    1    6    6  503    0  0.29138678513E+02  0.64474234892E+02  0.20791565507E+02  0.73744686226E+02  0.00000000000E+00 0. -1.
         -2    1    5    5    0  502  0.60904878085E+02 -0.14846876877E+03  0.10581991852E+03  0.19222443817E+03  0.00000000000E+00 0.  1.
         -3    1    6    6    0  503  0.16703551520E+03  0.26369803838E+03 -0.94986108936E+02  0.32628190215E+03  0.00000000000E+00 0.  1.
<mgrwt>
<rscale>  0 0.13779686E+04</rscale>
<asrwt>0</asrwt>
<pdfrwt beam="1">  1        1 0.14784425E+00 0.13779686E+04</pdfrwt>
<pdfrwt beam="2">  1       -1 0.75995427E-01 0.13779686E+04</pdfrwt>
<totfact> 0.27598057E+01</totfact>
</mgrwt>
</event>
<event>
12    1  0.4672461E-008  0.1461729E+04  0.7818608E-02  0.8910310E-01
         -2   -1    0    0    0  501 -0.00000000000E+00  0.00000000000E+00  0.62256061245E+03  0.62256061245E+03  0.00000000000E+00 0.  1.
          2   -1    0    0  501    0  0.00000000000E+00 -0.00000000000E+00 -0.85800899426E+03  0.85800899426E+03  0.00000000000E+00 0. -1.
         23    2    1    2    0    0 -0.42627707025E+02  0.31044795849E+03  0.25241475814E+03  0.41291526588E+03  0.92686300692E+02 0.  0.
        254    2    1    2    0    0  0.42627707025E+02 -0.31044795849E+03 -0.48786313995E+03  0.10676543408E+04  0.89648217597E+03 0.  0.
         23    2    4    4    0    0  0.42620813412E+03 -0.31877275503E+03 -0.37558814163E+03  0.65779152989E+03  0.91399134159E+02 0.  0.
         23    2    4    4    0    0 -0.38358042709E+03  0.83247965445E+01 -0.11227499832E+03  0.40986281094E+03  0.90435624924E+02 0.  0.
         11    1    3    3    0    0 -0.20367542693E+02  0.29505918116E+03  0.21049395983E+03  0.36301854540E+03  0.00000000000E+00 0.  1.
        -11    1    3    3    0    0 -0.22260164332E+02  0.15388777329E+02  0.41920798304E+02  0.49896720476E+02  0.00000000000E+00 0. -1.
          4    1    5    5  502    0  0.42992374830E+03 -0.31841062088E+03 -0.36801890952E+03  0.64935173104E+03  0.00000000000E+00 0. -1.
          3    1    6    6  503    0 -0.34415855106E+03  0.91250005821E+01 -0.12815075480E+03  0.36735676101E+03  0.00000000000E+00 0. -1.
         -4    1    5    5    0  502 -0.37156141818E+01 -0.36213414940E+00 -0.75692321094E+01  0.84397988492E+01  0.00000000000E+00 0.  1.
         -3    1    6    6    0  503 -0.39421876031E+02 -0.80020403763E+00  0.15875756484E+02  0.42506049925E+02  0.00000000000E+00 0.  1.
<mgrwt>
<rscale>  0 0.14617286E+04</rscale>
<asrwt>0</asrwt>
<pdfrwt beam="1">  1        2 0.13200138E+00 0.14617286E+04</pdfrwt>
<pdfrwt beam="2">  1       -2 0.95778557E-01 0.14617286E+04</pdfrwt>
<totfact> 0.27767361E+01</totfact>
</mgrwt>
</event>
<event>
12    1  0.4672461E-008  0.2237314E+04  0.7818608E-02  0.8503056E-01
         -1   -1    0    0    0  501 -0.00000000000E+00  0.00000000000E+00  0.11347459767E+04  0.11347459767E+04  0.00000000000E+00 0.  1.
          1   -1    0    0  501    0  0.00000000000E+00 -0.00000000000E+00 -0.11027962162E+04  0.11027962162E+04  0.00000000000E+00 0. -1.
         23    2    1    2    0    0  0.23960644732E+03 -0.73482385122E+03 -0.51576908730E+03  0.93288643784E+03  0.82957896333E+02 0.  0.
        254    2    1    2    0    0 -0.23960644732E+03  0.73482385122E+03  0.54771884787E+03  0.13046557551E+04  0.89708046516E+03 0.  0.
         23    2    4    4    0    0 -0.39890151031E+01  0.15895827682E+03 -0.23642784664E+03  0.29971162428E+03  0.92980024998E+02 0.  0.
         23    2    4    4    0    0 -0.23561743221E+03  0.57586557440E+03  0.78414669451E+03  0.10049441308E+04  0.88825296741E+02 0.  0.
         11    1    3    3    0    0  0.22420817825E+02 -0.47571803408E+02 -0.61504438165E+02  0.80923207212E+02  0.00000000000E+00 0.  1.
        -11    1    3    3    0    0  0.21718562949E+03 -0.68725204782E+03 -0.45426464913E+03  0.85196323063E+03  0.00000000000E+00 0. -1.
          1    1    5    5  502    0 -0.49285174147E+01  0.15567816441E+03 -0.16030423880E+03  0.22351158837E+03  0.00000000000E+00 0. -1.
          3    1    6    6  503    0 -0.14889256197E+03  0.32682088797E+03  0.51756467654E+03  0.62996355627E+03  0.00000000000E+00 0. -1.
         -1    1    5    5    0  502  0.93950231155E+00  0.32801124148E+01 -0.76123607842E+02  0.76200035911E+02  0.00000000000E+00 0.  1.
         -3    1    6    6    0  503 -0.86724870248E+02  0.24904468643E+03  0.26658201797E+03  0.37498057452E+03  0.00000000000E+00 0.  1.
<mgrwt>
<rscale>  0 0.22373141E+04</rscale>
<asrwt>0</asrwt>
<pdfrwt beam="1">  1        1 0.16966096E+00 0.22373141E+04</pdfrwt>
<pdfrwt beam="2">  1       -1 0.17457630E+00 0.22373141E+04</pdfrwt>
<totfact> 0.26121715E+00</totfact>
</mgrwt>
</event>
<event>
12    1  0.4672461E-008  0.1297428E+04  0.7818608E-02  0.9031607E-01
          1   -1    0    0  501    0  0.00000000000E+00  0.00000000000E+00  0.14172363268E+04  0.14172363268E+04  0.00000000000E+00 0. -1.
         -1   -1    0    0    0  501 -0.00000000000E+00 -0.00000000000E+00 -0.29693702644E+03  0.29693702644E+03  0.00000000000E+00 0.  1.
         23    2    1    2    0    0  0.11193354850E+03 -0.30820641721E+03  0.32627127925E+03  0.47137211419E+03  0.90655432721E+02 0.  0.
        254    2    1    2    0    0 -0.11193354850E+03  0.30820641721E+03  0.79402802109E+03  0.12428012390E+04  0.89808357439E+03 0.  0.
         23    2    4    4    0    0 -0.12167358505E+03 -0.44055224230E+02  0.85953194438E+03  0.87388976994E+03  0.90237700044E+02 0.  0.
         23    2    4    4    0    0  0.97400365489E+01  0.35226164144E+03 -0.65503923296E+02  0.36891146909E+03  0.87302781871E+02 0.  0.
         11    1    3    3    0    0  0.57383762415E+02 -0.19963987289E+03  0.14569126545E+03  0.25372213121E+03  0.00000000000E+00 0.  1.
        -11    1    3    3    0    0  0.54549786089E+02 -0.10856654432E+03  0.18058001380E+03  0.21764998298E+03  0.00000000000E+00 0. -1.
          1    1    6    6  502    0 -0.12064529685E+01  0.16783089577E+03 -0.75177627312E+02  0.18390307434E+03  0.00000000000E+00 0. -1.
          1    1    5    5  503    0 -0.32356648265E+02  0.16368179934E+02  0.93159741338E+02  0.99968031928E+02  0.00000000000E+00 0. -1.
         -1    1    5    5    0  503 -0.89316936787E+02 -0.60423404164E+02  0.76637220304E+03  0.77392173801E+03  0.00000000000E+00 0.  1.
         -1    1    6    6    0  502  0.10946489517E+02  0.18443074567E+03  0.96737040153E+01  0.18500839475E+03  0.00000000000E+00 0.  1.
<mgrwt>
<rscale>  0 0.12974281E+04</rscale>
<asrwt>0</asrwt>
<pdfrwt beam="1">  1        1 0.21803635E+00 0.12974281E+04</pdfrwt>
<pdfrwt beam="2">  1       -1 0.45682620E-01 0.12974281E+04</pdfrwt>
<totfact> 0.34952404E+01</totfact>
</mgrwt>
</event>
<event>
12    1  0.4672461E-008  0.3335261E+04  0.7818608E-02  0.8153981E-01
         -2   -1    0    0    0  501 -0.00000000000E+00  0.00000000000E+00  0.99122806065E+03  0.99122806065E+03  0.00000000000E+00 0.  1.
          2   -1    0    0  501    0  0.00000000000E+00 -0.00000000000E+00 -0.28056020902E+04  0.28056020902E+04  0.00000000000E+00 0. -1.
         23    2    1    2    0    0 -0.11839590059E+04  0.63863120984E+03  0.26407201662E+02  0.13488466600E+04  0.95295445338E+02 0.  0.
        254    2    1    2    0    0  0.11839590059E+04 -0.63863120984E+03 -0.18407812312E+04  0.24479834909E+04  0.89136910450E+03 0.  0.
         23    2    4    4    0    0  0.21929111830E+03 -0.40393262509E+03 -0.16339948273E+03  0.49663537383E+03  0.93258476313E+02 0.  0.
         23    2    4    4    0    0  0.96466788764E+03 -0.23469858475E+03 -0.16773817485E+04  0.19513481170E+04  0.92099862122E+02 0.  0.
         11    1    3    3    0    0 -0.16513325271E+03  0.11473674502E+03  0.29349459630E+02  0.20321147258E+03  0.00000000000E+00 0. -1.
        -11    1    3    3    0    0 -0.10188257532E+04  0.52389446482E+03 -0.29422579677E+01  0.11456351874E+04  0.00000000000E+00 0.  1.
          4    1    5    5  502    0  0.21345570846E+03 -0.33805461553E+03 -0.11959984335E+03  0.41731089740E+03  0.00000000000E+00 0. -1.
          3    1    6    6  503    0  0.88457699519E+03 -0.20779708253E+03 -0.15778974931E+04  0.18208285440E+04  0.00000000000E+00 0. -1.
         -4    1    5    5    0  502  0.58354098373E+01 -0.65878009560E+02 -0.43799639378E+02  0.79324476432E+02  0.00000000000E+00 0.  1.
         -3    1    6    6    0  503  0.80090892457E+02 -0.26901502219E+02 -0.99484255345E+02  0.13051957301E+03  0.00000000000E+00 0.  1.
<mgrwt>
<rscale>  0 0.33352610E+04</rscale>
<asrwt>0</asrwt>
<pdfrwt beam="1">  1        2 0.43163109E+00 0.33352610E+04</pdfrwt>
<pdfrwt beam="2">  1       -2 0.15249663E+00 0.33352610E+04</pdfrwt>
<totfact> 0.54765584E-01</totfact>
</mgrwt>
</event>
<event>
12    1  0.4672461E-008  0.1713955E+04  0.7818608E-02  0.8753445E-01
          2   -1    0    0  501    0  0.00000000000E+00  0.00000000000E+00  0.13910182539E+04  0.13910182539E+04  0.00000000000E+00 0. -1.
         -2   -1    0    0    0  501 -0.00000000000E+00 -0.00000000000E+00 -0.52796635710E+03  0.52796635710E+03  0.00000000000E+00 0.  1.
         23    2    1    2    0    0  0.25126320439E+03  0.96815728105E+02 -0.30812616999E+03  0.41824329499E+03  0.86482565161E+02 0.  0.
        254    2    1    2    0    0 -0.25126320439E+03 -0.96815728105E+02  0.11711780668E+04  0.15007413160E+04  0.89892154851E+03 0.  0.
         23    2    4    4    0    0 -0.30552875215E+03 -0.17785161977E+03  0.47052138875E+02  0.36798571011E+03  0.90667315076E+02 0.  0.
         23    2    4    4    0    0  0.54265547759E+02  0.81035891662E+02  0.11241259279E+04  0.11327556059E+04  0.99822820470E+02 0.  0.
         13    1    3    3    0    0  0.25502621358E+03  0.93776912266E+02 -0.28175097518E+03  0.39142827044E+03  0.00000000000E+00 0.  1.
        -13    1    3    3    0    0 -0.37630091859E+01  0.30388158391E+01 -0.26375194819E+02  0.26815024549E+02  0.00000000000E+00 0. -1.
          2    1    5    5  502    0 -0.22948861976E+02 -0.42022839128E+02 -0.10997213994E+02  0.49127466758E+02  0.00000000000E+00 0. -1.
          1    1    6    6  503    0  0.50125726116E+02  0.78872866210E+02  0.50274180607E+03  0.51135392930E+03  0.00000000000E+00 0. -1.
         -2    1    5    5    0  502 -0.28257989018E+03 -0.13582878064E+03  0.58049352869E+02  0.31885824335E+03  0.00000000000E+00 0.  1.
         -1    1    6    6    0  503  0.41398216432E+01  0.21630254522E+01  0.62138412187E+03  0.62140167662E+03  0.00000000000E+00 0.  1.
<mgrwt>
<rscale>  0 0.17139555E+04</rscale>
<asrwt>0</asrwt>
<pdfrwt beam="1">  1        2 0.21400281E+00 0.17139555E+04</pdfrwt>
<pdfrwt beam="2">  1       -2 0.81225594E-01 0.17139555E+04</pdfrwt>
<totfact> 0.18592008E+01</totfact>
</mgrwt>
</event>
<event>
12    1  0.4672461E-008  0.2366425E+04  0.7818608E-02  0.8452181E-01
         -3   -1    0    0    0  501 -0.00000000000E+00  0.00000000000E+00  0.12102893777E+04  0.12102893777E+04  0.00000000000E+00 0.  1.
          3   -1    0    0  501    0  0.00000000000E+00 -0.00000000000E+00 -0.11567416570E+04  0.11567416570E+04  0.00000000000E+00 0. -1.
         23    2    1    2    0    0 -0.81096212894E+03  0.50637712936E+03 -0.29791784561E+03  0.10055196871E+04  0.90760270548E+02 0.  0.
        254    2    1    2    0    0  0.81096212894E+03 -0.50637712936E+03  0.35146556630E+03  0.13615113476E+04  0.90338681287E+03 0.  0.
         23    2    4    4    0    0  0.95277227150E+03 -0.22852756974E+03  0.21543172835E+03  0.10074831770E+04  0.92799089039E+02 0.  0.
         23    2    4    4    0    0 -0.14181014256E+03 -0.27784955962E+03  0.13603383796E+03  0.35402817059E+03  0.97571748927E+02 0.  0.
         11    1    3    3    0    0 -0.62251279240E+03  0.41520907108E+03 -0.20084203918E+03  0.77476336653E+03  0.00000000000E+00 0. -1.
        -11    1    3    3    0    0 -0.18844933654E+03  0.91168058281E+02 -0.97075806437E+02  0.23075632058E+03  0.00000000000E+00 0.  1.
          1    1    5    5  502    0  0.62308077209E+03 -0.18716018062E+03  0.16719342168E+03  0.67172332252E+03  0.00000000000E+00 0. -1.
          3    1    6    6  503    0 -0.24145362386E+02 -0.11058249453E+02 -0.94174020938E+01  0.28177488673E+02  0.00000000000E+00 0. -1.
         -1    1    5    5    0  502  0.32969149941E+03 -0.41367389121E+02  0.48238306663E+02  0.33575985450E+03  0.00000000000E+00 0.  1.
         -3    1    6    6    0  503 -0.11766478017E+03 -0.26679131017E+03  0.14545124005E+03  0.32585068192E+03  0.00000000000E+00 0.  1.
<mgrwt>
<rscale>  0 0.23664253E+04</rscale>
<asrwt>0</asrwt>
<pdfrwt beam="1">  1        3 0.17796025E+00 0.23664253E+04</pdfrwt>
<pdfrwt beam="2">  1       -3 0.18619837E+00 0.23664253E+04</pdfrwt>
<totfact> 0.86597700E-02</totfact>
</mgrwt>
</event>
<event>
12    1  0.4672461E-008  0.1852871E+04  0.7818608E-02  0.8678678E-01
         -1   -1    0    0    0  501 -0.00000000000E+00  0.00000000000E+00  0.84813888619E+03  0.84813888619E+03  0.00000000000E+00 0.  1.
          1   -1    0    0  501    0  0.00000000000E+00 -0.00000000000E+00 -0.10119600802E+04  0.10119600802E+04  0.00000000000E+00 0. -1.
         23    2    1    2    0    0  0.39353666602E+03  0.48493435285E+03  0.26692225204E+03  0.68571445352E+03  0.94468984613E+02 0.  0.
        254    2    1    2    0    0 -0.39353666602E+03 -0.48493435285E+03 -0.43074344609E+03  0.11743845129E+04  0.89644109328E+03 0.  0.
         23    2    4    4    0    0 -0.33303221161E+03 -0.40290772493E+03 -0.69577168659E+03  0.87635978848E+03  0.10326253062E+03 0.  0.
         23    2    4    4    0    0 -0.60504454416E+02 -0.82026627928E+02  0.26502824050E+03  0.29802472443E+03  0.90496471822E+02 0.  0.
         13    1    3    3    0    0  0.10531324371E+03  0.18498496034E+03  0.12118130453E+03  0.24493922393E+03  0.00000000000E+00 0. -1.
        -13    1    3    3    0    0  0.28822342231E+03  0.29994939251E+03  0.14574094751E+03  0.44077522959E+03  0.00000000000E+00 0.  1.
          2    1    5    5  502    0 -0.19509665701E+03 -0.24436665174E+03 -0.33071235628E+03  0.45513561568E+03  0.00000000000E+00 0. -1.
          3    1    6    6  503    0 -0.46369653401E+01 -0.66573365904E+02  0.20035371464E+03  0.21117557970E+03  0.00000000000E+00 0. -1.
         -2    1    5    5    0  502 -0.13793555460E+03 -0.15854107318E+03 -0.36505933031E+03  0.42122417280E+03  0.00000000000E+00 0.  1.
         -3    1    6    6    0  503 -0.55867489076E+02 -0.15453262024E+02  0.64674525869E+02  0.86849144724E+02  0.00000000000E+00 0.  1.
<mgrwt>
<rscale>  0 0.18528710E+04</rscale>
<asrwt>0</asrwt>
<pdfrwt beam="1">  1        1 0.15568617E+00 0.18528710E+04</pdfrwt>
<pdfrwt beam="2">  1       -1 0.13048291E+00 0.18528710E+04</pdfrwt>
<totfact> 0.69900321E+00</totfact>
</mgrwt>
</event>
<event>
12    1  0.4672461E-008  0.1658162E+04  0.7818608E-02  0.8785593E-01
         -1   -1    0    0    0  501 -0.00000000000E+00  0.00000000000E+00  0.59004014194E+03  0.59004014194E+03  0.00000000000E+00 0.  1.
          1   -1    0    0  501    0  0.00000000000E+00 -0.00000000000E+00 -0.11649633015E+04  0.11649633015E+04  0.00000000000E+00 0. -1.
         23    2    1    2    0    0 -0.26828684612E+03  0.28664811605E+03  0.24503675303E+03  0.47404351137E+03  0.10261221222E+03 0.  0.
        254    2    1    2    0    0  0.26828684612E+03 -0.28664811605E+03 -0.81995991262E+03  0.12809599321E+04  0.90242956241E+03 0.  0.
         23    2    4    4    0    0 -0.22432615701E+03 -0.18223945620E+03  0.12627720043E+02  0.30365695310E+03  0.92274816398E+02 0.  0.
         23    2    4    4    0    0  0.49261300312E+03 -0.10440865985E+03 -0.83258763266E+03  0.97730297900E+03  0.91379470361E+02 0.  0.
         11    1    3    3    0    0 -0.17243300884E+03  0.21501834836E+03  0.11888225571E+03  0.30016499361E+03  0.00000000000E+00 0.  1.
        -11    1    3    3    0    0 -0.95853837275E+02  0.71629767690E+02  0.12615449733E+03  0.17387851775E+03  0.00000000000E+00 0. -1.
          1    1    5    5  502    0 -0.16171874162E+03 -0.73855040881E+02 -0.65992973827E+00  0.17778625921E+03  0.00000000000E+00 0. -1.
          3    1    6    6  503    0  0.40223197496E+03 -0.51659647838E+02 -0.62908232340E+03  0.74846766831E+03  0.00000000000E+00 0. -1.
         -1    1    5    5    0  502 -0.62607415383E+02 -0.10838441532E+03  0.13287649781E+02  0.12587069390E+03  0.00000000000E+00 0.  1.
         -3    1    6    6    0  503  0.90381028164E+02 -0.52749012008E+02 -0.20350530926E+03  0.22883531068E+03  0.00000000000E+00 0.  1.
<mgrwt>
<rscale>  0 0.16581618E+04</rscale>
<asrwt>0</asrwt>
<pdfrwt beam="1">  1        1 0.17922512E+00 0.16581618E+04</pdfrwt>
<pdfrwt beam="2">  1       -1 0.90775407E-01 0.16581618E+04</pdfrwt>
<totfact> 0.12835446E+01</totfact>
</mgrwt>
</event>
<event>
12    1  0.4672461E-008  0.1655005E+04  0.7818608E-02  0.8787451E-01
         -2   -1    0    0    0  501 -0.00000000000E+00  0.00000000000E+00  0.74487216734E+03  0.74487216734E+03  0.00000000000E+00 0.  1.
          2   -1    0    0  501    0  0.00000000000E+00 -0.00000000000E+00 -0.91929961643E+03  0.91929961643E+03  0.00000000000E+00 0. -1.
         23    2    1    2    0    0 -0.37399941854E+03  0.25868257305E+03 -0.37754922200E+03  0.59799807096E+03  0.90917760465E+02 0.  0.
        254    2    1    2    0    0  0.37399941854E+03 -0.25868257305E+03  0.20312177291E+03  0.10661737128E+04  0.94269597040E+03 0.  0.
         23    2    4    4    0    0  0.36749125221E+03  0.26249927397E+03 -0.77322213032E+02  0.46816543970E+03  0.96148140962E+02 0.  0.
         23    2    4    4    0    0  0.65081663292E+01 -0.52118184701E+03  0.28044398594E+03  0.59800827312E+03  0.85394329925E+02 0.  0.
         13    1    3    3    0    0 -0.13405929127E+03  0.84108164515E+02 -0.78282078113E+02  0.17656205897E+03  0.00000000000E+00 0. -1.
        -13    1    3    3    0    0 -0.23994012727E+03  0.17457440853E+03 -0.29926714388E+03  0.42143601198E+03  0.00000000000E+00 0.  1.
          4    1    5    5  502    0  0.31447148663E+03  0.19150631285E+03 -0.88985590590E+02  0.37879469254E+03  0.00000000000E+00 0. -1.
          3    1    6    6  503    0 -0.92712690907E+00 -0.28136308017E+01 -0.52864992492E+01  0.60599634409E+01  0.00000000000E+00 0.  1.
         -4    1    5    5    0  502  0.53019765582E+02  0.70992961119E+02  0.11663377559E+02  0.89370747154E+02  0.00000000000E+00 0.  1.
         -3    1    6    6    0  503  0.74352932383E+01 -0.51836821621E+03  0.28573048519E+03  0.59194830968E+03  0.00000000000E+00 0. -1.
<mgrwt>
<rscale>  0 0.16550054E+04</rscale>
<asrwt>0</asrwt>
<pdfrwt beam="1">  1        2 0.14143071E+00 0.16550054E+04</pdfrwt>
<pdfrwt beam="2">  1       -2 0.11459572E+00 0.16550054E+04</pdfrwt>
<totfact> 0.16161818E+01</totfact>
</mgrwt>
</event>
<event>
12    1  0.4672461E-008  0.3905836E+04  0.7818608E-02  0.8023816E-01
         -2   -1    0    0    0  501 -0.00000000000E+00  0.00000000000E+00  0.24836123693E+04  0.24836123693E+04  0.00000000000E+00 0.  1.
          2   -1    0    0  501    0  0.00000000000E+00 -0.00000000000E+00 -0.15356217769E+04  0.15356217769E+04  0.00000000000E+00 0. -1.
         23    2    1    2    0    0  0.14207885263E+04 -0.10062451416E+04 -0.18002991231E+03  0.17526731407E+04  0.91011249181E+02 0.  0.
        254    2    1    2    0    0 -0.14207885263E+04  0.10062451416E+04  0.11280205047E+04  0.22665610054E+04  0.91307130658E+03 0.  0.
         23    2    4    4    0    0 -0.23360571027E+03  0.63261067666E+03  0.19279060399E+03  0.70733644549E+03  0.91590032398E+02 0.  0.
         23    2    4    4    0    0 -0.11871828160E+04  0.37363446493E+03  0.93522990067E+03  0.15592245599E+04  0.86720869003E+02 0.  0.
         13    1    3    3    0    0  0.33616150650E+03 -0.22006525907E+03 -0.77268576802E+02  0.40914998431E+03  0.00000000000E+00 0.  1.
        -13    1    3    3    0    0  0.10846270198E+04 -0.78617988252E+03 -0.10276133551E+03  0.13435231564E+04  0.00000000000E+00 0. -1.
          4    1    5    5  502    0 -0.12634995179E+03  0.26419330451E+03  0.45695155771E+02  0.29639578224E+03  0.00000000000E+00 0. -1.
          1    1    6    6  503    0 -0.82409661636E+03  0.24377782367E+03  0.69138256914E+03  0.11029835526E+04  0.00000000000E+00 0. -1.
         -4    1    5    5    0  502 -0.10725575848E+03  0.36841737214E+03  0.14709544822E+03  0.41094066325E+03  0.00000000000E+00 0.  1.
         -1    1    6    6    0  503 -0.36308619967E+03  0.12985664126E+03  0.24384733154E+03  0.45624100732E+03  0.00000000000E+00 0.  1.
<mgrwt>
<rscale>  0 0.39058363E+04</rscale>
<asrwt>0</asrwt>
<pdfrwt beam="1">  1        2 0.23624950E+00 0.39058363E+04</pdfrwt>
<pdfrwt beam="2">  1       -2 0.38209421E+00 0.39058363E+04</pdfrwt>
<totfact> 0.93451199E-02</totfact>
</mgrwt>
</event>
<event>
12    1  0.4672461E-008  0.1317251E+04  0.7818608E-02  0.9015996E-01
         -1   -1    0    0    0  501 -0.00000000000E+00  0.00000000000E+00  0.68570305456E+03  0.68570305456E+03  0.00000000000E+00 0.  1.
          1   -1    0    0  501    0  0.00000000000E+00 -0.00000000000E+00 -0.63261692196E+03  0.63261692196E+03  0.00000000000E+00 0. -1.
         23    2    1    2    0    0  0.76576547420E+02 -0.17824605275E+03 -0.25957276372E+03  0.33708410281E+03  0.92801130222E+02 0.  0.
        254    2    1    2    0    0 -0.76576547420E+02  0.17824605275E+03  0.31265889631E+03  0.98123587371E+03  0.90963324009E+03 0.  0.
         23    2    4    4    0    0  0.33569706476E+03 -0.15688271958E+03  0.59708395937E+02  0.38574796478E+03  0.89060051596E+02 0.  0.
         23    2    4    4    0    0 -0.41227361218E+03  0.33512877233E+03  0.25295050038E+03  0.59548790894E+03  0.91329451452E+02 0.  0.
         13    1    3    3    0    0  0.87913527944E+02 -0.90620734927E+02 -0.16321791736E+03  0.20635162840E+03  0.00000000000E+00 0. -1.
        -13    1    3    3    0    0 -0.11336980524E+02 -0.87625317821E+02 -0.96354846355E+02  0.13073247442E+03  0.00000000000E+00 0.  1.
          4    1    5    5  502    0  0.26526962084E+03 -0.15947542360E+03  0.59968832944E+02  0.31527233212E+03  0.00000000000E+00 0. -1.
          3    1    6    6  503    0 -0.11847605066E+03  0.10217183528E+03  0.30109164355E+02  0.15931798480E+03  0.00000000000E+00 0. -1.
         -4    1    5    5    0  502  0.70427443920E+02  0.25927040179E+01 -0.26043700692E+00  0.70475632658E+02  0.00000000000E+00 0.  1.
         -3    1    6    6    0  503 -0.29379756153E+03  0.23295693705E+03  0.22284133602E+03  0.43616992414E+03  0.00000000000E+00 0.  1.
<mgrwt>
<rscale>  0 0.13172507E+04</rscale>
<asrwt>0</asrwt>
<pdfrwt beam="1">  1        1 0.97325680E-01 0.13172507E+04</pdfrwt>
<pdfrwt beam="2">  1       -1 0.10549278E+00 0.13172507E+04</pdfrwt>
<totfact> 0.26208542E+01</totfact>
</mgrwt>
</event>
<event>
12    1  0.4672461E-008  0.1176455E+04  0.7818608E-02  0.9133719E-01
          1   -1    0    0  501    0  0.00000000000E+00  0.00000000000E+00  0.13242763654E+04  0.13242763654E+04  0.00000000000E+00 0. -1.
         -1   -1    0    0    0  501 -0.00000000000E+00 -0.00000000000E+00 -0.26128335610E+03  0.26128335610E+03  0.00000000000E+00 0.  1.
         23    2    1    2    0    0  0.12072291899E+03  0.16556919432E+02  0.46628395920E+03  0.49010320973E+03  0.89063296760E+02 0.  0.
        254    2    1    2    0    0 -0.12072291899E+03 -0.16556919432E+02  0.59670905007E+03  0.10954565117E+04  0.91055758957E+03 0.  0.
         23    2    4    4    0    0 -0.15851966483E+03  0.39344568962E+03  0.10190167210E+03  0.44523259263E+03  0.88995033232E+02 0.  0.
         23    2    4    4    0    0  0.37796745841E+02 -0.41000260905E+03  0.49480737797E+03  0.65022391911E+03  0.91793628663E+02 0.  0.
         13    1    3    3    0    0  0.11130571824E+03 -0.19986996997E+02  0.35748106659E+03  0.37494153669E+03  0.00000000000E+00 0.  1.
        -13    1    3    3    0    0  0.94172007477E+01  0.36543916429E+02  0.10880289261E+03  0.11516167304E+03  0.00000000000E+00 0. -1.
          4    1    5    5  502    0 -0.13818279081E+03  0.35673624642E+03  0.62438115747E+02  0.38762578795E+03  0.00000000000E+00 0. -1.
          4    1    6    6  503    0  0.31725174749E+01 -0.21567378573E+03  0.32377683719E+03  0.38904586750E+03  0.00000000000E+00 0. -1.
         -4    1    5    5    0  502 -0.20336874018E+02  0.36709443202E+02  0.39463556351E+02  0.57606804675E+02  0.00000000000E+00 0.  1.
         -4    1    6    6    0  503  0.34624228366E+02 -0.19432882332E+03  0.17103054079E+03  0.26117805161E+03  0.00000000000E+00 0.  1.
<mgrwt>
<rscale>  0 0.11764546E+04</rscale>
<asrwt>0</asrwt>
<pdfrwt beam="1">  1        1 0.20373482E+00 0.11764546E+04</pdfrwt>
<pdfrwt beam="2">  1       -1 0.40197440E-01 0.11764546E+04</pdfrwt>
<totfact> 0.51987034E+01</totfact>
</mgrwt>
</event>
<event>
12    1  0.4672461E-008  0.1110973E+04  0.7818608E-02  0.9194563E-01
          2   -1    0    0  501    0  0.00000000000E+00  0.00000000000E+00  0.23306246509E+04  0.23306246509E+04  0.00000000000E+00 0. -1.
         -2   -1    0    0    0  501 -0.00000000000E+00 -0.00000000000E+00 -0.13239586653E+03  0.13239586653E+03  0.00000000000E+00 0.  1.
         23    2    1    2    0    0 -0.10052337227E+03  0.10171149501E+03  0.18655538724E+03  0.25328453250E+03  0.94339627444E+02 0.  0.
        254    2    1    2    0    0  0.10052337227E+03 -0.10171149501E+03  0.20116733971E+04  0.22097359849E+04  0.90313514482E+03 0.  0.
         23    2    4    4    0    0  0.11549178127E+02  0.28856000794E+03  0.22733430788E+03  0.37878598741E+03  0.91638829230E+02 0.  0.
         23    2    4    4    0    0  0.88974194140E+02 -0.39027150295E+03  0.17843390892E+04  0.18309499975E+04  0.91014585473E+02 0.  0.
         11    1    3    3    0    0 -0.11645427080E+03  0.77325880278E+02  0.13655205679E+03  0.19541584676E+03  0.00000000000E+00 0.  1.
        -11    1    3    3    0    0  0.15930898535E+02  0.24385614728E+02  0.50003330445E+02  0.57868685741E+02  0.00000000000E+00 0. -1.
          2    1    5    5  502    0  0.22378599545E+02  0.81458710201E+02  0.11571945597E+03  0.14327356935E+03  0.00000000000E+00 0. -1.
          3    1    6    6  503    0  0.56623456540E+02 -0.19976247918E+03  0.11197658458E+04  0.11388532887E+04  0.00000000000E+00 0. -1.
         -2    1    5    5    0  502 -0.10829421418E+02  0.20710129774E+03  0.11161485191E+03  0.23551241806E+03  0.00000000000E+00 0.  1.
         -3    1    6    6    0  503  0.32350737599E+02 -0.19050902377E+03  0.66457324346E+03  0.69209670876E+03  0.00000000000E+00 0.  1.
<mgrwt>
<rscale>  0 0.11109727E+04</rscale>
<asrwt>0</asrwt>
<pdfrwt beam="1">  1        2 0.35855761E+00 0.11109727E+04</pdfrwt>
<pdfrwt beam="2">  1       -2 0.20368597E-01 0.11109727E+04</pdfrwt>
<totfact> 0.89980097E+01</totfact>
</mgrwt>
</event>
<event>
12    1  0.4672461E-008  0.2159393E+04  0.7818608E-02  0.8535522E-01
          2   -1    0    0  501    0  0.00000000000E+00  0.00000000000E+00  0.71393578892E+03  0.71393578892E+03  0.00000000000E+00 0. -1.
         -2   -1    0    0    0  501 -0.00000000000E+00 -0.00000000000E+00 -0.16328418532E+04  0.16328418532E+04  0.00000000000E+00 0.  1.
         23    2    1    2    0    0  0.18253320256E+03 -0.77398899056E+03  0.56226946919E+02  0.80242745402E+03  0.91383925643E+02 0.  0.
        254    2    1    2    0    0 -0.18253320256E+03  0.77398899056E+03 -0.97513301117E+03  0.15443501881E+04  0.89540816747E+03 0.  0.
         23    2    4    4    0    0  0.35705002536E+02 -0.32889105226E+02  0.12520089319E+03  0.15945455060E+03  0.85988078261E+02 0.  0.
         23    2    4    4    0    0 -0.21823820510E+03  0.80687809578E+03 -0.11003339044E+04  0.13848956375E+04  0.92309533559E+02 0.  0.
         11    1    3    3    0    0 -0.70006383205E+01 -0.61622764786E+01 -0.15156547310E+01  0.94487987362E+01  0.00000000000E+00 0.  1.
        -11    1    3    3    0    0  0.18953384088E+03 -0.76782671408E+03  0.57742601650E+02  0.79297865529E+03  0.00000000000E+00 0. -1.
          1    1    5    5  502    0  0.25720897449E+02 -0.38163933264E+02  0.14605607120E+02  0.48284305184E+02  0.00000000000E+00 0. -1.
          3    1    6    6  503    0 -0.23664745964E+02  0.99928998166E+02 -0.90114613088E+02  0.13662528451E+03  0.00000000000E+00 0. -1.
         -1    1    5    5    0  502  0.99841050873E+01  0.52748280379E+01  0.11059528607E+03  0.11117024541E+03  0.00000000000E+00 0.  1.
         -3    1    6    6    0  503 -0.19457345913E+03  0.70694909762E+03 -0.10102192913E+04  0.12482703530E+04  0.00000000000E+00 0.  1.
<mgrwt>
<rscale>  0 0.21593927E+04</rscale>
<asrwt>0</asrwt>
<pdfrwt beam="1">  1        2 0.10983628E+00 0.21593927E+04</pdfrwt>
<pdfrwt beam="2">  1       -2 0.25120644E+00 0.21593927E+04</pdfrwt>
<totfact> 0.23145085E+00</totfact>
</mgrwt>
</event>
<event>
12    1  0.4672461E-008  0.1240395E+04  0.7818608E-02  0.9078216E-01
          1   -1    0    0  501    0  0.00000000000E+00  0.00000000000E+00  0.96388369086E+03  0.96388369086E+03  0.00000000000E+00 0. -1.
         -1   -1    0    0    0  501 -0.00000000000E+00 -0.00000000000E+00 -0.39905728372E+03  0.39905728372E+03  0.00000000000E+00 0.  1.
         23    2    1    2    0    0 -0.18860063216E+03  0.20114015501E+03  0.62908047185E+02  0.29657997334E+03  0.89301163361E+02 0.  0.
        254    2    1    2    0    0  0.18860063216E+03 -0.20114015501E+03  0.50191835995E+03  0.10663610012E+04  0.89954220829E+03 0.  0.
         23    2    4    4    0    0 -0.19521530249E+03 -0.79260455290E+02 -0.16482697178E+03  0.28198340608E+03  0.89193478329E+02 0.  0.
         23    2    4    4    0    0  0.38381593465E+03 -0.12187969972E+03  0.66674533174E+03  0.78437759516E+03  0.92355516858E+02 0.  0.
         13    1    3    3    0    0 -0.12992043295E+03  0.16285182780E+03  0.96147336618E+01  0.20854850712E+03  0.00000000000E+00 0.  1.
        -13    1    3    3    0    0 -0.58680199201E+02  0.38288327209E+02  0.53293313523E+02  0.88031466221E+02  0.00000000000E+00 0. -1.
          4    1    5    5  502    0 -0.15154114960E+03 -0.36537873364E+02 -0.15549717902E+03  0.22017971953E+03  0.00000000000E+00 0. -1.
          3    1    6    6  503    0  0.12427670341E+03 -0.62033390604E+02  0.15985734962E+03  0.21177160524E+03  0.00000000000E+00 0. -1.
         -4    1    5    5    0  502 -0.43674152894E+02 -0.42722581926E+02 -0.93297927651E+01  0.61803686545E+02  0.00000000000E+00 0.  1.
         -3    1    6    6    0  503  0.25953923124E+03 -0.59846309116E+02  0.50688798212E+03  0.57260598992E+03  0.00000000000E+00 0.  1.
<mgrwt>
<rscale>  0 0.12403948E+04</rscale>
<asrwt>0</asrwt>
<pdfrwt beam="1">  1        1 0.14828980E+00 0.12403948E+04</pdfrwt>
<pdfrwt beam="2">  1       -1 0.61393429E-01 0.12403948E+04</pdfrwt>
<totfact> 0.42907585E+01</totfact>
</mgrwt>
</event>
<event>
12    1  0.4672461E-008  0.1391574E+04  0.7818608E-02  0.8959940E-01
          1   -1    0    0  501    0  0.00000000000E+00  0.00000000000E+00  0.65822077021E+03  0.65822077021E+03  0.00000000000E+00 0. -1.
         -1   -1    0    0    0  501 -0.00000000000E+00 -0.00000000000E+00 -0.73549756132E+03  0.73549756132E+03  0.00000000000E+00 0.  1.
         23    2    1    2    0    0  0.33417708654E+03 -0.15276127916E+03 -0.17439892233E+03  0.41696656479E+03  0.91846602896E+02 0.  0.
        254    2    1    2    0    0 -0.33417708654E+03  0.15276127916E+03  0.97122131219E+02  0.97675176674E+03  0.89977829040E+03 0.  0.
         23    2    4    4    0    0 -0.11067179348E+03 -0.24030005903E+03 -0.26855506815E+03  0.38802042400E+03  0.91900275143E+02 0.  0.
         23    2    4    4    0    0 -0.22350529306E+03  0.39306133819E+03  0.36567719937E+03  0.58873134274E+03  0.91831085034E+02 0.  0.
         11    1    3    3    0    0  0.31781428613E+03 -0.12786676354E+03 -0.13651184490E+03  0.36877000079E+03  0.00000000000E+00 0.  1.
        -11    1    3    3    0    0  0.16362800415E+02 -0.24894515617E+02 -0.37887077430E+02  0.48196564001E+02  0.00000000000E+00 0. -1.
          1    1    5    5  502    0 -0.12717957931E+03 -0.20904314730E+03 -0.23647798729E+03  0.34028740984E+03  0.00000000000E+00 0. -1.
          3    1    6    6  503    0 -0.11042986762E+03  0.27485953687E+03  0.25869674679E+03  0.39327665513E+03  0.00000000000E+00 0. -1.
         -1    1    5    5    0  502  0.16507785830E+02 -0.31256911732E+02 -0.32077080864E+02  0.47733014160E+02  0.00000000000E+00 0.  1.
         -3    1    6    6    0  503 -0.11307542544E+03  0.11820180133E+03  0.10698045258E+03  0.19545468761E+03  0.00000000000E+00 0.  1.
<mgrwt>
<rscale>  0 0.13915743E+04</rscale>
<asrwt>0</asrwt>
<pdfrwt beam="1">  1        1 0.10126473E+00 0.13915743E+04</pdfrwt>
<pdfrwt beam="2">  1       -1 0.11315347E+00 0.13915743E+04</pdfrwt>
<totfact> 0.20819791E+01</totfact>
</mgrwt>
</event>
<event>
12    1  0.4672461E-008  0.1428535E+04  0.7818608E-02  0.8933419E-01
         -1   -1    0    0    0  501 -0.00000000000E+00  0.00000000000E+00  0.20723792808E+03  0.20723792808E+03  0.00000000000E+00 0.  1.
          1   -1    0    0  501    0  0.00000000000E+00 -0.00000000000E+00 -0.24617982277E+04  0.24617982277E+04  0.00000000000E+00 0. -1.
         23    2    1    2    0    0  0.22799683496E+03  0.25543477937E+03 -0.11899773768E+04  0.12417415590E+04  0.92986336935E+02 0.  0.
        254    2    1    2    0    0 -0.22799683496E+03 -0.25543477937E+03 -0.10645829228E+04  0.14272945967E+04  0.88690674994E+03 0.  0.
         23    2    4    4    0    0  0.10623713292E+03 -0.39849683665E+03 -0.16757754194E+03  0.45483338877E+03  0.93301241899E+02 0.  0.
         23    2    4    4    0    0 -0.33423396788E+03  0.14306205729E+03 -0.89700538086E+03  0.97246120797E+03  0.94249934747E+02 0.  0.
         11    1    3    3    0    0  0.80136871401E+02  0.33555069867E+02 -0.34002602204E+03  0.35094950711E+03  0.00000000000E+00 0.  1.
        -11    1    3    3    0    0  0.14785996356E+03  0.22187970950E+03 -0.84995135473E+03  0.89079205190E+03  0.00000000000E+00 0. -1.
          4    1    5    5  502    0  0.11335018580E+03 -0.39956524370E+03 -0.16232146330E+03  0.44592477621E+03  0.00000000000E+00 0. -1.
          1    1    6    6  503    0 -0.22775744258E+03  0.12485598800E+03 -0.71622005956E+03  0.76186195869E+03  0.00000000000E+00 0. -1.
         -4    1    5    5    0  502 -0.71130528800E+01  0.10684070474E+01 -0.52560786453E+01  0.89086125529E+01  0.00000000000E+00 0.  1.
         -1    1    6    6    0  503 -0.10647652530E+03  0.18206069288E+02 -0.18078532130E+03  0.21059924928E+03  0.00000000000E+00 0.  1.
<mgrwt>
<rscale>  0 0.14285349E+04</rscale>
<asrwt>0</asrwt>
<pdfrwt beam="1">  1        1 0.37873820E+00 0.14285349E+04</pdfrwt>
<pdfrwt beam="2">  1       -1 0.31882758E-01 0.14285349E+04</pdfrwt>
<totfact> 0.12877063E+01</totfact>
</mgrwt>
</event>
<event>
12    1  0.4672461E-008  0.1570854E+04  0.7818608E-02  0.8838656E-01
         -1   -1    0    0    0  501 -0.00000000000E+00  0.00000000000E+00  0.46205413075E+03  0.46205413075E+03  0.00000000000E+00 0.  1.
          1   -1    0    0  501    0  0.00000000000E+00 -0.00000000000E+00 -0.13351149723E+04  0.13351149723E+04  0.00000000000E+00 0. -1.
         23    2    1    2    0    0  0.37476527472E+03 -0.22217396168E+03 -0.62018555482E+03  0.76325983842E+03  0.90139770144E+02 0.  0.
        254    2    1    2    0    0 -0.37476527472E+03  0.22217396168E+03 -0.25287528671E+03  0.10339092646E+04  0.90289101026E+03 0.  0.
         23    2    4    4    0    0  0.13585332863E+03  0.40953556493E+03 -0.39788814803E+02  0.44297194546E+03  0.92008091143E+02 0.  0.
         23    2    4    4    0    0 -0.51061860335E+03 -0.18736160326E+03 -0.21308647190E+03  0.59093731914E+03  0.89248765717E+02 0.  0.
         13    1    3    3    0    0  0.28761615022E+02 -0.29796478707E+00 -0.17220700935E+02  0.33524197565E+02  0.00000000000E+00 0.  1.
        -13    1    3    3    0    0  0.34600365970E+03 -0.22187599689E+03 -0.60296485388E+03  0.72973564086E+03  0.00000000000E+00 0. -1.
          4    1    5    5  502    0  0.12176941451E+03  0.38970208246E+03 -0.15471900192E+02  0.40857665508E+03  0.00000000000E+00 0. -1.
          1    1    6    6  503    0 -0.23371923911E+03 -0.62361339803E+02 -0.13599019361E+03  0.27750126520E+03  0.00000000000E+00 0. -1.
         -4    1    5    5    0  502  0.14083914112E+02  0.19833482477E+02 -0.24316914612E+02  0.34395290377E+02  0.00000000000E+00 0.  1.
         -1    1    6    6    0  503 -0.27689936424E+03 -0.12500026345E+03 -0.77096278296E+02  0.31343605394E+03  0.00000000000E+00 0.  1.
<mgrwt>
<rscale>  0 0.15708538E+04</rscale>
<asrwt>0</asrwt>
<pdfrwt beam="1">  1        1 0.20540230E+00 0.15708538E+04</pdfrwt>
<pdfrwt beam="2">  1       -1 0.71085253E-01 0.15708538E+04</pdfrwt>
<totfact> 0.16415654E+01</totfact>
</mgrwt>
</event>
<event>
12    1  0.4672461E-008  0.2303191E+04  0.7818608E-02  0.8476664E-01
          2   -1    0    0  501    0  0.00000000000E+00  0.00000000000E+00  0.11808008728E+04  0.11808008728E+04  0.00000000000E+00 0.  1.
         -2   -1    0    0    0  501 -0.00000000000E+00 -0.00000000000E+00 -0.11231128923E+04  0.11231128923E+04  0.00000000000E+00 0. -1.
         23    2    1    2    0    0  0.15291176456E+03  0.13547802403E+03  0.97810918478E+03  0.10042968001E+04  0.10088697903E+03 0.  0.
        254    2    1    2    0    0 -0.15291176456E+03 -0.13547802403E+03 -0.92042120434E+03  0.12996169650E+04  0.89447904371E+03 0.  0.
         23    2    4    4    0    0  0.16770485970E+03  0.29814125516E+03 -0.24314942758E+03  0.42915116160E+03  0.89643445802E+02 0.  0.
         23    2    4    4    0    0 -0.32061662427E+03 -0.43361927919E+03 -0.67727177676E+03  0.87046580342E+03  0.90514950617E+02 0.  0.
         11    1    3    3    0    0  0.10712472845E+03  0.14417664766E+03  0.72393481539E+03  0.74588486384E+03  0.00000000000E+00 0.  1.
        -11    1    3    3    0    0  0.45787036109E+02 -0.86986236261E+01  0.25417436939E+03  0.25841193623E+03  0.00000000000E+00 0. -1.
          2    1    5    5  502    0  0.16683828127E+03  0.29787326382E+03 -0.22037839112E+03  0.40636206599E+03  0.00000000000E+00 0. -1.
          1    1    6    6  503    0 -0.13763969137E+03 -0.21546058856E+03 -0.38722777767E+03  0.46401864366E+03  0.00000000000E+00 0. -1.
         -2    1    5    5    0  502  0.86657842991E+00  0.26799133492E+00 -0.22771036459E+02  0.22789095615E+02  0.00000000000E+00 0.  1.
         -1    1    6    6    0  503 -0.18297693289E+03 -0.21815869063E+03 -0.29004399909E+03  0.40644715976E+03  0.00000000000E+00 0.  1.
<mgrwt>
<rscale>  0 0.23031914E+04</rscale>
<asrwt>0</asrwt>
<pdfrwt beam="1">  1        2 0.18166167E+00 0.23031914E+04</pdfrwt>
<pdfrwt beam="2">  1       -2 0.17278660E+00 0.23031914E+04</pdfrwt>
<totfact> 0.35903667E+00</totfact>
</mgrwt>
</event>
<event>
12    1  0.4672461E-008  0.1633392E+04  0.7818608E-02  0.8800293E-01
         -1   -1    0    0    0  501 -0.00000000000E+00  0.00000000000E+00  0.58223098881E+03  0.58223098881E+03  0.00000000000E+00 0.  1.
          1   -1    0    0  501    0  0.00000000000E+00 -0.00000000000E+00 -0.11455799421E+04  0.11455799421E+04  0.00000000000E+00 0. -1.
         23    2    1    2    0    0  0.35848931902E+03  0.59862672737E+02 -0.64878025272E+03  0.74955074420E+03  0.93874226336E+02 0.  0.
        254    2    1    2    0    0 -0.35848931902E+03 -0.59862672737E+02  0.85431299463E+02  0.97826018668E+03  0.90421034857E+03 0.  0.
         23    2    4    4    0    0 -0.61583436210E+02  0.38361754036E+03 -0.85263765636E+02  0.41067593440E+03  0.10212676670E+03 0.  0.
         23    2    4    4    0    0 -0.29690588281E+03 -0.44348021310E+03  0.17069506510E+03  0.56758425228E+03  0.90483564958E+02 0.  0.
         11    1    3    3    0    0  0.11694145540E+03  0.57639772717E+02 -0.27759337020E+03  0.30668506088E+03  0.00000000000E+00 0.  1.
        -11    1    3    3    0    0  0.24154786362E+03  0.22229000206E+01 -0.37118688252E+03  0.44286568332E+03  0.00000000000E+00 0. -1.
          1    1    5    5  502    0 -0.31084332458E+02  0.41374081621E+02  0.12891121415E+02  0.53331335682E+02  0.00000000000E+00 0. -1.
          3    1    6    6  503    0 -0.11686893643E+03 -0.22520850700E+03  0.43754174092E+02  0.25747164442E+03  0.00000000000E+00 0. -1.
         -1    1    5    5    0  502 -0.30499103751E+02  0.34224345874E+03 -0.98154887051E+02  0.35734459872E+03  0.00000000000E+00 0.  1.
         -3    1    6    6    0  503 -0.18003694638E+03 -0.21827170609E+03  0.12694089101E+03  0.31011260786E+03  0.00000000000E+00 0.  1.
<mgrwt>
<rscale>  0 0.16333917E+04</rscale>
<asrwt>0</asrwt>
<pdfrwt beam="1">  1        1 0.17624306E+00 0.16333917E+04</pdfrwt>
<pdfrwt beam="2">  1       -1 0.89574000E-01 0.16333917E+04</pdfrwt>
<totfact> 0.13692252E+01</totfact>
</mgrwt>
</event>
<event>
12    1  0.4672461E-008  0.1069252E+04  0.7818608E-02  0.9235690E-01
          2   -1    0    0  501    0  0.00000000000E+00  0.00000000000E+00  0.32329176093E+04  0.32329176093E+04  0.00000000000E+00 0.  1.
         -2   -1    0    0    0  501 -0.00000000000E+00 -0.00000000000E+00 -0.88410800922E+02  0.88410800922E+02  0.00000000000E+00 0. -1.
         23    2    1    2    0    0 -0.36081378456E+02  0.10629301972E+03  0.68763532180E+03  0.70262765420E+03  0.90792140317E+02 0.  0.
        254    2    1    2    0    0  0.36081378456E+02 -0.10629301972E+03  0.24568714865E+04  0.26187007560E+04  0.89931978524E+03 0.  0.
         23    2    4    4    0    0 -0.52833344522E+02 -0.78986044008E+02 -0.24490889201E+02  0.13393285584E+03  0.91148498493E+02 0.  0.
         23    2    4    4    0    0  0.88914722978E+02 -0.27306975711E+02  0.24813623757E+04  0.24847679001E+04  0.90888827621E+02 0.  0.
         11    1    3    3    0    0 -0.63022181455E+02  0.47707986173E+02  0.34050604176E+03  0.34956002600E+03  0.00000000000E+00 0. -1.
        -11    1    3    3    0    0  0.26940802998E+02  0.58585033545E+02  0.34712928004E+03  0.35306762820E+03  0.00000000000E+00 0.  1.
          2    1    5    5  502    0 -0.40779510820E+02 -0.22454819949E+02  0.29273330549E+02  0.54991956895E+02  0.00000000000E+00 0. -1.
          3    1    6    6  503    0  0.10784631297E+03 -0.22353410484E+02  0.21668811427E+04  0.21696784068E+04  0.00000000000E+00 0. -1.
         -2    1    5    5    0  502 -0.12053833701E+02 -0.56531224059E+02 -0.53764219750E+02  0.78940898942E+02  0.00000000000E+00 0.  1.
         -3    1    6    6    0  503 -0.18931589992E+02 -0.49535652264E+01  0.31448123298E+03  0.31508949333E+03  0.00000000000E+00 0.  1.
<mgrwt>
<rscale>  0 0.10692518E+04</rscale>
<asrwt>0</asrwt>
<pdfrwt beam="1">  1        2 0.49737185E+00 0.10692518E+04</pdfrwt>
<pdfrwt beam="2">  1       -2 0.13601664E-01 0.10692518E+04</pdfrwt>
<totfact> 0.52176363E+01</totfact>
</mgrwt>
</event>
<event>
12    1  0.4672461E-008  0.3125567E+04  0.7818608E-02  0.8208756E-01
         -1   -1    0    0    0  501 -0.00000000000E+00  0.00000000000E+00  0.13908313673E+04  0.13908313673E+04  0.00000000000E+00 0.  1.
          1   -1    0    0  501    0  0.00000000000E+00 -0.00000000000E+00 -0.17559940864E+04  0.17559940864E+04  0.00000000000E+00 0. -1.
         23    2    1    2    0    0  0.49001089480E+03  0.37931950836E+03  0.11355513684E+04  0.12968228112E+04  0.90986411071E+02 0.  0.
        254    2    1    2    0    0 -0.49001089480E+03 -0.37931950836E+03 -0.15007140875E+04  0.18500026425E+04  0.88677676922E+03 0.  0.
         23    2    4    4    0    0 -0.59296761873E+03  0.70201233221E+02 -0.95061781382E+03  0.11262732228E+04  0.90985353296E+02 0.  0.
         23    2    4    4    0    0  0.10295672393E+03 -0.44952074158E+03 -0.55009627364E+03  0.72372941965E+03  0.92246292477E+02 0.  0.
         11    1    3    3    0    0  0.23063529303E+03  0.18335001806E+03  0.44670940715E+03  0.53512537031E+03  0.00000000000E+00 0. -1.
        -11    1    3    3    0    0  0.25937560177E+03  0.19596949030E+03  0.68884196123E+03  0.76169744090E+03  0.00000000000E+00 0.  1.
          4    1    5    5  502    0 -0.22465022268E+03  0.64632315453E+02 -0.41298419221E+03  0.47455347619E+03  0.00000000000E+00 0. -1.
          1    1    6    6  503    0  0.88925050125E+01 -0.17637376774E+03 -0.15992611654E+03  0.23825017385E+03  0.00000000000E+00 0. -1.
         -4    1    5    5    0  502 -0.36831739605E+03  0.55689177683E+01 -0.53763362162E+03  0.65171974665E+03  0.00000000000E+00 0.  1.
         -1    1    6    6    0  503  0.94064218915E+02 -0.27314697384E+03 -0.39017015711E+03  0.48547924579E+03  0.00000000000E+00 0.  1.
<mgrwt>
<rscale>  0 0.31255666E+04</rscale>
<asrwt>0</asrwt>
<pdfrwt beam="1">  1        1 0.27015294E+00 0.31255666E+04</pdfrwt>
<pdfrwt beam="2">  1       -1 0.21397406E+00 0.31255666E+04</pdfrwt>
<totfact> 0.44408358E-01</totfact>
</mgrwt>
</event>
<event>
12    1  0.4672461E-008  0.1656025E+04  0.7818608E-02  0.8786850E-01
         -2   -1    0    0    0  501 -0.00000000000E+00  0.00000000000E+00  0.77429686703E+03  0.77429686703E+03  0.00000000000E+00 0.  1.
          2   -1    0    0  501    0  0.00000000000E+00 -0.00000000000E+00 -0.88545457521E+03  0.88545457521E+03  0.00000000000E+00 0. -1.
         23    2    1    2    0    0 -0.36670072317E+03 -0.34408609459E+03  0.22741548461E+03  0.55967168748E+03  0.93005022795E+02 0.  0.
        254    2    1    2    0    0  0.36670072317E+03  0.34408609459E+03 -0.33857319279E+03  0.11000797548E+04  0.91797548937E+03 0.  0.
         23    2    4    4    0    0 -0.23310786351E+03  0.15852548955E+03  0.11718531668E+03  0.31867149760E+03  0.91375697366E+02 0.  0.
         23    2    4    4    0    0  0.59980858668E+03  0.18556060504E+03 -0.45575850946E+03  0.78140825715E+03  0.93166338325E+02 0.  0.
         11    1    3    3    0    0 -0.24858474030E+02  0.81133793693E-01  0.20818053648E+02  0.32424399323E+02  0.00000000000E+00 0. -1.
        -11    1    3    3    0    0 -0.34184224914E+03 -0.34416722839E+03  0.20659743096E+03  0.52724728816E+03  0.00000000000E+00 0.  1.
          2    1    5    5  502    0 -0.29223799082E+02 -0.94933362525E+01  0.22250740846E+02  0.37937439742E+02  0.00000000000E+00 0. -1.
          3    1    6    6  503    0  0.11807671755E+01 -0.47339096992E+01  0.69871488654E+00  0.49287234306E+01  0.00000000000E+00 0. -1.
         -2    1    5    5    0  502 -0.20388406443E+03  0.16801882580E+03  0.94934575834E+02  0.28073405786E+03  0.00000000000E+00 0.  1.
         -3    1    6    6    0  503  0.59862781951E+03  0.19029451474E+03 -0.45645722435E+03  0.77647953372E+03  0.00000000000E+00 0.  1.
<mgrwt>
<rscale>  0 0.16560250E+04</rscale>
<asrwt>0</asrwt>
<pdfrwt beam="1">  1        2 0.13622378E+00 0.16560250E+04</pdfrwt>
<pdfrwt beam="2">  1       -2 0.11912260E+00 0.16560250E+04</pdfrwt>
<totfact> 0.15489005E+01</totfact>
</mgrwt>
</event>
<event>
12    1  0.4672461E-008  0.1883880E+04  0.7818608E-02  0.8662922E-01
         -2   -1    0    0    0  501 -0.00000000000E+00  0.00000000000E+00  0.48940783159E+03  0.48940783159E+03  0.00000000000E+00 0.  1.
          2   -1    0    0  501    0  0.00000000000E+00 -0.00000000000E+00 -0.18129067942E+04  0.18129067942E+04  0.00000000000E+00 0. -1.
         23    2    1    2    0    0  0.47960079365E+02  0.44722286851E+03 -0.11845671494E+04  0.12695159431E+04  0.78504363166E+02 0.  0.
        254    2    1    2    0    0 -0.47960079365E+02 -0.44722286851E+03 -0.13893181322E+03  0.10327986827E+04  0.91927286857E+03 0.  0.
         23    2    4    4    0    0 -0.33850061770E+03 -0.55560520452E+03  0.48981970126E+02  0.65863591089E+03  0.90123350111E+02 0.  0.
         23    2    4    4    0    0  0.29054053834E+03  0.10838233601E+03 -0.18791378334E+03  0.37416277180E+03  0.92334471630E+02 0.  0.
         13    1    3    3    0    0 -0.59991690259E+01  0.25442336393E+03 -0.71961708484E+03  0.76329285791E+03  0.00000000000E+00 0.  1.
        -13    1    3    3    0    0  0.53959248391E+02  0.19279950458E+03 -0.46495006458E+03  0.50622308522E+03  0.00000000000E+00 0. -1.
          2    1    5    5  502    0 -0.37477510778E+02 -0.40864514149E+02  0.27639078602E+02  0.61954749590E+02  0.00000000000E+00 0. -1.
          4    1    6    6  503    0  0.14467830649E+03  0.40346765106E+02 -0.14223149814E+03  0.20685616473E+03  0.00000000000E+00 0. -1.
         -2    1    5    5    0  502 -0.30102310692E+03 -0.51474069037E+03  0.21342891524E+02  0.59668116130E+03  0.00000000000E+00 0.  1.
         -4    1    6    6    0  503  0.14586223184E+03  0.68035570902E+02 -0.45682285209E+02  0.16730660707E+03  0.00000000000E+00 0.  1.
<mgrwt>
<rscale>  0 0.18838798E+04</rscale>
<asrwt>0</asrwt>
<pdfrwt beam="1">  1        2 0.27890874E+00 0.18838798E+04</pdfrwt>
<pdfrwt beam="2">  1       -2 0.75293513E-01 0.18838798E+04</pdfrwt>
<totfact> 0.12598689E+01</totfact>
</mgrwt>
</event>
<event>
12    1  0.4672461E-008  0.1138234E+04  0.7818608E-02  0.9168707E-01
         -1   -1    0    0    0  501 -0.00000000000E+00  0.00000000000E+00  0.10413288085E+04  0.10413288085E+04  0.00000000000E+00 0.  1.
          1   -1    0    0  501    0  0.00000000000E+00 -0.00000000000E+00 -0.31103951981E+03  0.31103951981E+03  0.00000000000E+00 0. -1.
         23    2    1    2    0    0  0.27341844463E+02 -0.19604872260E+03  0.14674211348E+03  0.26307859190E+03  0.92165175390E+02 0.  0.
        254    2    1    2    0    0 -0.27341844463E+02  0.19604872260E+03  0.58354717526E+03  0.10892897365E+04  0.89824392350E+03 0.  0.
         23    2    4    4    0    0  0.10505276326E+03 -0.25022234045E+03 -0.57171955208E+02  0.29194700658E+03  0.91198242646E+02 0.  0.
         23    2    4    4    0    0 -0.13239460772E+03  0.44627106305E+03  0.64071913047E+03  0.79734272987E+03  0.92456643171E+02 0.  0.
         11    1    3    3    0    0  0.46112792456E+01 -0.83774260073E+02  0.96920613447E+01  0.84459023202E+02  0.00000000000E+00 0. -1.
        -11    1    3    3    0    0  0.22730565218E+02 -0.11227446253E+03  0.13705005214E+03  0.17861956870E+03  0.00000000000E+00 0.  1.
          1    1    5    5  502    0  0.60422805206E+02 -0.81410420353E+02  0.15972934236E+02  0.10263384704E+03  0.00000000000E+00 0. -1.
          3    1    6    6  503    0 -0.94884237911E+02  0.16779354273E+03  0.23770925071E+03  0.30604473441E+03  0.00000000000E+00 0. -1.
         -1    1    5    5    0  502  0.44629958053E+02 -0.16881192010E+03 -0.73144889444E+02  0.18931315954E+03  0.00000000000E+00 0.  1.
         -3    1    6    6    0  503 -0.37510369811E+02  0.27847752032E+03  0.40300987975E+03  0.49129799546E+03  0.00000000000E+00 0.  1.
<mgrwt>
<rscale>  0 0.11382344E+04</rscale>
<asrwt>0</asrwt>
<pdfrwt beam="1">  1        1 0.47852234E-01 0.11382344E+04</pdfrwt>
<pdfrwt beam="2">  1       -1 0.16020443E+00 0.11382344E+04</pdfrwt>
<totfact> 0.24206426E+01</totfact>
</mgrwt>
</event>
<event>
12    1  0.4672461E-008  0.1195283E+04  0.7818608E-02  0.9116996E-01
         -2   -1    0    0    0  501 -0.00000000000E+00  0.00000000000E+00  0.19578261313E+03  0.19578261313E+03  0.00000000000E+00 0. -1.
          2   -1    0    0  501    0  0.00000000000E+00 -0.00000000000E+00 -0.18243457683E+04  0.18243457683E+04  0.00000000000E+00 0.  1.
         23    2    1    2    0    0  0.18729156560E+03  0.15180624043E+03 -0.41759886332E+03  0.49099412009E+03  0.92537290511E+02 0.  0.
        254    2    1    2    0    0 -0.18729156560E+03 -0.15180624043E+03 -0.12109642918E+04  0.15291342613E+04  0.90204978127E+03 0.  0.
         23    2    4    4    0    0  0.43675709339E+02 -0.63757068273E+02 -0.12568174222E+04  0.12624551711E+04  0.90722075001E+02 0.  0.
         23    2    4    4    0    0 -0.23096727494E+03 -0.88049172157E+02  0.45853130380E+02  0.26667909024E+03  0.88975776448E+02 0.  0.
         13    1    3    3    0    0  0.25120431024E+02  0.62852647496E+02 -0.70781699311E+02  0.97936409519E+02  0.00000000000E+00 0. -1.
        -13    1    3    3    0    0  0.16217113458E+03  0.88953592933E+02 -0.34681716401E+03  0.39305771057E+03  0.00000000000E+00 0.  1.
          2    1    5    5  502    0 -0.10863739115E+02 -0.60658320663E+02 -0.80315771268E+03  0.80551832017E+03  0.00000000000E+00 0. -1.
          4    1    6    6  503    0 -0.32962260674E+02  0.13405200939E+02 -0.10629760902E+02  0.37137607055E+02  0.00000000000E+00 0.  1.
         -2    1    5    5    0  502  0.54539448454E+02 -0.30987476099E+01 -0.45365970951E+03  0.45693685089E+03  0.00000000000E+00 0.  1.
         -4    1    6    6    0  503 -0.19800501427E+03 -0.10145437310E+03  0.56482891283E+02  0.22954148319E+03  0.00000000000E+00 0. -1.
<mgrwt>
<rscale>  0 0.11952827E+04</rscale>
<asrwt>0</asrwt>
<pdfrwt beam="1">  1        2 0.28066858E+00 0.11952827E+04</pdfrwt>
<pdfrwt beam="2">  1       -2 0.30120402E-01 0.11952827E+04</pdfrwt>
<totfact> 0.84059648E+01</totfact>
</mgrwt>
</event>
<event>
12    1  0.4672461E-008  0.1896730E+04  0.7818608E-02  0.8656486E-01
         -2   -1    0    0    0  501 -0.00000000000E+00  0.00000000000E+00  0.23390667690E+03  0.23390667690E+03  0.00000000000E+00 0.  1.
          2   -1    0    0  501    0  0.00000000000E+00 -0.00000000000E+00 -0.38451052858E+04  0.38451052858E+04  0.00000000000E+00 0. -1.
         23    2    1    2    0    0  0.20640355064E+03 -0.63351643072E+03 -0.79200835316E+03  0.10389353599E+04  0.90354617706E+02 0.  0.
        254    2    1    2    0    0 -0.20640355064E+03  0.63351643072E+03 -0.28191902557E+04  0.30400766028E+04  0.92210984101E+03 0.  0.
         23    2    4    4    0    0 -0.32561457597E+03  0.47437027404E+03 -0.70662011018E+03  0.91611539491E+03  0.94357976413E+02 0.  0.
         23    2    4    4    0    0  0.11921102533E+03  0.15914615668E+03 -0.21125701456E+04  0.21239612079E+04  0.93380001994E+02 0.  0.
         13    1    3    3    0    0  0.19879547273E+03 -0.58191043810E+03 -0.68922212785E+03  0.92367014646E+03  0.00000000000E+00 0. -1.
        -13    1    3    3    0    0  0.76080779033E+01 -0.51605992625E+02 -0.10278622530E+03  0.11526521347E+03  0.00000000000E+00 0.  1.
          4    1    6    6  502    0  0.87980723793E+01  0.10737132312E+02 -0.28527370418E+02  0.31725430665E+02  0.00000000000E+00 0. -1.
          4    1    5    5  503    0 -0.77627807361E+02  0.16522459525E+03 -0.17372963174E+03  0.25200640527E+03  0.00000000000E+00 0. -1.
         -4    1    5    5    0  503 -0.24798676861E+03  0.30914567879E+03 -0.53289047843E+03  0.66410898964E+03  0.00000000000E+00 0.  1.
         -4    1    6    6    0  502  0.11041295295E+03  0.14840902437E+03 -0.20840427752E+04  0.20922357772E+04  0.00000000000E+00 0.  1.
<mgrwt>
<rscale>  0 0.18967296E+04</rscale>
<asrwt>0</asrwt>
<pdfrwt beam="1">  1        2 0.59155458E+00 0.18967296E+04</pdfrwt>
<pdfrwt beam="2">  1       -2 0.35985648E-01 0.18967296E+04</pdfrwt>
<totfact> 0.31187749E+00</totfact>
</mgrwt>
</event>
<event>
12    1  0.4672461E-008  0.1762911E+04  0.7818608E-02  0.8726276E-01
          1   -1    0    0  501    0  0.00000000000E+00  0.00000000000E+00  0.64570496228E+03  0.64570496228E+03  0.00000000000E+00 0. -1.
         -1   -1    0    0    0  501 -0.00000000000E+00 -0.00000000000E+00 -0.12032797722E+04  0.12032797722E+04  0.00000000000E+00 0.  1.
         23    2    1    2    0    0  0.68447285825E+02  0.93160276689E+02  0.45522849362E+03  0.47769844408E+03  0.87171979349E+02 0.  0.
        254    2    1    2    0    0 -0.68447285825E+02 -0.93160276689E+02 -0.10128033035E+04  0.13712862904E+04  0.91721954323E+03 0.  0.
         23    2    4    4    0    0 -0.44252289731E+03 -0.23019393622E+02 -0.81624158303E+03  0.93316415157E+03  0.90490910020E+02 0.  0.
         23    2    4    4    0    0  0.37407561149E+03 -0.70140883067E+02 -0.19656172051E+03  0.43812213882E+03  0.91990173234E+02 0.  0.
         13    1    3    3    0    0  0.39478935446E+02  0.32827781118E+02  0.34457656136E+03  0.34838090676E+03  0.00000000000E+00 0. -1.
        -13    1    3    3    0    0  0.28968350379E+02  0.60332495571E+02  0.11065193226E+03  0.12931753732E+03  0.00000000000E+00 0.  1.
          4    1    5    5  502    0 -0.23676762920E+03 -0.23432358087E+02 -0.52685552178E+03  0.57808712706E+03  0.00000000000E+00 0. -1.
          4    1    6    6  503    0  0.46364393822E+02 -0.13942934268E+02  0.59972396734E+01  0.48785544111E+02  0.00000000000E+00 0. -1.
         -4    1    5    5    0  502 -0.20575526811E+03  0.41296446477E+00 -0.28938606125E+03  0.35507702452E+03  0.00000000000E+00 0.  1.
         -4    1    6    6    0  503  0.32771121766E+03 -0.56197948799E+02 -0.20255896018E+03  0.38933659471E+03  0.00000000000E+00 0.  1.
<mgrwt>
<rscale>  0 0.17629109E+04</rscale>
<asrwt>0</asrwt>
<pdfrwt beam="1">  1        1 0.99339226E-01 0.17629109E+04</pdfrwt>
<pdfrwt beam="2">  1       -1 0.18511996E+00 0.17629109E+04</pdfrwt>
<totfact> 0.55687565E+00</totfact>
</mgrwt>
</event>
<event>
12    1  0.4672461E-008  0.2331160E+04  0.7818608E-02  0.8465736E-01
         -1   -1    0    0    0  501 -0.00000000000E+00  0.00000000000E+00  0.10564661813E+04  0.10564661813E+04  0.00000000000E+00 0.  1.
          1   -1    0    0  501    0  0.00000000000E+00 -0.00000000000E+00 -0.12859629344E+04  0.12859629344E+04  0.00000000000E+00 0. -1.
         23    2    1    2    0    0  0.28930640163E+03  0.83326288721E+03  0.26515211741E+03  0.92511176195E+03  0.86607698886E+02 0.  0.
        254    2    1    2    0    0 -0.28930640163E+03 -0.83326288721E+03 -0.49464887057E+03  0.14173173537E+04  0.99301850071E+03 0.  0.
         23    2    4    4    0    0  0.24178056217E+03  0.73605287416E+02 -0.53790008563E+02  0.27404934770E+03  0.91291299575E+02 0.  0.
         23    2    4    4    0    0 -0.53108696380E+03 -0.90686817462E+03 -0.44085886201E+03  0.11432680060E+04  0.90785175491E+02 0.  0.
         13    1    3    3    0    0  0.89649629826E+02  0.30505687724E+03  0.55482822614E+02  0.32276167381E+03  0.00000000000E+00 0. -1.
        -13    1    3    3    0    0  0.19965677181E+03  0.52820600997E+03  0.20966929479E+03  0.60235008814E+03  0.00000000000E+00 0.  1.
          2    1    5    5  502    0  0.19699499389E+03  0.64803646470E+02 -0.78987791580E+02  0.22191352242E+03  0.00000000000E+00 0. -1.
          3    1    6    6  503    0 -0.50004510118E+03 -0.81490236369E+03 -0.38085942581E+03  0.10291573581E+04  0.00000000000E+00 0. -1.
         -2    1    5    5    0  502  0.44785568281E+02  0.88016409467E+01  0.25197783016E+02  0.52135825288E+02  0.00000000000E+00 0.  1.
         -3    1    6    6    0  503 -0.31041862623E+02 -0.91965810936E+02 -0.59999436202E+02  0.11411064789E+03  0.00000000000E+00 0.  1.
<mgrwt>
<rscale>  0 0.23311597E+04</rscale>
<asrwt>0</asrwt>
<pdfrwt beam="1">  1        1 0.19784045E+00 0.23311597E+04</pdfrwt>
<pdfrwt beam="2">  1       -1 0.16253326E+00 0.23311597E+04</pdfrwt>
<totfact> 0.23338920E+00</totfact>
</mgrwt>
</event>
<event>
12    1  0.4672461E-008  0.1343648E+04  0.7818608E-02  0.8995651E-01
          1   -1    0    0  501    0  0.00000000000E+00  0.00000000000E+00  0.10127760861E+04  0.10127760861E+04  0.00000000000E+00 0. -1.
         -1   -1    0    0    0  501 -0.00000000000E+00 -0.00000000000E+00 -0.44565350884E+03  0.44565350884E+03  0.00000000000E+00 0.  1.
         23    2    1    2    0    0 -0.14763741954E+03 -0.32098818201E+03  0.61349163170E+02  0.37024568783E+03  0.92129956563E+02 0.  0.
        254    2    1    2    0    0  0.14763741954E+03  0.32098818201E+03  0.50577341411E+03  0.10881839071E+04  0.89638565846E+03 0.  0.
         23    2    4    4    0    0 -0.10947054703E+03 -0.24424519839E+03  0.10215659544E+01  0.28265463833E+03  0.90846482395E+02 0.  0.
         23    2    4    4    0    0  0.25710796658E+03  0.56523338041E+03  0.50475184816E+03  0.80552926881E+03  0.92248002095E+02 0.  0.
         11    1    3    3    0    0 -0.50405525861E+02 -0.18346629648E+03 -0.20765499103E+01  0.19027588140E+03  0.00000000000E+00 0.  1.
        -11    1    3    3    0    0 -0.97231893679E+02 -0.13752188553E+03  0.63425713080E+02  0.17996980643E+03  0.00000000000E+00 0. -1.
          2    1    5    5  502    0 -0.33916619477E+01 -0.59669920590E+02  0.31562376258E+02  0.67588359863E+02  0.00000000000E+00 0. -1.
          4    1    6    6  503    0  0.34589976931E+02  0.17403751337E+03  0.13198094459E+03  0.22114360108E+03  0.00000000000E+00 0. -1.
         -2    1    5    5    0  502 -0.10607888509E+03 -0.18457527781E+03 -0.30540810303E+02  0.21506627846E+03  0.00000000000E+00 0.  1.
         -4    1    6    6    0  503  0.22251798964E+03  0.39119586704E+03  0.37277090357E+03  0.58438566773E+03  0.00000000000E+00 0.  1.
<mgrwt>
<rscale>  0 0.13436476E+04</rscale>
<asrwt>0</asrwt>
<pdfrwt beam="1">  1        1 0.15581171E+00 0.13436476E+04</pdfrwt>
<pdfrwt beam="2">  1       -1 0.68562079E-01 0.13436476E+04</pdfrwt>
<totfact> 0.31182849E+01</totfact>
</mgrwt>
</event>
<event>
12    1  0.4672461E-008  0.2530304E+04  0.7818608E-02  0.8392268E-01
         -4   -1    0    0    0  501 -0.00000000000E+00  0.00000000000E+00  0.49825911506E+03  0.49825911506E+03  0.00000000000E+00 0.  1.
          4   -1    0    0  501    0  0.00000000000E+00 -0.00000000000E+00 -0.32124041910E+04  0.32124041910E+04  0.00000000000E+00 0. -1.
         23    2    1    2    0    0  0.75301049913E+03  0.14434686071E+03 -0.24434585319E+02  0.77261846551E+03  0.92094605117E+02 0.  0.
        254    2    1    2    0    0 -0.75301049913E+03 -0.14434686071E+03 -0.26897104906E+04  0.29380448406E+04  0.89983561483E+03 0.  0.
         23    2    4    4    0    0 -0.39539266986E+03  0.33246767267E+03 -0.81247767291E+03  0.96634557222E+03  0.82666070606E+02 0.  0.
         23    2    4    4    0    0 -0.35761782927E+03 -0.47681453338E+03 -0.18772328177E+04  0.19716992683E+04  0.91391147103E+02 0.  0.
         11    1    3    3    0    0  0.36446766339E+03  0.95446475089E+02 -0.50582557507E+02  0.38013853052E+03  0.00000000000E+00 0. -1.
        -11    1    3    3    0    0  0.38854283574E+03  0.48900385620E+02  0.26147972188E+02  0.39247993499E+03  0.00000000000E+00 0.  1.
          4    1    5    5  502    0 -0.39008929814E+03  0.33679001987E+03 -0.79348648331E+03  0.94615959393E+03  0.00000000000E+00 0. -1.
          4    1    6    6  503    0 -0.26931691940E+03 -0.41269010101E+03 -0.14895445418E+04  0.15689447615E+04  0.00000000000E+00 0. -1.
         -4    1    5    5    0  502 -0.53033717249E+01 -0.43223471998E+01 -0.18991189600E+02  0.20185978287E+02  0.00000000000E+00 0.  1.
         -4    1    6    6    0  503 -0.88300909867E+02 -0.64124432363E+02 -0.38768827592E+03  0.40275450686E+03  0.00000000000E+00 0.  1.
<mgrwt>
<rscale>  0 0.25303041E+04</rscale>
<asrwt>0</asrwt>
<pdfrwt beam="1">  1        4 0.49421603E+00 0.25303041E+04</pdfrwt>
<pdfrwt beam="2">  1       -4 0.76655249E-01 0.25303041E+04</pdfrwt>
<totfact> 0.36482867E-03</totfact>
</mgrwt>
</event>
<event>
12    1  0.4672461E-008  0.1253332E+04  0.7818608E-02  0.9067415E-01
          1   -1    0    0  501    0  0.00000000000E+00  0.00000000000E+00  0.60264718571E+03  0.60264718571E+03  0.00000000000E+00 0. -1.
         -1   -1    0    0    0  501 -0.00000000000E+00 -0.00000000000E+00 -0.65164192209E+03  0.65164192209E+03  0.00000000000E+00 0.  1.
         23    2    1    2    0    0  0.12044652796E+03  0.23079822067E+03 -0.13955899048E+03  0.31020304068E+03  0.94731356261E+02 0.  0.
        254    2    1    2    0    0 -0.12044652796E+03 -0.23079822067E+03  0.90564254105E+02  0.94408606713E+03  0.90295151213E+03 0.  0.
         23    2    4    4    0    0 -0.40191961647E+03  0.16658843299E+03  0.31817317028E+02  0.44610857334E+03  0.93324345378E+02 0.  0.
         23    2    4    4    0    0  0.28147308851E+03 -0.39738665366E+03  0.58746937077E+02  0.49797749378E+03  0.85948412618E+02 0.  0.
         13    1    3    3    0    0  0.10111658101E+03  0.23119104885E+03 -0.14376434772E+03  0.29041703066E+03  0.00000000000E+00 0.  1.
        -13    1    3    3    0    0  0.19329946952E+02 -0.39282817313E+00  0.42053572341E+01  0.19786010023E+02  0.00000000000E+00 0. -1.
          2    1    5    5  502    0 -0.21751906864E+03  0.83338665017E+02  0.63220410096E+02  0.24136424458E+03  0.00000000000E+00 0. -1.
          4    1    6    6  503    0  0.21971310621E+03 -0.28366979370E+03  0.77639991906E+01  0.35889090346E+03  0.00000000000E+00 0. -1.
         -2    1    5    5    0  502 -0.18440054783E+03  0.83249767971E+02 -0.31403093068E+02  0.20474432876E+03  0.00000000000E+00 0.  1.
         -4    1    6    6    0  503  0.61759982303E+02 -0.11371685996E+03  0.50982937886E+02  0.13908659032E+03  0.00000000000E+00 0.  1.
<mgrwt>
<rscale>  0 0.12533318E+04</rscale>
<asrwt>0</asrwt>
<pdfrwt beam="1">  1        1 0.92714952E-01 0.12533318E+04</pdfrwt>
<pdfrwt beam="2">  1       -1 0.10025260E+00 0.12533318E+04</pdfrwt>
<totfact> 0.31811069E+01</totfact>
</mgrwt>
</event>
<event>
12    1  0.4672461E-008  0.1389315E+04  0.7818608E-02  0.8961589E-01
         -1   -1    0    0    0  501 -0.00000000000E+00  0.00000000000E+00  0.57340594841E+03  0.57340594841E+03  0.00000000000E+00 0.  1.
          1   -1    0    0  501    0  0.00000000000E+00 -0.00000000000E+00 -0.84154912850E+03  0.84154912850E+03  0.00000000000E+00 0. -1.
         23    2    1    2    0    0 -0.10509130381E+03 -0.15916247566E+03 -0.43634201815E+03  0.48520089880E+03  0.92998277401E+02 0.  0.
        254    2    1    2    0    0  0.10509130381E+03  0.15916247566E+03  0.16819883806E+03  0.92975417811E+03  0.89430146304E+03 0.  0.
         23    2    4    4    0    0  0.35688259990E+01  0.53541043407E+02 -0.35981598635E+03  0.37417754022E+03  0.87532323866E+02 0.  0.
         23    2    4    4    0    0  0.10152247781E+03  0.10562143225E+03  0.52801482441E+03  0.55557663789E+03  0.91668125983E+02 0.  0.
         11    1    3    3    0    0 -0.79952361786E+02 -0.39688418644E+02 -0.16323360539E+03  0.18604505008E+03  0.00000000000E+00 0. -1.
        -11    1    3    3    0    0 -0.25138942028E+02 -0.11947405701E+03 -0.27310841276E+03  0.29915584873E+03  0.00000000000E+00 0.  1.
          2    1    5    5  502    0 -0.52394512174E+01 -0.21782731137E+02 -0.13673755966E+03  0.13856081497E+03  0.00000000000E+00 0. -1.
          1    1    6    6  503    0 -0.11062259441E+02 -0.68477508502E+01  0.28594937080E+02  0.31415532818E+02  0.00000000000E+00 0. -1.
         -2    1    5    5    0  502  0.88082772164E+01  0.75323774543E+02 -0.22307842669E+03  0.23561672524E+03  0.00000000000E+00 0.  1.
         -1    1    6    6    0  503  0.11258473726E+03  0.11246918310E+03  0.49941988733E+03  0.52416110507E+03  0.00000000000E+00 0.  1.
<mgrwt>
<rscale>  0 0.13893153E+04</rscale>
<asrwt>0</asrwt>
<pdfrwt beam="1">  1        1 0.12946910E+00 0.13893153E+04</pdfrwt>
<pdfrwt beam="2">  1       -1 0.88216300E-01 0.13893153E+04</pdfrwt>
<totfact> 0.25093210E+01</totfact>
</mgrwt>
</event>
<event>
12    1  0.4672461E-008  0.1744626E+04  0.7818608E-02  0.8736314E-01
         -2   -1    0    0    0  501 -0.00000000000E+00  0.00000000000E+00  0.32532870249E+03  0.32532870249E+03  0.00000000000E+00 0.  1.
          2   -1    0    0  501    0  0.00000000000E+00 -0.00000000000E+00 -0.23389574483E+04  0.23389574483E+04  0.00000000000E+00 0. -1.
         23    2    1    2    0    0 -0.35346905649E+03  0.43818806808E+03 -0.12006441145E+04  0.13292089177E+04  0.91109277726E+02 0.  0.
        254    2    1    2    0    0  0.35346905649E+03 -0.43818806808E+03 -0.81298463132E+03  0.13350772330E+04  0.89696045092E+03 0.  0.
         23    2    4    4    0    0  0.32668939770E+03 -0.15104211330E+03  0.89439470271E+02  0.38316234572E+03  0.96303072536E+02 0.  0.
         23    2    4    4    0    0  0.26779658795E+02 -0.28714595478E+03 -0.90242410159E+03  0.95191488732E+03  0.92750978918E+02 0.  0.
         13    1    3    3    0    0 -0.24497727007E+03  0.35810784715E+03 -0.95629361234E+03  0.10501202627E+04  0.00000000000E+00 0. -1.
        -13    1    3    3    0    0 -0.10849178642E+03  0.80080220925E+02 -0.24435050213E+03  0.27908865508E+03  0.00000000000E+00 0.  1.
          3    1    6    6  502    0  0.10841025270E+02 -0.19399989933E+03 -0.72860598613E+03  0.75406907627E+03  0.00000000000E+00 0. -1.
          3    1    5    5  503    0  0.24847185382E+03 -0.99671028066E+02  0.23625902235E+02  0.26875780776E+03  0.00000000000E+00 0. -1.
         -3    1    5    5    0  503  0.78217543873E+02 -0.51371085236E+02  0.65813568036E+02  0.11440453796E+03  0.00000000000E+00 0.  1.
         -3    1    6    6    0  502  0.15938633524E+02 -0.93146055448E+02 -0.17381811546E+03  0.19784581104E+03  0.00000000000E+00 0.  1.
<mgrwt>
<rscale>  0 0.17446260E+04</rscale>
<asrwt>0</asrwt>
<pdfrwt beam="1">  1        2 0.35983960E+00 0.17446260E+04</pdfrwt>
<pdfrwt beam="2">  1       -2 0.50050570E-01 0.17446260E+04</pdfrwt>
<totfact> 0.15439381E+01</totfact>
</mgrwt>
</event>
<event>
12    1  0.4672461E-008  0.1463392E+04  0.7818608E-02  0.8909168E-01
         -1   -1    0    0    0  501 -0.00000000000E+00  0.00000000000E+00  0.94042310357E+03  0.94042310357E+03  0.00000000000E+00 0.  1.
          1   -1    0    0  501    0  0.00000000000E+00 -0.00000000000E+00 -0.56929594746E+03  0.56929594746E+03  0.00000000000E+00 0. -1.
         23    2    1    2    0    0 -0.65059155059E+02 -0.37502405495E+03 -0.13556893396E+03  0.41381847092E+03  0.89392704236E+02 0.  0.
        254    2    1    2    0    0  0.65059155059E+02  0.37502405495E+03  0.50669609008E+03  0.10959005801E+04  0.89408132646E+03 0.  0.
         23    2    4    4    0    0 -0.87095171222E+02 -0.23122370148E+03 -0.32620265124E+02  0.26522506356E+03  0.90720910866E+02 0.  0.
         23    2    4    4    0    0  0.15215432628E+03  0.60624775643E+03  0.53931635520E+03  0.83067551655E+03  0.92045649655E+02 0.  0.
         11    1    3    3    0    0 -0.83191977833E+02 -0.27636936442E+03 -0.11882979520E+03  0.31212409551E+03  0.00000000000E+00 0. -1.
        -11    1    3    3    0    0  0.18132822775E+02 -0.98654690530E+02 -0.16739138768E+02  0.10169437542E+03  0.00000000000E+00 0.  1.
          2    1    5    5  502    0 -0.19448348921E+02 -0.13673092873E+03 -0.51683275151E+02  0.14746099850E+03  0.00000000000E+00 0. -1.
          3    1    6    6  503    0  0.84594541130E+02  0.18104021850E+03  0.14549746304E+03  0.24718678940E+03  0.00000000000E+00 0. -1.
         -2    1    5    5    0  502 -0.67646822301E+02 -0.94492772746E+02  0.19063010027E+02  0.11776406506E+03  0.00000000000E+00 0.  1.
         -3    1    6    6    0  503  0.67559785150E+02  0.42520753793E+03  0.39381889217E+03  0.58348872715E+03  0.00000000000E+00 0.  1.
<mgrwt>
<rscale>  0 0.14633920E+04</rscale>
<asrwt>0</asrwt>
<pdfrwt beam="1">  1        1 0.87583992E-01 0.14633920E+04</pdfrwt>
<pdfrwt beam="2">  1       -1 0.14468048E+00 0.14633920E+04</pdfrwt>
<totfact> 0.13773978E+01</totfact>
</mgrwt>
</event>
<event>
12    1  0.4672461E-008  0.1449164E+04  0.7818608E-02  0.8918980E-01
         -2   -1    0    0    0  501 -0.00000000000E+00  0.00000000000E+00  0.10589252939E+04  0.10589252939E+04  0.00000000000E+00 0.  1.
          2   -1    0    0  501    0  0.00000000000E+00 -0.00000000000E+00 -0.49580388496E+03  0.49580388496E+03  0.00000000000E+00 0. -1.
         23    2    1    2    0    0  0.16882731231E+03 -0.29619883816E+03  0.45235615201E+03  0.57410792635E+03  0.93474112556E+02 0.  0.
        254    2    1    2    0    0 -0.16882731231E+03  0.29619883816E+03  0.11076525689E+03  0.98062125248E+03  0.91275006742E+03 0.  0.
         23    2    4    4    0    0  0.26236768787E+03  0.32484214045E+03  0.27610114422E+03  0.50897892570E+03  0.92024372397E+02 0.  0.
         23    2    4    4    0    0 -0.43119500019E+03 -0.28643302289E+02 -0.16533588733E+03  0.47164232678E+03  0.91438295157E+02 0.  0.
         13    1    3    3    0    0  0.14713512500E+02 -0.10975838876E+03  0.12362329057E+03  0.16597020614E+03  0.00000000000E+00 0. -1.
        -13    1    3    3    0    0  0.15411379981E+03 -0.18644044940E+03  0.32873286145E+03  0.40813772021E+03  0.00000000000E+00 0.  1.
          2    1    5    5  502    0  0.20911903675E+03  0.19375159490E+03  0.16782324065E+03  0.33080975222E+03  0.00000000000E+00 0.  1.
          1    1    6    6  503    0 -0.26838285909E+02 -0.25030408743E+02 -0.20996769362E+02  0.42280956423E+02  0.00000000000E+00 0. -1.
         -2    1    5    5    0  502  0.53248651120E+02  0.13109054555E+03  0.10827790356E+03  0.17816917348E+03  0.00000000000E+00 0. -1.
         -1    1    6    6    0  503 -0.40435671428E+03 -0.36128935462E+01 -0.14433911797E+03  0.42936137036E+03  0.00000000000E+00 0.  1.
<mgrwt>
<rscale>  0 0.14491643E+04</rscale>
<asrwt>0</asrwt>
<pdfrwt beam="1">  1        2 0.76277521E-01 0.14491643E+04</pdfrwt>
<pdfrwt beam="2">  1       -2 0.16291158E+00 0.14491643E+04</pdfrwt>
<totfact> 0.14445932E+01</totfact>
</mgrwt>
</event>
<event>
12    1  0.4672461E-008  0.2375887E+04  0.7818608E-02  0.8448587E-01
         -2   -1    0    0    0  501 -0.00000000000E+00  0.00000000000E+00  0.10875354274E+04  0.10875354274E+04  0.00000000000E+00 0.  1.
          2   -1    0    0  501    0  0.00000000000E+00 -0.00000000000E+00 -0.12976221530E+04  0.12976221530E+04  0.00000000000E+00 0. -1.
         23    2    1    2    0    0  0.98305480894E+03  0.21703240895E+03  0.32949285083E+02  0.10112037292E+04  0.89148766519E+02 0.  0.
        254    2    1    2    0    0 -0.98305480894E+03 -0.21703240895E+03 -0.24303601075E+03  0.13739538512E+04  0.90287477477E+03 0.  0.
         23    2    4    4    0    0 -0.11111349705E+04 -0.11493414639E+03 -0.78015151724E+02  0.11237531561E+04  0.94361068354E+02 0.  0.
         23    2    4    4    0    0  0.12808016158E+03 -0.10209826256E+03 -0.16502085903E+03  0.25020069515E+03  0.92411692607E+02 0.  0.
         11    1    3    3    0    0  0.27297057393E+03  0.47853551251E+02  0.47098043463E+02  0.28110695882E+03  0.00000000000E+00 0. -1.
        -11    1    3    3    0    0  0.71008423501E+03  0.16917885770E+03 -0.14148758381E+02  0.73009677035E+03  0.00000000000E+00 0.  1.
          4    1    5    5  502    0 -0.84808933755E+03 -0.57017675590E+02 -0.85577501518E+02  0.85430091218E+03  0.00000000000E+00 0. -1.
          1    1    6    6  503    0  0.81103690177E+02 -0.70271831712E+02 -0.42953416454E+02  0.11558951024E+03  0.00000000000E+00 0. -1.
         -4    1    5    5    0  502 -0.26304563297E+03 -0.57916470798E+02  0.75623497934E+01  0.26945224391E+03  0.00000000000E+00 0.  1.
         -1    1    6    6    0  503  0.46976471403E+02 -0.31826430847E+02 -0.12206744257E+03  0.13461118491E+03  0.00000000000E+00 0.  1.
<mgrwt>
<rscale>  0 0.23758873E+04</rscale>
<asrwt>0</asrwt>
<pdfrwt beam="1">  1        2 0.19963418E+00 0.23758873E+04</pdfrwt>
<pdfrwt beam="2">  1       -2 0.16731314E+00 0.23758873E+04</pdfrwt>
<totfact> 0.33292386E+00</totfact>
</mgrwt>
</event>
<event>
12    1  0.4672461E-008  0.1119035E+04  0.7818608E-02  0.9186835E-01
          2   -1    0    0  501    0  0.00000000000E+00  0.00000000000E+00  0.41246426992E+04  0.41246426992E+04  0.00000000000E+00 0.  1.
         -2   -1    0    0    0  501 -0.00000000000E+00 -0.00000000000E+00 -0.75899934233E+02  0.75899934233E+02  0.00000000000E+00 0. -1.
         23    2    1    2    0    0  0.12609641680E+03 -0.13639207906E+02  0.25219965416E+03  0.29682236507E+03  0.91719771742E+02 0.  0.
        254    2    1    2    0    0 -0.12609641680E+03  0.13639207906E+02  0.37965431108E+04  0.39037202684E+04  0.89955878466E+03 0.  0.
         23    2    4    4    0    0 -0.58022700596E+02  0.41032238094E+03  0.26852678985E+04  0.27185160515E+04  0.89077190563E+02 0.  0.
         23    2    4    4    0    0 -0.68073716204E+02 -0.39668317304E+03  0.11112752124E+04  0.11852042169E+04  0.88231895531E+02 0.  0.
         13    1    3    3    0    0  0.47236695144E+02 -0.78309190577E+01  0.20652180890E+02  0.52145385576E+02  0.00000000000E+00 0. -1.
        -13    1    3    3    0    0  0.78859721656E+02 -0.58082888481E+01  0.23154747327E+03  0.24467697950E+03  0.00000000000E+00 0.  1.
          4    1    5    5  502    0 -0.38697310713E+02  0.52177057471E+02  0.44600213000E+03  0.45070813965E+03  0.00000000000E+00 0. -1.
          3    1    6    6  503    0 -0.65181335872E+01 -0.12658171285E+03  0.46700175882E+03  0.48389674398E+03  0.00000000000E+00 0. -1.
         -4    1    5    5    0  502 -0.19325389883E+02  0.35814532347E+03  0.22392657685E+04  0.22678079119E+04  0.00000000000E+00 0.  1.
         -3    1    6    6    0  503 -0.61555582616E+02 -0.27010146019E+03  0.64427345356E+03  0.70130747287E+03  0.00000000000E+00 0.  1.
<mgrwt>
<rscale>  0 0.11190355E+04</rscale>
<asrwt>0</asrwt>
<pdfrwt beam="1">  1        2 0.63456024E+00 0.11190355E+04</pdfrwt>
<pdfrwt beam="2">  1       -2 0.11676916E-01 0.11190355E+04</pdfrwt>
<totfact> 0.15026339E+01</totfact>
</mgrwt>
</event>
<event>
12    1  0.4672461E-008  0.1119946E+04  0.7818608E-02  0.9185966E-01
          2   -1    0    0  501    0  0.00000000000E+00  0.00000000000E+00  0.44686240601E+03  0.44686240601E+03  0.00000000000E+00 0.  1.
         -2   -1    0    0    0  501 -0.00000000000E+00 -0.00000000000E+00 -0.70171432374E+03  0.70171432374E+03  0.00000000000E+00 0. -1.
         23    2    1    2    0    0 -0.40979391931E+02  0.16514260097E+02  0.13390521922E+03  0.16918705100E+03  0.93496626374E+02 0.  0.
        254    2    1    2    0    0  0.40979391931E+02 -0.16514260097E+02 -0.38875713695E+03  0.97938967874E+03  0.89784185687E+03 0.  0.
         23    2    4    4    0    0 -0.31842648284E+03 -0.23748940712E+03 -0.16004589095E+02  0.40773938504E+03  0.90546207918E+02 0.  0.
         23    2    4    4    0    0  0.35940587477E+03  0.22097514703E+03 -0.37275254785E+03  0.57165029371E+03  0.99181641132E+02 0.  0.
         11    1    3    3    0    0 -0.24956097838E+02 -0.87627879342E+01 -0.51510080637E+01  0.26946728109E+02  0.00000000000E+00 0. -1.
        -11    1    3    3    0    0 -0.16023294092E+02  0.25277048031E+02  0.13905622728E+03  0.14224032290E+03  0.00000000000E+00 0.  1.
          4    1    5    5  502    0 -0.41998089476E+02 -0.64049511120E+02 -0.27025175021E+02  0.81219083221E+02  0.00000000000E+00 0. -1.
          3    1    6    6  503    0  0.76092839507E+02  0.93983167087E+02 -0.80537063915E+02  0.14528996725E+03  0.00000000000E+00 0. -1.
         -4    1    5    5    0  502 -0.27642839337E+03 -0.17343989600E+03  0.11020585926E+02  0.32652030182E+03  0.00000000000E+00 0.  1.
         -3    1    6    6    0  503  0.28331303527E+03  0.12699197994E+03 -0.29221548394E+03  0.42636032645E+03  0.00000000000E+00 0.  1.
<mgrwt>
<rscale>  0 0.11199460E+04</rscale>
<asrwt>0</asrwt>
<pdfrwt beam="1">  1        2 0.68748063E-01 0.11199460E+04</pdfrwt>
<pdfrwt beam="2">  1       -2 0.10795605E+00 0.11199460E+04</pdfrwt>
<totfact> 0.47800961E+01</totfact>
</mgrwt>
</event>
<event>
12    1  0.4672461E-008  0.2228449E+04  0.7818608E-02  0.8506680E-01
          2   -1    0    0  501    0  0.00000000000E+00  0.00000000000E+00  0.12039063180E+04  0.12039063180E+04  0.00000000000E+00 0. -1.
         -2   -1    0    0    0  501 -0.00000000000E+00 -0.00000000000E+00 -0.10312231998E+04  0.10312231998E+04  0.00000000000E+00 0.  1.
         23    2    1    2    0    0  0.91676111517E+03  0.14643746400E+02 -0.73162973079E+02  0.92426392507E+03  0.90805291468E+02 0.  0.
        254    2    1    2    0    0 -0.91676111517E+03 -0.14643746400E+02  0.24584609121E+03  0.13108655928E+04  0.90402595101E+03 0.  0.
         23    2    4    4    0    0 -0.42663904372E+03 -0.33417520922E+03 -0.18320686439E+03  0.57953596062E+03  0.92753600517E+02 0.  0.
         23    2    4    4    0    0 -0.49012207146E+03  0.31953146282E+03  0.42905295560E+03  0.73132963213E+03  0.91850919813E+02 0.  0.
         11    1    3    3    0    0  0.29035586919E+03 -0.32150381746E+02 -0.24023387379E+01  0.29214029002E+03  0.00000000000E+00 0.  1.
        -11    1    3    3    0    0  0.62640524598E+03  0.46794128146E+02 -0.70760634341E+02  0.63212363506E+03  0.00000000000E+00 0. -1.
          1    1    5    5  502    0 -0.34145334370E+03 -0.30972282279E+03 -0.15926158867E+03  0.48773237180E+03  0.00000000000E+00 0. -1.
          3    1    6    6  503    0 -0.17913993717E+03  0.14796554830E+03  0.21552108071E+03  0.31691364250E+03  0.00000000000E+00 0. -1.
         -1    1    5    5    0  502 -0.85185700018E+02 -0.24452386429E+02 -0.23945275718E+02  0.91803588812E+02  0.00000000000E+00 0.  1.
         -3    1    6    6    0  503 -0.31098213429E+03  0.17156591452E+03  0.21353187489E+03  0.41441598963E+03  0.00000000000E+00 0.  1.
<mgrwt>
<rscale>  0 0.22284489E+04</rscale>
<asrwt>0</asrwt>
<pdfrwt beam="1">  1        2 0.18521636E+00 0.22284489E+04</pdfrwt>
<pdfrwt beam="2">  1       -2 0.15864972E+00 0.22284489E+04</pdfrwt>
<totfact> 0.44286736E+00</totfact>
</mgrwt>
</event>
<event>
12    1  0.4672461E-008  0.1268893E+04  0.7818608E-02  0.9054603E-01
          2   -1    0    0  501    0  0.00000000000E+00  0.00000000000E+00  0.21266246606E+04  0.21266246606E+04  0.00000000000E+00 0. -1.
         -2   -1    0    0    0  501 -0.00000000000E+00 -0.00000000000E+00 -0.18927768399E+03  0.18927768399E+03  0.00000000000E+00 0.  1.
         23    2    1    2    0    0  0.28326622471E+03 -0.26020014405E+02  0.26722607244E+03  0.40093403547E+03  0.91768904293E+02 0.  0.
        254    2    1    2    0    0 -0.28326622471E+03  0.26020014405E+02  0.16701209042E+04  0.19149683091E+04  0.89268303175E+03 0.  0.
         23    2    4    4    0    0  0.16468002773E+03 -0.63574402408E+02  0.13122406333E+04  0.13273541447E+04  0.93446934437E+02 0.  0.
         23    2    4    4    0    0 -0.44794625245E+03  0.89594416813E+02  0.35788027091E+03  0.58761416448E+03  0.92353199068E+02 0.  0.
         13    1    3    3    0    0  0.57937736599E+02  0.21554914290E+02  0.95080525432E+02  0.11340944391E+03  0.00000000000E+00 0. -1.
        -13    1    3    3    0    0  0.22532848812E+03 -0.47574928696E+02  0.17214554701E+03  0.28752459156E+03  0.00000000000E+00 0.  1.
          2    1    5    5  502    0 -0.29775638233E+01 -0.18061431349E+02  0.27990990560E+03  0.28050781886E+03  0.00000000000E+00 0. -1.
          1    1    6    6  503    0 -0.11165111743E+03  0.59466463776E+02  0.74467312144E+02  0.14679105189E+03  0.00000000000E+00 0. -1.
         -2    1    5    5    0  502  0.16765759156E+03 -0.45512971059E+02  0.10323307277E+04  0.10468463258E+04  0.00000000000E+00 0.  1.
         -1    1    6    6    0  503 -0.33629513502E+03  0.30127953037E+02  0.28341295877E+03  0.44082311259E+03  0.00000000000E+00 0.  1.
<mgrwt>
<rscale>  0 0.12688934E+04</rscale>
<asrwt>0</asrwt>
<pdfrwt beam="1">  1        2 0.32717301E+00 0.12688934E+04</pdfrwt>
<pdfrwt beam="2">  1       -2 0.29119645E-01 0.12688934E+04</pdfrwt>
<totfact> 0.60560774E+01</totfact>
</mgrwt>
</event>
<event>
12    1  0.4672461E-008  0.2172726E+04  0.7818608E-02  0.8529867E-01
          1   -1    0    0  501    0  0.00000000000E+00  0.00000000000E+00  0.93603908371E+03  0.93603908371E+03  0.00000000000E+00 0. -1.
         -1   -1    0    0    0  501 -0.00000000000E+00 -0.00000000000E+00 -0.12608280224E+04  0.12608280224E+04  0.00000000000E+00 0.  1.
         23    2    1    2    0    0  0.29901839311E+02  0.84490007568E+03 -0.38432022068E+03  0.93354722080E+03  0.95174174840E+02 0.  0.
        254    2    1    2    0    0 -0.29901839311E+02 -0.84490007568E+03  0.59531281973E+02  0.12633198853E+04  0.93684732013E+03 0.  0.
         23    2    4    4    0    0  0.28036080302E+03  0.60110655870E+02  0.15393140390E+01  0.30047628121E+03  0.89822910565E+02 0.  0.
         23    2    4    4    0    0 -0.31026264234E+03 -0.90501073155E+03  0.57991967934E+02  0.96284360411E+03  0.91637362347E+02 0.  0.
         13    1    3    3    0    0  0.59288424976E+02  0.67336658496E+03 -0.32140959794E+03  0.74849302249E+03  0.00000000000E+00 0.  1.
        -13    1    3    3    0    0 -0.29386585665E+02  0.17153349073E+03 -0.62910622747E+02  0.18505419831E+03  0.00000000000E+00 0. -1.
          3    1    5    5  502    0  0.79497737968E+02  0.17071635297E+02 -0.40435339120E+02  0.90809403277E+02  0.00000000000E+00 0. -1.
          3    1    6    6  503    0 -0.63601786484E+02 -0.22330234651E+03  0.51632545130E+02  0.23785509227E+03  0.00000000000E+00 0. -1.
         -3    1    5    5    0  502  0.20086306506E+03  0.43039020573E+02  0.41974653159E+02  0.20966687794E+03  0.00000000000E+00 0.  1.
         -3    1    6    6    0  503 -0.24666085585E+03 -0.68170838504E+03  0.63594228036E+01  0.72498851184E+03  0.00000000000E+00 0.  1.
<mgrwt>
<rscale>  0 0.21727258E+04</rscale>
<asrwt>0</asrwt>
<pdfrwt beam="1">  1        1 0.14400601E+00 0.21727258E+04</pdfrwt>
<pdfrwt beam="2">  1       -1 0.19397354E+00 0.21727258E+04</pdfrwt>
<totfact> 0.25759613E+00</totfact>
</mgrwt>
</event>
<event>
12    1  0.4672461E-008  0.1618699E+04  0.7818608E-02  0.8809142E-01
          2   -1    0    0  501    0  0.00000000000E+00  0.00000000000E+00  0.11673091312E+04  0.11673091312E+04  0.00000000000E+00 0. -1.
         -2   -1    0    0    0  501 -0.00000000000E+00 -0.00000000000E+00 -0.56115924109E+03  0.56115924109E+03  0.00000000000E+00 0.  1.
         23    2    1    2    0    0  0.35461055212E+03  0.29632257243E+03  0.53169313998E+03  0.71018538024E+03  0.90055364068E+02 0.  0.
        254    2    1    2    0    0 -0.35461055212E+03 -0.29632257243E+03  0.74456750076E+02  0.10182829920E+04  0.90432335675E+03 0.  0.
         23    2    4    4    0    0  0.18795888167E+03  0.87714406975E+01 -0.23701037074E+03  0.31609631157E+03  0.91309818621E+02 0.  0.
         23    2    4    4    0    0 -0.54256943379E+03 -0.30509401312E+03  0.31146712082E+03  0.70218668044E+03  0.92684516002E+02 0.  0.
         13    1    3    3    0    0  0.22816796980E+02  0.29725478928E+02  0.86483960577E+02  0.94253306356E+02  0.00000000000E+00 0.  1.
        -13    1    3    3    0    0  0.33179375514E+03  0.26659709350E+03  0.44520917941E+03  0.61593207389E+03  0.00000000000E+00 0. -1.
          2    1    5    5  502    0  0.18729391017E+03  0.23361127233E+02 -0.23490758403E+03  0.30134087690E+03  0.00000000000E+00 0. -1.
          1    1    6    6  503    0 -0.32807964292E+03 -0.23531207815E+03  0.19652420728E+03  0.44903205929E+03  0.00000000000E+00 0. -1.
         -2    1    5    5    0  502  0.66497149416E+00 -0.14589686536E+02 -0.21027867103E+01  0.14755434668E+02  0.00000000000E+00 0.  1.
         -1    1    6    6    0  503 -0.21448979088E+03 -0.69781934972E+02  0.11494291354E+03  0.25315462115E+03  0.00000000000E+00 0.  1.
<mgrwt>
<rscale>  0 0.16186986E+04</rscale>
<asrwt>0</asrwt>
<pdfrwt beam="1">  1        2 0.17958602E+00 0.16186986E+04</pdfrwt>
<pdfrwt beam="2">  1       -2 0.86332191E-01 0.16186986E+04</pdfrwt>
<totfact> 0.22071339E+01</totfact>
</mgrwt>
</event>
<event>
12    1  0.4672461E-008  0.2028027E+04  0.7818608E-02  0.8593628E-01
          1   -1    0    0  501    0  0.00000000000E+00  0.00000000000E+00  0.62361283375E+03  0.62361283375E+03  0.00000000000E+00 0. -1.
         -1   -1    0    0    0  501 -0.00000000000E+00 -0.00000000000E+00 -0.16488172530E+04  0.16488172530E+04  0.00000000000E+00 0.  1.
         23    2    1    2    0    0  0.59102374794E+03  0.36793947415E+03 -0.87310103169E+03  0.11203903603E+04  0.90997915925E+02 0.  0.
        254    2    1    2    0    0 -0.59102374794E+03 -0.36793947415E+03 -0.15210338758E+03  0.11520397264E+04  0.90519145131E+03 0.  0.
         23    2    4    4    0    0 -0.79068823714E+03 -0.43531143630E+03 -0.79419136354E+02  0.91083655087E+03  0.92907955788E+02 0.  0.
         23    2    4    4    0    0  0.19966448920E+03  0.67371962156E+02 -0.72684251229E+02  0.24120317558E+03  0.92147067246E+02 0.  0.
         11    1    3    3    0    0  0.42234614145E+03  0.27509920208E+03 -0.56576634977E+03  0.75772514589E+03  0.00000000000E+00 0.  1.
        -11    1    3    3    0    0  0.16867760649E+03  0.92840272066E+02 -0.30733468192E+03  0.36266521443E+03  0.00000000000E+00 0. -1.
          3    1    6    6  502    0  0.91963504277E+02  0.45401902373E+02 -0.81402662229E+02  0.13093896393E+03  0.00000000000E+00 0. -1.
          3    1    5    5  503    0 -0.20115213072E+03 -0.13924963419E+03  0.11400176404E+02  0.24491346296E+03  0.00000000000E+00 0. -1.
         -3    1    5    5    0  503 -0.58953610642E+03 -0.29606180211E+03 -0.90819312758E+02  0.66592308791E+03  0.00000000000E+00 0.  1.
         -3    1    6    6    0  502  0.10770098492E+03  0.21970059783E+02  0.87184110006E+01  0.11026421165E+03  0.00000000000E+00 0.  1.
<mgrwt>
<rscale>  0 0.20280272E+04</rscale>
<asrwt>0</asrwt>
<pdfrwt beam="1">  1        1 0.95940437E-01 0.20280272E+04</pdfrwt>
<pdfrwt beam="2">  1       -1 0.25366419E+00 0.20280272E+04</pdfrwt>
<totfact> 0.19769209E+00</totfact>
</mgrwt>
</event>
<event>
12    1  0.4672461E-008  0.3586829E+04  0.7818608E-02  0.8093515E-01
         -2   -1    0    0    0  501 -0.00000000000E+00  0.00000000000E+00  0.15634056454E+04  0.15634056454E+04  0.00000000000E+00 0.  1.
          2   -1    0    0  501    0  0.00000000000E+00 -0.00000000000E+00 -0.20572618796E+04  0.20572618796E+04  0.00000000000E+00 0. -1.
         23    2    1    2    0    0 -0.25983693768E+03  0.93327251179E+01 -0.18978981072E+04  0.19176894365E+04  0.88956255600E+02 0.  0.
        254    2    1    2    0    0  0.25983693768E+03 -0.93327251179E+01  0.14040418730E+04  0.17029780886E+04  0.92800778832E+03 0.  0.
         23    2    4    4    0    0  0.32050354125E+03 -0.27375719664E+03  0.13423299647E+04  0.14098719986E+04  0.90685146024E+02 0.  0.
         23    2    4    4    0    0 -0.60666603567E+02  0.26442447152E+03  0.61711908299E+02  0.29310608998E+03  0.92206737439E+02 0.  0.
         11    1    3    3    0    0 -0.12576743954E+03  0.33154479093E+02 -0.11660217204E+04  0.11732533063E+04  0.00000000000E+00 0. -1.
        -11    1    3    3    0    0 -0.13406949814E+03 -0.23821753975E+02 -0.73187638682E+03  0.74443613016E+03  0.00000000000E+00 0.  1.
          4    1    5    5  502    0  0.30028043682E+03 -0.27705116480E+03  0.13025770116E+04  0.13651492811E+04  0.00000000000E+00 0. -1.
          1    1    6    6  503    0 -0.22426236624E+02  0.17169992126E+03 -0.39866243084E+01  0.17320419228E+03  0.00000000000E+00 0. -1.
         -4    1    5    5    0  502  0.20223104427E+02  0.32939681595E+01  0.39752953110E+02  0.44722717492E+02  0.00000000000E+00 0.  1.
         -1    1    6    6    0  503 -0.38240366943E+02  0.92724550260E+02  0.65698532607E+02  0.11990189770E+03  0.00000000000E+00 0.  1.
<mgrwt>
<rscale>  0 0.35868286E+04</rscale>
<asrwt>0</asrwt>
<pdfrwt beam="1">  1        2 0.31650182E+00 0.35868286E+04</pdfrwt>
<pdfrwt beam="2">  1       -2 0.24052395E+00 0.35868286E+04</pdfrwt>
<totfact> 0.37242991E-01</totfact>
</mgrwt>
</event>
<event>
12    1  0.4672461E-008  0.2381529E+04  0.7818608E-02  0.8446451E-01
         -3   -1    0    0    0  501 -0.00000000000E+00  0.00000000000E+00  0.16656724756E+04  0.16656724756E+04  0.00000000000E+00 0.  1.
          3   -1    0    0  501    0  0.00000000000E+00 -0.00000000000E+00 -0.85126017330E+03  0.85126017330E+03  0.00000000000E+00 0. -1.
         23    2    1    2    0    0 -0.70310916214E+03 -0.14148210524E+02  0.10940211315E+04  0.13040698093E+04  0.95672177742E+02 0.  0.
        254    2    1    2    0    0  0.70310916214E+03  0.14148210524E+02 -0.27960882915E+03  0.12128628396E+04  0.94778294178E+03 0.  0.
         23    2    4    4    0    0  0.47842535258E+03 -0.70715988398E+01 -0.62382250872E+03  0.79151451885E+03  0.91650890136E+02 0.  0.
         23    2    4    4    0    0  0.22468380956E+03  0.21219809363E+02  0.34421367957E+03  0.42134832080E+03  0.90101363200E+02 0.  0.
         13    1    3    3    0    0 -0.39927979294E+02 -0.86663621958E+01  0.11071324512E+03  0.11801174521E+03  0.00000000000E+00 0. -1.
        -13    1    3    3    0    0 -0.66318118284E+03 -0.54818483279E+01  0.98330788637E+03  0.11860580641E+04  0.00000000000E+00 0.  1.
          3    1    6    6  502    0 -0.34680995331E+01  0.14332847729E+02  0.20431559142E+02  0.25197357944E+02  0.00000000000E+00 0. -1.
          3    1    5    5  503    0  0.25415936260E+03 -0.15504299246E+02 -0.25911244847E+03  0.36328587344E+03  0.00000000000E+00 0. -1.
         -3    1    5    5    0  503  0.22426598998E+03  0.84327004061E+01 -0.36471006025E+03  0.42822864541E+03  0.00000000000E+00 0.  1.
         -3    1    6    6    0  502  0.22815190909E+03  0.68869616348E+01  0.32378212043E+03  0.39615096286E+03  0.00000000000E+00 0.  1.
<mgrwt>
<rscale>  0 0.23815295E+04</rscale>
<asrwt>0</asrwt>
<pdfrwt beam="1">  1        3 0.13096310E+00 0.23815295E+04</pdfrwt>
<pdfrwt beam="2">  1       -3 0.25625730E+00 0.23815295E+04</pdfrwt>
<totfact> 0.72115497E-02</totfact>
</mgrwt>
</event>
<event>
12    1  0.4672461E-008  0.1503825E+04  0.7818608E-02  0.8881913E-01
          1   -1    0    0  501    0  0.00000000000E+00  0.00000000000E+00  0.21369317281E+04  0.21369317281E+04  0.00000000000E+00 0. -1.
         -1   -1    0    0    0  501 -0.00000000000E+00 -0.00000000000E+00 -0.26457212522E+03  0.26457212522E+03  0.00000000000E+00 0.  1.
         23    2    1    2    0    0  0.22925011382E+03 -0.35849029721E+03  0.97588910368E+03  0.10685472952E+04  0.91448737580E+02 0.  0.
        254    2    1    2    0    0 -0.22925011382E+03  0.35849029721E+03  0.89647049922E+03  0.13329565581E+04  0.88996793308E+03 0.  0.
         23    2    4    4    0    0 -0.34039200981E+03  0.56796744102E+03  0.83677772226E+03  0.10710995699E+04  0.92755580299E+02 0.  0.
         23    2    4    4    0    0  0.11114189599E+03 -0.20947714381E+03  0.59692776960E+02  0.26185698824E+03  0.93662478324E+02 0.  0.
         11    1    3    3    0    0  0.21400309729E+03 -0.35396598491E+03  0.96300867858E+03  0.10480815613E+04  0.00000000000E+00 0. -1.
        -11    1    3    3    0    0  0.15247016533E+02 -0.45243122964E+01  0.12880425106E+02  0.20465733943E+02  0.00000000000E+00 0.  1.
          1    1    5    5  502    0 -0.86165853938E+02  0.21692855148E+03  0.25628912858E+03  0.34665064295E+03  0.00000000000E+00 0. -1.
          1    1    6    6  503    0 -0.15685066994E+02 -0.42269294272E+02  0.96177915435E+01  0.46100070272E+02  0.00000000000E+00 0. -1.
         -1    1    5    5    0  502 -0.25422615587E+03  0.35103888954E+03  0.58048859368E+03  0.72444892690E+03  0.00000000000E+00 0.  1.
         -1    1    6    6    0  503  0.12682696298E+03 -0.16720784954E+03  0.50074985416E+02  0.21575691797E+03  0.00000000000E+00 0.  1.
<mgrwt>
<rscale>  0 0.15038252E+04</rscale>
<asrwt>0</asrwt>
<pdfrwt beam="1">  1        1 0.32875872E+00 0.15038252E+04</pdfrwt>
<pdfrwt beam="2">  1       -1 0.40703405E-01 0.15038252E+04</pdfrwt>
<totfact> 0.13734895E+01</totfact>
</mgrwt>
</event>
<event>
12    1  0.4672461E-008  0.3022201E+04  0.7818608E-02  0.8237420E-01
          1   -1    0    0  501    0  0.00000000000E+00  0.00000000000E+00  0.26669914242E+04  0.26669914242E+04  0.00000000000E+00 0. -1.
         -1   -1    0    0    0  501 -0.00000000000E+00 -0.00000000000E+00 -0.85617980262E+03  0.85617980262E+03  0.00000000000E+00 0.  1.
         23    2    1    2    0    0  0.74425586174E+03 -0.38747085391E+03  0.20907529320E+04  0.22547051159E+04  0.91634527573E+02 0.  0.
        254    2    1    2    0    0 -0.74425586174E+03  0.38747085391E+03 -0.27994131037E+03  0.12684661110E+04  0.90916922905E+03 0.  0.
         23    2    4    4    0    0  0.47202260057E+02  0.90878190159E+02  0.23741295858E+03  0.27327232525E+03  0.88464411186E+02 0.  0.
         23    2    4    4    0    0 -0.79145812180E+03  0.29659266375E+03 -0.51735426895E+03  0.99519378571E+03  0.91553616922E+02 0.  0.
         13    1    3    3    0    0  0.71444791970E+03 -0.36796632870E+03  0.20409800222E+04  0.21934982335E+04  0.00000000000E+00 0. -1.
        -13    1    3    3    0    0  0.29807942036E+02 -0.19504525206E+02  0.49772909774E+02  0.61206882450E+02  0.00000000000E+00 0.  1.
          4    1    5    5  502    0  0.53735560995E+02  0.36086838046E+02  0.62949482414E+02  0.90290684634E+02  0.00000000000E+00 0. -1.
          1    1    6    6  503    0 -0.47781460983E+03  0.14705139882E+03 -0.26557440173E+03  0.56609246428E+03  0.00000000000E+00 0. -1.
         -4    1    5    5    0  502 -0.65333009376E+01  0.54791352113E+02  0.17446347616E+03  0.18298164062E+03  0.00000000000E+00 0.  1.
         -1    1    6    6    0  503 -0.31364351196E+03  0.14954126493E+03 -0.25177986722E+03  0.42910132143E+03  0.00000000000E+00 0.  1.
<mgrwt>
<rscale>  0 0.30222006E+04</rscale>
<asrwt>0</asrwt>
<pdfrwt beam="1">  1        1 0.41030637E+00 0.30222006E+04</pdfrwt>
<pdfrwt beam="2">  1       -1 0.13171997E+00 0.30222006E+04</pdfrwt>
<totfact> 0.43119984E-01</totfact>
</mgrwt>
</event>
<event>
12    1  0.4672461E-008  0.3031632E+04  0.7818608E-02  0.8234755E-01
          1   -1    0    0  501    0  0.00000000000E+00  0.00000000000E+00  0.26074362272E+04  0.26074362272E+04  0.00000000000E+00 0. -1.
         -1   -1    0    0    0  501 -0.00000000000E+00 -0.00000000000E+00 -0.88121000550E+03  0.88121000550E+03  0.00000000000E+00 0.  1.
         23    2    1    2    0    0 -0.19648130095E+03  0.55705691521E+03 -0.65033483115E+03  0.88287627218E+03  0.87280071911E+02 0.  0.
        254    2    1    2    0    0  0.19648130095E+03 -0.55705691521E+03  0.23765610528E+04  0.26057699605E+04  0.89054889861E+03 0.  0.
         23    2    4    4    0    0 -0.90675740464E+02 -0.21781022724E+03  0.20024965439E+04  0.20183954141E+04  0.90907944184E+02 0.  0.
         23    2    4    4    0    0  0.28715704142E+03 -0.33924668797E+03  0.37406450890E+03  0.58737454637E+03  0.86816583538E+02 0.  0.
         13    1    3    3    0    0 -0.10351979064E+03  0.34192192017E+03 -0.33299730794E+03  0.48837910853E+03  0.00000000000E+00 0.  1.
        -13    1    3    3    0    0 -0.92961510316E+02  0.21513499504E+03 -0.31733752321E+03  0.39449716365E+03  0.00000000000E+00 0. -1.
          1    1    5    5  502    0 -0.75598203591E+02 -0.20596722531E+03  0.15453801558E+04  0.15608771291E+04  0.00000000000E+00 0. -1.
          3    1    6    6  503    0  0.67684251128E+01  0.20523919544E+01  0.20204189530E+02  0.21406381428E+02  0.00000000000E+00 0. -1.
         -1    1    5    5    0  502 -0.15077536873E+02 -0.11843001934E+02  0.45711638816E+03  0.45751828503E+03  0.00000000000E+00 0.  1.
         -3    1    6    6    0  503  0.28038861630E+03 -0.34129907992E+03  0.35386031937E+03  0.56596816495E+03  0.00000000000E+00 0.  1.
<mgrwt>
<rscale>  0 0.30316325E+04</rscale>
<asrwt>0</asrwt>
<pdfrwt beam="1">  1        1 0.40114403E+00 0.30316325E+04</pdfrwt>
<pdfrwt beam="2">  1       -1 0.13557077E+00 0.30316325E+04</pdfrwt>
<totfact> 0.44073299E-01</totfact>
</mgrwt>
</event>
<event>
12    1  0.4672461E-008  0.1432049E+04  0.7818608E-02  0.8930941E-01
          2   -1    0    0  501    0  0.00000000000E+00  0.00000000000E+00  0.11956631620E+04  0.11956631620E+04  0.00000000000E+00 0. -1.
         -2   -1    0    0    0  501 -0.00000000000E+00 -0.00000000000E+00 -0.42879227701E+03  0.42879227701E+03  0.00000000000E+00 0.  1.
         23    2    1    2    0    0 -0.26292297190E+02  0.33109649004E+03  0.54268474249E+03  0.64306227774E+03  0.93306981013E+02 0.  0.
        254    2    1    2    0    0  0.26292297190E+02 -0.33109649004E+03  0.22418614249E+03  0.98139316126E+03  0.89585542354E+03 0.  0.
         23    2    4    4    0    0  0.73337613675E+01 -0.17658384126E+03 -0.33751108325E+03  0.39179861285E+03  0.91415450893E+02 0.  0.
         23    2    4    4    0    0  0.18958535823E+02 -0.15451264878E+03  0.56169722574E+03  0.58959454841E+03  0.88793994148E+02 0.  0.
         13    1    3    3    0    0 -0.33077830583E+02  0.32047514474E+03  0.47333845409E+03  0.57257991005E+03  0.00000000000E+00 0. -1.
        -13    1    3    3    0    0  0.67855333921E+01  0.10621345295E+02  0.69346288401E+02  0.70482367684E+02  0.00000000000E+00 0.  1.
          2    1    5    5  502    0 -0.41051682646E+02 -0.59807994464E+02 -0.11959417894E+03  0.13987496018E+03  0.00000000000E+00 0.  1.
          4    1    6    6  503    0  0.13287383735E+02 -0.14316639288E+03  0.36220436263E+03  0.38969882079E+03  0.00000000000E+00 0. -1.
         -2    1    5    5    0  502  0.48385444013E+02 -0.11677584680E+03 -0.21791690432E+03  0.25192365267E+03  0.00000000000E+00 0. -1.
         -4    1    6    6    0  503  0.56711520875E+01 -0.11346255900E+02  0.19949286311E+03  0.19989572762E+03  0.00000000000E+00 0.  1.
<mgrwt>
<rscale>  0 0.14320491E+04</rscale>
<asrwt>0</asrwt>
<pdfrwt beam="1">  1        2 0.18394818E+00 0.14320491E+04</pdfrwt>
<pdfrwt beam="2">  1       -2 0.65968043E-01 0.14320491E+04</pdfrwt>
<totfact> 0.39129763E+01</totfact>
</mgrwt>
</event>
<event>
12    1  0.4672461E-008  0.1685143E+04  0.7818608E-02  0.8769884E-01
          1   -1    0    0  501    0  0.00000000000E+00  0.00000000000E+00  0.41606280745E+04  0.41606280745E+04  0.00000000000E+00 0. -1.
         -1   -1    0    0    0  501 -0.00000000000E+00 -0.00000000000E+00 -0.17062968506E+03  0.17062968506E+03  0.00000000000E+00 0.  1.
         23    2    1    2    0    0 -0.56875714796E+03 -0.12214859040E+03  0.13930095519E+04  0.15123657811E+04  0.91485915765E+02 0.  0.
        254    2    1    2    0    0  0.56875714796E+03  0.12214859040E+03  0.25969888376E+04  0.28188919785E+04  0.92919104185E+03 0.  0.
         23    2    4    4    0    0  0.77566246852E+03  0.25192112715E+03  0.21458240145E+04  0.22973644357E+04  0.90587692441E+02 0.  0.
         23    2    4    4    0    0 -0.20690532056E+03 -0.12977253675E+03  0.45116482312E+03  0.52152754277E+03  0.93757971770E+02 0.  0.
         13    1    3    3    0    0 -0.37792262836E+03 -0.89374981705E+02  0.81518328612E+03  0.90296023741E+03  0.00000000000E+00 0. -1.
        -13    1    3    3    0    0 -0.19083451960E+03 -0.32773608694E+02  0.57782626578E+03  0.60940554372E+03  0.00000000000E+00 0.  1.
          2    1    5    5  502    0  0.66219168390E+03  0.19233795309E+03  0.18740592031E+04  0.19968949925E+04  0.00000000000E+00 0.  1.
          1    1    6    6  503    0  0.24509832066E+01  0.64952382898E+01  0.14479250706E+01  0.70916800640E+01  0.00000000000E+00 0. -1.
         -2    1    5    5    0  502  0.11347078462E+03  0.59583174062E+02  0.27176481137E+03  0.30046944319E+03  0.00000000000E+00 0. -1.
         -1    1    6    6    0  503 -0.20935630377E+03 -0.13626777504E+03  0.44971689805E+03  0.51443586270E+03  0.00000000000E+00 0.  1.
<mgrwt>
<rscale>  0 0.16851429E+04</rscale>
<asrwt>0</asrwt>
<pdfrwt beam="1">  1        1 0.64009655E+00 0.16851429E+04</pdfrwt>
<pdfrwt beam="2">  1       -1 0.26250724E-01 0.16851429E+04</pdfrwt>
<totfact> 0.85802722E-01</totfact>
</mgrwt>
</event>
<event>
12    1  0.4672461E-008  0.9922135E+03  0.7818608E-02  0.9317126E-01
         -2   -1    0    0    0  501 -0.00000000000E+00  0.00000000000E+00  0.10436527531E+03  0.10436527531E+03  0.00000000000E+00 0.  1.
          2   -1    0    0  501    0  0.00000000000E+00 -0.00000000000E+00 -0.23582739398E+04  0.23582739398E+04  0.00000000000E+00 0. -1.
         23    2    1    2    0    0  0.52813566831E+02  0.38794832044E+02 -0.27766437506E+03  0.29962146122E+03  0.91548910491E+02 0.  0.
        254    2    1    2    0    0 -0.52813566831E+02 -0.38794832044E+02 -0.19762442894E+04  0.21630177539E+04  0.87681811127E+03 0.  0.
         23    2    4    4    0    0 -0.40332408157E+03 -0.18334730408E+02 -0.15439646918E+04  0.15984907294E+04  0.91319031907E+02 0.  0.
         23    2    4    4    0    0  0.35051051474E+03 -0.20460101636E+02 -0.43227959766E+03  0.56452702443E+03  0.92460121421E+02 0.  0.
         13    1    3    3    0    0  0.52793259627E+02  0.63280664223E+02 -0.16633403440E+03  0.18563022849E+03  0.00000000000E+00 0.  1.
        -13    1    3    3    0    0  0.20307204182E-01 -0.24485832180E+02 -0.11133034065E+03  0.11399123273E+03  0.00000000000E+00 0. -1.
          1    1    6    6  502    0  0.25287513576E+03 -0.16677930766E+01 -0.36662335488E+03  0.44537770505E+03  0.00000000000E+00 0. -1.
          1    1    5    5  503    0 -0.38359350517E+03 -0.23529699342E+02 -0.13555955717E+04  0.14090198643E+04  0.00000000000E+00 0. -1.
         -1    1    5    5    0  503 -0.19730576405E+02  0.51949689344E+01 -0.18836912007E+03  0.18947086516E+03  0.00000000000E+00 0.  1.
         -1    1    6    6    0  502  0.97635378988E+02 -0.18792308559E+02 -0.65656242778E+02  0.11914931937E+03  0.00000000000E+00 0.  1.
<mgrwt>
<rscale>  0 0.99221350E+03</rscale>
<asrwt>0</asrwt>
<pdfrwt beam="1">  1        2 0.36281135E+00 0.99221350E+03</pdfrwt>
<pdfrwt beam="2">  1       -2 0.16056197E-01 0.99221350E+03</pdfrwt>
<totfact> 0.13249930E+02</totfact>
</mgrwt>
</event>
<event>
12    1  0.4672461E-008  0.1209737E+04  0.7818608E-02  0.9104376E-01
          1   -1    0    0  501    0  0.00000000000E+00  0.00000000000E+00  0.39990802118E+03  0.39990802118E+03  0.00000000000E+00 0. -1.
         -1   -1    0    0    0  501 -0.00000000000E+00 -0.00000000000E+00 -0.91487524123E+03  0.91487524123E+03  0.00000000000E+00 0.  1.
         23    2    1    2    0    0  0.57815689921E+02  0.71333645909E+02 -0.37374508713E+03  0.39507299142E+03  0.89253209222E+02 0.  0.
        254    2    1    2    0    0 -0.57815689921E+02 -0.71333645909E+02 -0.14122213292E+03  0.91971027099E+03  0.90415272421E+03 0.  0.
         23    2    4    4    0    0  0.60738222349E+02  0.22041162670E+03 -0.42176002188E+03  0.48823357262E+03  0.90664703911E+02 0.  0.
         23    2    4    4    0    0 -0.11855391227E+03 -0.29174527261E+03  0.28053788896E+03  0.43147669837E+03  0.91105981599E+02 0.  0.
         13    1    3    3    0    0 -0.31286963356E+01  0.62158596014E+02 -0.13764943945E+03  0.15106570749E+03  0.00000000000E+00 0. -1.
        -13    1    3    3    0    0  0.60944386257E+02  0.91750498951E+01 -0.23609564768E+03  0.24400728393E+03  0.00000000000E+00 0.  1.
          1    1    6    6  502    0 -0.13361960675E+03 -0.27128704713E+03  0.25976292713E+03  0.39865729588E+03  0.00000000000E+00 0. -1.
          1    1    5    5  503    0  0.74589913382E+02  0.21859391706E+03 -0.38578296722E+03  0.44963924823E+03  0.00000000000E+00 0. -1.
         -1    1    5    5    0  503 -0.13851691033E+02  0.18177096450E+01 -0.35977054666E+02  0.38594324392E+02  0.00000000000E+00 0.  1.
         -1    1    6    6    0  502  0.15065694485E+02 -0.20458225485E+02  0.20774961831E+02  0.32819402484E+02  0.00000000000E+00 0.  1.
<mgrwt>
<rscale>  0 0.12097371E+04</rscale>
<asrwt>0</asrwt>
<pdfrwt beam="1">  1        1 0.61524311E-01 0.12097371E+04</pdfrwt>
<pdfrwt beam="2">  1       -1 0.14075004E+00 0.12097371E+04</pdfrwt>
<totfact> 0.24537726E+01</totfact>
</mgrwt>
</event>
<event>
12    1  0.4672461E-008  0.1581921E+04  0.7818608E-02  0.8831732E-01
          2   -1    0    0  501    0  0.00000000000E+00  0.00000000000E+00  0.28630532560E+03  0.28630532560E+03  0.00000000000E+00 0. -1.
         -2   -1    0    0    0  501 -0.00000000000E+00 -0.00000000000E+00 -0.21851452167E+04  0.21851452167E+04  0.00000000000E+00 0.  1.
         23    2    1    2    0    0 -0.66528169059E+02 -0.75649825958E+01 -0.14854000909E+04  0.14897978416E+04  0.92741321031E+02 0.  0.
        254    2    1    2    0    0  0.66528169059E+02  0.75649825958E+01 -0.41343980024E+03  0.98165270072E+03  0.88782111384E+03 0.  0.
         23    2    4    4    0    0  0.13421289719E+03  0.41034832323E+03 -0.84265084005E+02  0.44940555151E+03  0.92010310290E+02 0.  0.
         23    2    4    4    0    0 -0.67684728133E+02 -0.40278334063E+03 -0.32917471623E+03  0.53224714921E+03  0.90085471216E+02 0.  0.
         13    1    3    3    0    0 -0.71411082838E+00  0.61130860201E+01 -0.51579994396E+01  0.80302386754E+01  0.00000000000E+00 0. -1.
        -13    1    3    3    0    0 -0.65814058231E+02 -0.13678068616E+02 -0.14802420914E+04  0.14817676029E+04  0.00000000000E+00 0.  1.
          2    1    5    5  502    0  0.22987267494E+02  0.16483033741E+03 -0.66708963822E+02  0.17929735205E+03  0.00000000000E+00 0. -1.
          3    1    6    6  503    0 -0.13277650804E+02 -0.25875775036E+03 -0.16499596420E+03  0.30717346498E+03  0.00000000000E+00 0. -1.
         -2    1    5    5    0  502  0.11122562970E+03  0.24551798581E+03 -0.17556120184E+02  0.27010819946E+03  0.00000000000E+00 0.  1.
         -3    1    6    6    0  503 -0.54407077329E+02 -0.14402559027E+03 -0.16417875203E+03  0.22507368423E+03  0.00000000000E+00 0.  1.
<mgrwt>
<rscale>  0 0.15819213E+04</rscale>
<asrwt>0</asrwt>
<pdfrwt beam="1">  1        2 0.44046974E-01 0.15819213E+04</pdfrwt>
<pdfrwt beam="2">  1       -2 0.33617618E+00 0.15819213E+04</pdfrwt>
<totfact> 0.21211999E+00</totfact>
</mgrwt>
</event>
<event>
12    1  0.4672461E-008  0.1263000E+04  0.7818608E-02  0.9059432E-01
         -1   -1    0    0    0  501 -0.00000000000E+00  0.00000000000E+00  0.47225780154E+03  0.47225780154E+03  0.00000000000E+00 0.  1.
          1   -1    0    0  501    0  0.00000000000E+00 -0.00000000000E+00 -0.84443795522E+03  0.84443795522E+03  0.00000000000E+00 0. -1.
         23    2    1    2    0    0  0.23922694673E+03 -0.96824736612E+02 -0.19240002621E+03  0.33428129163E+03  0.90120198538E+02 0.  0.
        254    2    1    2    0    0 -0.23922694673E+03  0.96824736612E+02 -0.17978012747E+03  0.98241446513E+03  0.93070549875E+03 0.  0.
         23    2    4    4    0    0 -0.35648533135E+03 -0.32224878267E+03  0.30347392257E+02  0.49033195132E+03  0.92619592240E+02 0.  0.
         23    2    4    4    0    0  0.11725838462E+03  0.41907351928E+03 -0.21012751973E+03  0.49208251382E+03  0.92841168296E+02 0.  0.
         13    1    3    3    0    0  0.11607725960E+03 -0.13303470164E+02 -0.46090895358E+02  0.12559969407E+03  0.00000000000E+00 0.  1.
        -13    1    3    3    0    0  0.12314968713E+03 -0.83521266448E+02 -0.14630913086E+03  0.20868159756E+03  0.00000000000E+00 0. -1.
          3    1    5    5  502    0 -0.95310359418E+02 -0.43780175316E+02  0.27942490968E+02  0.10854285405E+03  0.00000000000E+00 0. -1.
          3    1    6    6  503    0  0.10530740057E+03  0.33650079250E+03 -0.20640781966E+03  0.40856654291E+03  0.00000000000E+00 0. -1.
         -3    1    5    5    0  502 -0.26117497193E+03 -0.27846860735E+03  0.24049012894E+01  0.38178909727E+03  0.00000000000E+00 0.  1.
         -3    1    6    6    0  503  0.11950984049E+02  0.82572726780E+02 -0.37197000655E+01  0.83515970905E+02  0.00000000000E+00 0.  1.
<mgrwt>
<rscale>  0 0.12630003E+04</rscale>
<asrwt>0</asrwt>
<pdfrwt beam="1">  1        1 0.12991353E+00 0.12630003E+04</pdfrwt>
<pdfrwt beam="2">  1       -1 0.72655047E-01 0.12630003E+04</pdfrwt>
<totfact> 0.38118203E+01</totfact>
</mgrwt>
</event>
<event>
12    1  0.4672461E-008  0.1725623E+04  0.7818608E-02  0.8746884E-01
          1   -1    0    0  501    0  0.00000000000E+00  0.00000000000E+00  0.95424432203E+03  0.95424432203E+03  0.00000000000E+00 0. -1.
         -1   -1    0    0    0  501 -0.00000000000E+00 -0.00000000000E+00 -0.78013987717E+03  0.78013987717E+03  0.00000000000E+00 0.  1.
         23    2    1    2    0    0  0.24903832391E+03 -0.36302730833E+03 -0.38205702776E+03  0.59013753267E+03  0.92118519500E+02 0.  0.
        254    2    1    2    0    0 -0.24903832391E+03  0.36302730833E+03  0.55616147262E+03  0.11442466665E+04  0.89787300709E+03 0.  0.
         23    2    4    4    0    0  0.15447037857E+03 -0.18887690897E+03  0.50004801462E+01  0.26149032082E+03  0.93896743734E+02 0.  0.
         23    2    4    4    0    0 -0.40350870248E+03  0.55190421730E+03  0.55116099247E+03  0.88275634570E+03  0.89793029819E+02 0.  0.
         13    1    3    3    0    0  0.40601507459E+02 -0.13351958958E+03 -0.12645838254E+03  0.18832866410E+03  0.00000000000E+00 0. -1.
        -13    1    3    3    0    0  0.20843681645E+03 -0.22950771875E+03 -0.25559864522E+03  0.40180886857E+03  0.00000000000E+00 0.  1.
          4    1    5    5  502    0  0.48320793497E+02 -0.68295743113E+02  0.46301062798E+02  0.95619014991E+02  0.00000000000E+00 0. -1.
          1    1    6    6  503    0 -0.30180169693E+03  0.46638624973E+03  0.42406702496E+03  0.69887998961E+03  0.00000000000E+00 0. -1.
         -4    1    5    5    0  502  0.10614958507E+03 -0.12058116586E+03 -0.41300582652E+02  0.16587130583E+03  0.00000000000E+00 0.  1.
         -1    1    6    6    0  503 -0.10170700555E+03  0.85517967572E+02  0.12709396751E+03  0.18387635610E+03  0.00000000000E+00 0.  1.
<mgrwt>
<rscale>  0 0.17256234E+04</rscale>
<asrwt>0</asrwt>
<pdfrwt beam="1">  1        1 0.14680682E+00 0.17256234E+04</pdfrwt>
<pdfrwt beam="2">  1       -1 0.12002152E+00 0.17256234E+04</pdfrwt>
<totfact> 0.96654353E+00</totfact>
</mgrwt>
</event>
<event>
12    1  0.4672461E-008  0.1527576E+04  0.7818608E-02  0.8866319E-01
         -1   -1    0    0    0  501 -0.00000000000E+00  0.00000000000E+00  0.32432317453E+03  0.32432317453E+03  0.00000000000E+00 0.  1.
          1   -1    0    0  501    0  0.00000000000E+00 -0.00000000000E+00 -0.17987377145E+04  0.17987377145E+04  0.00000000000E+00 0. -1.
         23    2    1    2    0    0 -0.49690938729E+02 -0.43792703378E+03 -0.79180543085E+03  0.91124805667E+03  0.95749173146E+02 0.  0.
        254    2    1    2    0    0  0.49690938729E+02  0.43792703378E+03 -0.68260910917E+03  0.12118128324E+04  0.89904720040E+03 0.  0.
         23    2    4    4    0    0 -0.41095581601E+03  0.17878836770E+03 -0.24053761928E+03  0.51672517608E+03  0.91085663923E+02 0.  0.
         23    2    4    4    0    0  0.46064675474E+03  0.25913866608E+03 -0.44207148989E+03  0.69508765632E+03  0.91495174078E+02 0.  0.
         11    1    3    3    0    0 -0.71232572550E+02 -0.40404044333E+03 -0.70702406402E+03  0.81743855203E+03  0.00000000000E+00 0. -1.
        -11    1    3    3    0    0  0.21541633821E+02 -0.33886590451E+02 -0.84781366831E+02  0.93809504645E+02  0.00000000000E+00 0.  1.
          4    1    5    5  502    0 -0.22150507661E+02 -0.45935034374E+01 -0.31318383405E+02  0.38634005779E+02  0.00000000000E+00 0. -1.
          3    1    6    6  503    0  0.23392068229E+03  0.17444578688E+03 -0.20766950370E+03  0.35815756439E+03  0.00000000000E+00 0. -1.
         -4    1    5    5    0  502 -0.38880530835E+03  0.18338187114E+03 -0.20921923587E+03  0.47809117030E+03  0.00000000000E+00 0.  1.
         -3    1    6    6    0  503  0.22672607245E+03  0.84692879205E+02 -0.23440198619E+03  0.33693009193E+03  0.00000000000E+00 0.  1.
<mgrwt>
<rscale>  0 0.15275763E+04</rscale>
<asrwt>0</asrwt>
<pdfrwt beam="1">  1        1 0.27672888E+00 0.15275763E+04</pdfrwt>
<pdfrwt beam="2">  1       -1 0.49895873E-01 0.15275763E+04</pdfrwt>
<totfact> 0.15880269E+01</totfact>
</mgrwt>
</event>
<event>
12    1  0.4672461E-008  0.2165539E+04  0.7818608E-02  0.8532910E-01
         -2   -1    0    0    0  501 -0.00000000000E+00  0.00000000000E+00  0.49036658500E+03  0.49036658500E+03  0.00000000000E+00 0.  1.
          2   -1    0    0  501    0  0.00000000000E+00 -0.00000000000E+00 -0.23908427585E+04  0.23908427585E+04  0.00000000000E+00 0. -1.
         23    2    1    2    0    0  0.88735441290E+03  0.10251855655E+03 -0.75578203272E+03  0.11744091270E+04  0.10061017867E+03 0.  0.
        254    2    1    2    0    0 -0.88735441290E+03 -0.10251855655E+03 -0.11446941408E+04  0.17068002165E+04  0.89718136106E+03 0.  0.
         23    2    4    4    0    0 -0.10258950164E+04 -0.86275127570E+02 -0.11374811316E+04  0.15369403126E+04  0.91750843639E+02 0.  0.
         23    2    4    4    0    0  0.13854060353E+03 -0.16243428977E+02 -0.72130092408E+01  0.16985990398E+03  0.96659255453E+02 0.  0.
         13    1    3    3    0    0  0.60177425908E+03  0.86805341033E+02 -0.56962450003E+03  0.83315034487E+03  0.00000000000E+00 0. -1.
        -13    1    3    3    0    0  0.28558015383E+03  0.15713215514E+02 -0.18615753269E+03  0.34125878213E+03  0.00000000000E+00 0.  1.
          3    1    5    5  502    0 -0.49226062497E+03 -0.21102009603E+02 -0.48296262746E+03  0.68994109693E+03  0.00000000000E+00 0. -1.
          3    1    6    6  503    0  0.10616163772E+03 -0.39496861408E+02 -0.38017852812E+02  0.11948076212E+03  0.00000000000E+00 0. -1.
         -3    1    5    5    0  502 -0.53363439146E+03 -0.65173117967E+02 -0.65451850411E+03  0.84699921563E+03  0.00000000000E+00 0.  1.
         -3    1    6    6    0  503  0.32378965818E+02  0.23253432431E+02  0.30804843571E+02  0.50379141861E+02  0.00000000000E+00 0.  1.
<mgrwt>
<rscale>  0 0.21655386E+04</rscale>
<asrwt>0</asrwt>
<pdfrwt beam="1">  1        2 0.36782196E+00 0.21655386E+04</pdfrwt>
<pdfrwt beam="2">  1       -2 0.75441013E-01 0.21655386E+04</pdfrwt>
<totfact> 0.58135775E+00</totfact>
</mgrwt>
</event>
<event>
12    1  0.4672461E-008  0.1294123E+04  0.7818608E-02  0.9034239E-01
         -1   -1    0    0    0  501 -0.00000000000E+00  0.00000000000E+00  0.82676363984E+03  0.82676363984E+03  0.00000000000E+00 0.  1.
          1   -1    0    0  501    0  0.00000000000E+00 -0.00000000000E+00 -0.50641865750E+03  0.50641865750E+03  0.00000000000E+00 0. -1.
         23    2    1    2    0    0 -0.44871392570E+02  0.15841795580E+03  0.36995011614E+03  0.41458172475E+03  0.88911346131E+02 0.  0.
        254    2    1    2    0    0  0.44871392570E+02 -0.15841795580E+03 -0.49605133804E+02  0.91860057259E+03  0.90236170801E+03 0.  0.
         23    2    4    4    0    0 -0.21133531934E+03  0.30054090315E+03  0.28566805731E+02  0.37951742778E+03  0.90719148645E+02 0.  0.
         23    2    4    4    0    0  0.25620671191E+03 -0.45895885894E+03 -0.78171939535E+02  0.53908314481E+03  0.90634824767E+02 0.  0.
         11    1    3    3    0    0  0.83582453503E+01  0.67771194109E+01 -0.50068293379E+00  0.10772200158E+02  0.00000000000E+00 0. -1.
        -11    1    3    3    0    0 -0.53229637920E+02  0.15164083639E+03  0.37045079907E+03  0.40380952459E+03  0.00000000000E+00 0.  1.
          4    1    5    5  502    0 -0.14187341635E+03  0.24559972706E+03 -0.78943165022E+01  0.28374215836E+03  0.00000000000E+00 0.  1.
          1    1    6    6  503    0  0.96214634912E+02 -0.15077663412E+03 -0.69050957519E+02  0.19172606527E+03  0.00000000000E+00 0. -1.
         -4    1    5    5    0  502 -0.69461902992E+02  0.54941176088E+02  0.36461122233E+02  0.95775269416E+02  0.00000000000E+00 0. -1.
         -1    1    6    6    0  503  0.15999207700E+03 -0.30818222482E+03 -0.91209820159E+01  0.34735707955E+03  0.00000000000E+00 0.  1.
<mgrwt>
<rscale>  0 0.12941229E+04</rscale>
<asrwt>0</asrwt>
<pdfrwt beam="1">  1        1 0.77910563E-01 0.12941229E+04</pdfrwt>
<pdfrwt beam="2">  1       -1 0.12719441E+00 0.12941229E+04</pdfrwt>
<totfact> 0.22941405E+01</totfact>
</mgrwt>
</event>
<event>
12    1  0.4672461E-008  0.1572164E+04  0.7818608E-02  0.8837834E-01
          2   -1    0    0  501    0  0.00000000000E+00  0.00000000000E+00  0.19469197960E+04  0.19469197960E+04  0.00000000000E+00 0. -1.
         -2   -1    0    0    0  501 -0.00000000000E+00 -0.00000000000E+00 -0.31738589558E+03  0.31738589558E+03  0.00000000000E+00 0.  1.
         23    2    1    2    0    0  0.21275167735E+03 -0.31837185869E+03  0.39690961331E+02  0.39495833648E+03  0.88276828907E+02 0.  0.
        254    2    1    2    0    0 -0.21275167735E+03  0.31837185869E+03  0.15898429391E+04  0.18693473551E+04  0.90566828720E+03 0.  0.
         23    2    4    4    0    0 -0.38155894820E+03  0.50976863493E+03  0.75384208587E+03  0.99087294483E+03  0.90000057002E+02 0.  0.
         23    2    4    4    0    0  0.16880727085E+03 -0.19139677624E+03  0.83600085323E+03  0.87847441028E+03  0.87699727874E+02 0.  0.
         11    1    3    3    0    0  0.19148025969E+03 -0.31203858103E+03  0.51677489099E+02  0.36973413257E+03  0.00000000000E+00 0.  1.
        -11    1    3    3    0    0  0.21271417657E+02 -0.63332776553E+01 -0.11986527768E+02  0.25224203911E+02  0.00000000000E+00 0. -1.
          2    1    6    6  502    0  0.94327866684E+02 -0.64811021835E+02  0.26057558215E+03  0.28460121046E+03  0.00000000000E+00 0.  1.
          2    1    5    5  503    0 -0.41419754688E+02  0.10371963167E+03  0.15997925600E+03  0.19510694612E+03  0.00000000000E+00 0. -1.
         -2    1    5    5    0  503 -0.34013919351E+03  0.40604900325E+03  0.59386282988E+03  0.79576599872E+03  0.00000000000E+00 0.  1.
         -2    1    6    6    0  502  0.74479404170E+02 -0.12658575440E+03  0.57542527109E+03  0.59387319982E+03  0.00000000000E+00 0. -1.
<mgrwt>
<rscale>  0 0.15721640E+04</rscale>
<asrwt>0</asrwt>
<pdfrwt beam="1">  1        2 0.29952611E+00 0.15721640E+04</pdfrwt>
<pdfrwt beam="2">  1       -2 0.48828601E-01 0.15721640E+04</pdfrwt>
<totfact> 0.27297227E+01</totfact>
</mgrwt>
</event>
<event>
12    1  0.4827863E-008  0.1423972E+04  0.7818608E-02  0.8936647E-01
         -1   -1    0    0    0  501 -0.00000000000E+00  0.00000000000E+00  0.15012928395E+04  0.15012928395E+04  0.00000000000E+00 0.  1.
          1   -1    0    0  501    0  0.00000000000E+00 -0.00000000000E+00 -0.33765829499E+03  0.33765829499E+03  0.00000000000E+00 0. -1.
         23    2    1    2    0    0  0.50741611211E+02  0.42945063102E+02 -0.18043618857E+03  0.21287730529E+03  0.91326553685E+02 0.  0.
        254    2    1    2    0    0 -0.50741611211E+02 -0.42945063102E+02  0.13440707331E+04  0.16260738292E+04  0.91278199640E+03 0.  0.
         23    2    4    4    0    0 -0.24114206681E+03 -0.33196358097E+02 -0.55469435038E+01  0.26025876678E+03  0.91936731102E+02 0.  0.
         23    2    4    4    0    0  0.19040045560E+03 -0.97487050045E+01  0.13496176766E+04  0.13658150624E+04  0.87381583107E+02 0.  0.
         11    1    3    3    0    0 -0.29124705912E+00  0.31288238780E+02 -0.14805291394E+03  0.15132317747E+03  0.00000000000E+00 0. -1.
        -11    1    3    3    0    0  0.51032858270E+02  0.11656824322E+02 -0.32383274624E+02  0.61554127821E+02  0.00000000000E+00 0.  1.
          3    1    5    5  502    0 -0.16858301108E+03  0.20507796852E+02 -0.14716133388E+00  0.16982586084E+03  0.00000000000E+00 0. -1.
          3    1    6    6  503    0  0.16694573296E+03 -0.19307583130E+02  0.12918934733E+04  0.13027787252E+04  0.00000000000E+00 0. -1.
         -3    1    5    5    0  502 -0.72559055733E+02 -0.53704154949E+02 -0.53997821699E+01  0.90432905931E+02  0.00000000000E+00 0.  1.
         -3    1    6    6    0  503  0.23454722633E+02  0.95588781250E+01  0.57724203339E+02  0.63036337267E+02  0.00000000000E+00 0.  1.
<mgrwt>
<rscale>  0 0.14239719E+04</rscale>
<asrwt>0</asrwt>
<pdfrwt beam="1">  1        1 0.51947431E-01 0.14239719E+04</pdfrwt>
<pdfrwt beam="2">  1       -1 0.23096813E+00 0.14239719E+04</pdfrwt>
<totfact> 0.67990290E+00</totfact>
</mgrwt>
</event>
<event>
12    1  0.5638642E-008  0.2030714E+04  0.7818608E-02  0.8592394E-01
          2   -1    0    0  501    0  0.00000000000E+00  0.00000000000E+00  0.14947155315E+04  0.14947155315E+04  0.00000000000E+00 0. -1.
         -2   -1    0    0    0  501 -0.00000000000E+00 -0.00000000000E+00 -0.68972947994E+03  0.68972947994E+03  0.00000000000E+00 0.  1.
         23    2    1    2    0    0  0.57509527768E+03 -0.27624937232E+03  0.85150737819E+03  0.10677333264E+04  0.89114236303E+02 0.  0.
        254    2    1    2    0    0 -0.57509527768E+03  0.27624937232E+03 -0.46521326618E+02  0.11167116850E+04  0.91533188491E+03 0.  0.
         23    2    4    4    0    0 -0.57636993966E+03  0.59392727502E+02 -0.38708899510E+03  0.70276258048E+03  0.91145767693E+02 0.  0.
         23    2    4    4    0    0  0.12746619850E+01  0.21685664482E+03  0.34056766849E+03  0.41394910454E+03  0.91318646333E+02 0.  0.
         11    1    3    3    0    0  0.75306029388E+02 -0.58008468173E+02  0.88603323473E+02  0.12994817957E+03  0.00000000000E+00 0.  1.
        -11    1    3    3    0    0  0.49978924829E+03 -0.21824090415E+03  0.76290405472E+03  0.93778514685E+03  0.00000000000E+00 0. -1.
          4    1    5    5  502    0 -0.19473195196E+02  0.69002600109E+01  0.29075790066E+01  0.20863195705E+02  0.00000000000E+00 0. -1.
          1    1    6    6  503    0 -0.22527550055E+00 -0.52312874449E+01 -0.20682227134E+01  0.56298012909E+01  0.00000000000E+00 0. -1.
         -4    1    5    5    0  502 -0.55689674447E+03  0.52492467491E+02 -0.38999657411E+03  0.68189938478E+03  0.00000000000E+00 0.  1.
         -1    1    6    6    0  503  0.14999374855E+01  0.22208793227E+03  0.34263589120E+03  0.40831930325E+03  0.00000000000E+00 0.  1.
<mgrwt>
<rscale>  0 0.20307135E+04</rscale>
<asrwt>0</asrwt>
<pdfrwt beam="1">  1        2 0.22995623E+00 0.20307135E+04</pdfrwt>
<pdfrwt beam="2">  1       -2 0.10611223E+00 0.20307135E+04</pdfrwt>
<totfact> 0.84904860E+00</totfact>
</mgrwt>
</event>
<event>
12    1  0.4672461E-008  0.2432414E+04  0.7818608E-02  0.8427467E-01
         -1   -1    0    0    0  501 -0.00000000000E+00  0.00000000000E+00  0.91064519591E+03  0.91064519591E+03  0.00000000000E+00 0.  1.
          1   -1    0    0  501    0  0.00000000000E+00 -0.00000000000E+00 -0.16242979650E+04  0.16242979650E+04  0.00000000000E+00 0. -1.
         23    2    1    2    0    0  0.13774506285E+03  0.67311682126E+03  0.51494994961E+03  0.86340001506E+03  0.90698280004E+02 0.  0.
        254    2    1    2    0    0 -0.13774506285E+03 -0.67311682126E+03 -0.12286027187E+04  0.16715431458E+04  0.90140550841E+03 0.  0.
         23    2    4    4    0    0  0.31904647360E+03 -0.12012795400E+03 -0.18018181232E+03  0.39777529128E+03  0.97664319016E+02 0.  0.
         23    2    4    4    0    0 -0.45679153645E+03 -0.55298886726E+03 -0.10484209063E+04  0.12737678545E+04  0.94036988949E+02 0.  0.
         11    1    3    3    0    0  0.12514416524E+02  0.27806801442E+03  0.21840980349E+03  0.35380965719E+03  0.00000000000E+00 0.  1.
        -11    1    3    3    0    0  0.12523064633E+03  0.39504880685E+03  0.29654014612E+03  0.50959035787E+03  0.00000000000E+00 0. -1.
          1    1    5    5  502    0  0.15671058904E+03 -0.19981016004E+02 -0.45916463764E+02  0.16451678140E+03  0.00000000000E+00 0. -1.
          3    1    6    6  503    0 -0.29743703119E+03 -0.40358187877E+03 -0.78666301046E+03  0.93283750591E+03  0.00000000000E+00 0. -1.
         -1    1    5    5    0  502  0.16233588456E+03 -0.10014693800E+03 -0.13426534856E+03  0.23325850988E+03  0.00000000000E+00 0.  1.
         -3    1    6    6    0  503 -0.15935450526E+03 -0.14940698849E+03 -0.26175789587E+03  0.34093034862E+03  0.00000000000E+00 0.  1.
<mgrwt>
<rscale>  0 0.24324137E+04</rscale>
<asrwt>0</asrwt>
<pdfrwt beam="1">  1        1 0.24989200E+00 0.24324137E+04</pdfrwt>
<pdfrwt beam="2">  1       -1 0.14009926E+00 0.24324137E+04</pdfrwt>
<totfact> 0.20076151E+00</totfact>
</mgrwt>
</event>
<event>
12    1  0.4672461E-008  0.1587979E+04  0.7818608E-02  0.8827967E-01
         -2   -1    0    0    0  501 -0.00000000000E+00  0.00000000000E+00  0.30067695117E+03  0.30067695117E+03  0.00000000000E+00 0.  1.
          2   -1    0    0  501    0  0.00000000000E+00 -0.00000000000E+00 -0.20966656562E+04  0.20966656562E+04  0.00000000000E+00 0. -1.
         23    2    1    2    0    0 -0.36273890864E+03  0.14076462158E+03 -0.11639131283E+04  0.12305933308E+04  0.90950432495E+02 0.  0.
        254    2    1    2    0    0  0.36273890864E+03 -0.14076462158E+03 -0.63207557681E+03  0.11667492766E+04  0.90021672119E+03 0.  0.
         23    2    4    4    0    0  0.51217523313E+03  0.76746606978E+02 -0.70340090390E+03  0.87803380712E+03  0.89202150889E+02 0.  0.
         23    2    4    4    0    0 -0.14943632449E+03 -0.21751122856E+03  0.71325327093E+02  0.28871546947E+03  0.92881485786E+02 0.  0.
         11    1    3    3    0    0 -0.12325234532E+02  0.17910200932E+01 -0.12106514683E+03  0.12170410403E+03  0.00000000000E+00 0.  1.
        -11    1    3    3    0    0 -0.35041367411E+03  0.13897360149E+03 -0.10428479814E+04  0.11088892268E+04  0.00000000000E+00 0. -1.
          4    1    5    5  502    0  0.13440333206E+03  0.60416827519E+02 -0.19263048905E+03  0.24253031569E+03  0.00000000000E+00 0. -1.
          3    1    6    6  503    0  0.71766386328E+01 -0.42083989492E+02  0.23517849592E+02  0.48740697195E+02  0.00000000000E+00 0. -1.
         -4    1    5    5    0  502  0.37777190107E+03  0.16329779459E+02 -0.51077041485E+03  0.63550349143E+03  0.00000000000E+00 0.  1.
         -3    1    6    6    0  503 -0.15661296313E+03 -0.17542723907E+03  0.47807477501E+02  0.23997477228E+03  0.00000000000E+00 0.  1.
<mgrwt>
<rscale>  0 0.15879786E+04</rscale>
<asrwt>0</asrwt>
<pdfrwt beam="1">  1        2 0.32256394E+00 0.15879786E+04</pdfrwt>
<pdfrwt beam="2">  1       -2 0.46257993E-01 0.15879786E+04</pdfrwt>
<totfact> 0.25108755E+01</totfact>
</mgrwt>
</event>
<event>
12    1  0.4672461E-008  0.3745720E+04  0.7818608E-02  0.8057905E-01
         -1   -1    0    0    0  501 -0.00000000000E+00  0.00000000000E+00  0.19453930044E+04  0.19453930044E+04  0.00000000000E+00 0.  1.
          1   -1    0    0  501    0  0.00000000000E+00 -0.00000000000E+00 -0.18030308968E+04  0.18030308968E+04  0.00000000000E+00 0. -1.
         23    2    1    2    0    0  0.63093617177E+03 -0.11968544613E+04 -0.10677320900E+04  0.17259911264E+04  0.91937468366E+02 0.  0.
        254    2    1    2    0    0 -0.63093617177E+03  0.11968544613E+04  0.12100941976E+04  0.20224327748E+04  0.89183255543E+03 0.  0.
         23    2    4    4    0    0 -0.36985954551E+03  0.11710288554E+04  0.12354247921E+04  0.17442949385E+04  0.90475146754E+02 0.  0.
         23    2    4    4    0    0 -0.26107662626E+03  0.25825605931E+02 -0.25330594467E+02  0.27813783622E+03  0.88831583468E+02 0.  0.
         13    1    3    3    0    0  0.48004275297E+03 -0.92820234210E+03 -0.87130793834E+03  0.13605800807E+04  0.00000000000E+00 0.  1.
        -13    1    3    3    0    0  0.15089341880E+03 -0.26865211919E+03 -0.19642415167E+03  0.36541104573E+03  0.00000000000E+00 0. -1.
          3    1    6    6  502    0 -0.21178680281E+03 -0.15860753716E+02 -0.21611683069E+02  0.21347664555E+03  0.00000000000E+00 0. -1.
          3    1    5    5  503    0 -0.29052212018E+03  0.94797153603E+03  0.10445435518E+04  0.14401820603E+04  0.00000000000E+00 0. -1.
         -3    1    5    5    0  503 -0.79337425331E+02  0.22305731934E+03  0.19088124036E+03  0.30411287820E+03  0.00000000000E+00 0.  1.
         -3    1    6    6    0  502 -0.49289823452E+02  0.41686359648E+02 -0.37189113978E+01  0.64661190668E+02  0.00000000000E+00 0.  1.
<mgrwt>
<rscale>  0 0.37457195E+04</rscale>
<asrwt>0</asrwt>
<pdfrwt beam="1">  1        1 0.27738937E+00 0.37457195E+04</pdfrwt>
<pdfrwt beam="2">  1       -1 0.29929123E+00 0.37457195E+04</pdfrwt>
<totfact> 0.10816009E-01</totfact>
</mgrwt>
</event>
<event>
12    1  0.4672461E-008  0.1463055E+04  0.7818608E-02  0.8909399E-01
          2   -1    0    0  501    0  0.00000000000E+00  0.00000000000E+00  0.78954805520E+03  0.78954805520E+03  0.00000000000E+00 0.  1.
         -2   -1    0    0    0  501 -0.00000000000E+00 -0.00000000000E+00 -0.67777069285E+03  0.67777069285E+03  0.00000000000E+00 0. -1.
         23    2    1    2    0    0  0.23815176088E+03 -0.29336939374E+03  0.27999970540E+03  0.47909377424E+03  0.91373667439E+02 0.  0.
        254    2    1    2    0    0 -0.23815176088E+03  0.29336939374E+03 -0.16822234305E+03  0.98822497381E+03  0.89750096366E+03 0.  0.
         23    2    4    4    0    0 -0.44759529332E+03 -0.11447252287E+03  0.48484362573E+02  0.47304669146E+03  0.89313682003E+02 0.  0.
         23    2    4    4    0    0  0.20944353244E+03  0.40784191661E+03 -0.21670670562E+03  0.51517828235E+03  0.90803326622E+02 0.  0.
         11    1    3    3    0    0  0.84815002381E+02 -0.52587349747E+02  0.45563185043E+02  0.10970422879E+03  0.00000000000E+00 0. -1.
        -11    1    3    3    0    0  0.15333675850E+03 -0.24078204399E+03  0.23443652035E+03  0.36938954546E+03  0.00000000000E+00 0.  1.
          4    1    5    5  502    0 -0.23394854370E+03 -0.10484140104E+03  0.35190491372E+02  0.25877018985E+03  0.00000000000E+00 0.  1.
          4    1    6    6  503    0  0.19612594391E+03  0.29817990753E+03 -0.16732854736E+03  0.39417697281E+03  0.00000000000E+00 0. -1.
         -4    1    5    5    0  502 -0.21364674962E+03 -0.96311218276E+01  0.13293871201E+02  0.21427650161E+03  0.00000000000E+00 0. -1.
         -4    1    6    6    0  503  0.13317588529E+02  0.10966200907E+03 -0.49378158256E+02  0.12100130954E+03  0.00000000000E+00 0.  1.
<mgrwt>
<rscale>  0 0.14630551E+04</rscale>
<asrwt>0</asrwt>
<pdfrwt beam="1">  1        2 0.12146893E+00 0.14630551E+04</pdfrwt>
<pdfrwt beam="2">  1       -2 0.10427241E+00 0.14630551E+04</pdfrwt>
<totfact> 0.25389305E+01</totfact>
</mgrwt>
</event>
<event>
12    1  0.4672461E-008  0.2528929E+04  0.7818608E-02  0.8392751E-01
         -3   -1    0    0    0  501 -0.00000000000E+00  0.00000000000E+00  0.10133402464E+04  0.10133402464E+04  0.00000000000E+00 0.  1.
          3   -1    0    0  501    0  0.00000000000E+00 -0.00000000000E+00 -0.15778215932E+04  0.15778215932E+04  0.00000000000E+00 0. -1.
         23    2    1    2    0    0  0.10557312112E+03  0.20648280200E+03  0.85949465254E+03  0.89454791153E+03  0.87772870882E+02 0.  0.
        254    2    1    2    0    0 -0.10557312112E+03 -0.20648280200E+03 -0.14239759994E+04  0.16966139281E+04  0.89275435739E+03 0.  0.
         23    2    4    4    0    0 -0.27355291873E+03  0.54582204969E+02 -0.67607179515E+02  0.30228474497E+03  0.94841551428E+02 0.  0.
         23    2    4    4    0    0  0.16797979761E+03 -0.26106500697E+03 -0.13563688199E+04  0.13943291831E+04  0.89695847265E+02 0.  0.
         11    1    3    3    0    0  0.16451264736E+02  0.11371146464E+03  0.49031180114E+03  0.50359368903E+03  0.00000000000E+00 0.  1.
        -11    1    3    3    0    0  0.89121856382E+02  0.92771337359E+02  0.36918285140E+03  0.39095422250E+03  0.00000000000E+00 0. -1.
          1    1    5    5  502    0 -0.45720993762E+02  0.11855833857E+02  0.24067490664E+02  0.53011453233E+02  0.00000000000E+00 0. -1.
          3    1    6    6  503    0  0.11847266109E+03 -0.10693333237E+03 -0.74385928528E+03  0.76078718791E+03  0.00000000000E+00 0. -1.
         -1    1    5    5    0  502 -0.22783192497E+03  0.42726371112E+02 -0.91674670179E+02  0.24927329174E+03  0.00000000000E+00 0.  1.
         -3    1    6    6    0  503  0.49507136527E+02 -0.15413167460E+03 -0.61250953462E+03  0.63354199520E+03  0.00000000000E+00 0.  1.
<mgrwt>
<rscale>  0 0.25289287E+04</rscale>
<asrwt>0</asrwt>
<pdfrwt beam="1">  1        3 0.24274178E+00 0.25289287E+04</pdfrwt>
<pdfrwt beam="2">  1       -3 0.15589850E+00 0.25289287E+04</pdfrwt>
<totfact> 0.54973867E-02</totfact>
</mgrwt>
</event>
<event>
12    1  0.4672461E-008  0.1746038E+04  0.7818608E-02  0.8735534E-01
         -2   -1    0    0    0  501 -0.00000000000E+00  0.00000000000E+00  0.69349535337E+03  0.69349535337E+03  0.00000000000E+00 0.  1.
          2   -1    0    0  501    0  0.00000000000E+00 -0.00000000000E+00 -0.10990155380E+04  0.10990155380E+04  0.00000000000E+00 0. -1.
         23    2    1    2    0    0  0.22521958551E+03  0.25600134279E+03  0.40706986392E+03  0.53889792248E+03  0.91894219223E+02 0.  0.
        254    2    1    2    0    0 -0.22521958551E+03 -0.25600134279E+03 -0.81259004852E+03  0.12536129689E+04  0.89161782145E+03 0.  0.
         23    2    4    4    0    0 -0.43996833327E+03  0.31770962145E+02 -0.75408374533E+03  0.87854656450E+03  0.92845262100E+02 0.  0.
         23    2    4    4    0    0  0.21474874776E+03 -0.28777230494E+03 -0.58506303184E+02  0.37506640436E+03  0.91224426617E+02 0.  0.
         11    1    3    3    0    0  0.12314536387E+03  0.12691674564E+03  0.27920150838E+03  0.33049375674E+03  0.00000000000E+00 0.  1.
        -11    1    3    3    0    0  0.10207422164E+03  0.12908459715E+03  0.12786835555E+03  0.20840416573E+03  0.00000000000E+00 0. -1.
          3    1    6    6  502    0  0.17861528428E+02 -0.62719350828E+02  0.15486828323E+02  0.67026808200E+02  0.00000000000E+00 0. -1.
          3    1    5    5  503    0 -0.25253922176E+03  0.58692407772E+02 -0.47763979115E+03  0.54347090754E+03  0.00000000000E+00 0. -1.
         -3    1    5    5    0  503 -0.18742911152E+03 -0.26921445628E+02 -0.27644395418E+03  0.33507565695E+03  0.00000000000E+00 0.  1.
         -3    1    6    6    0  502  0.19688721933E+03 -0.22505295411E+03 -0.73993131507E+02  0.30803959616E+03  0.00000000000E+00 0.  1.
<mgrwt>
<rscale>  0 0.17460380E+04</rscale>
<asrwt>0</asrwt>
<pdfrwt beam="1">  1        2 0.16907931E+00 0.17460380E+04</pdfrwt>
<pdfrwt beam="2">  1       -2 0.10669159E+00 0.17460380E+04</pdfrwt>
<totfact> 0.14633819E+01</totfact>
</mgrwt>
</event>
<event>
12    1  0.4672461E-008  0.1490496E+04  0.7818608E-02  0.8890798E-01
          1   -1    0    0  501    0  0.00000000000E+00  0.00000000000E+00  0.79592664637E+03  0.79592664637E+03  0.00000000000E+00 0. -1.
         -1   -1    0    0    0  501 -0.00000000000E+00 -0.00000000000E+00 -0.69779593262E+03  0.69779593262E+03  0.00000000000E+00 0.  1.
         23    2    1    2    0    0  0.26732979031E+03 -0.36434703874E+03 -0.85850739330E+02  0.47126825161E+03  0.10251553104E+03 0.  0.
        254    2    1    2    0    0 -0.26732979031E+03  0.36434703874E+03  0.18398145308E+03  0.10224543274E+04  0.89852640198E+03 0.  0.
         23    2    4    4    0    0  0.26965778141E+03 -0.33958641711E+02 -0.79200742683E+02  0.29788015302E+03  0.92689371024E+02 0.  0.
         23    2    4    4    0    0 -0.53698757173E+03  0.39830568046E+03  0.26318219577E+03  0.72457417435E+03  0.93486890521E+02 0.  0.
         13    1    3    3    0    0  0.17700311634E+02  0.39959961662E+01 -0.25336038909E+00  0.18147540020E+02  0.00000000000E+00 0.  1.
        -13    1    3    3    0    0  0.24962947868E+03 -0.36834303491E+03 -0.85597378941E+02  0.45312071159E+03  0.00000000000E+00 0. -1.
          4    1    5    5  502    0  0.42037734372E+02 -0.12944098789E+02 -0.51332022300E+02  0.67599536373E+02  0.00000000000E+00 0. -1.
          3    1    6    6  503    0 -0.16385378317E+03  0.90436656108E+02  0.11031663453E+03  0.21724780984E+03  0.00000000000E+00 0. -1.
         -4    1    5    5    0  502  0.22762004704E+03 -0.21014542923E+02 -0.27868720383E+02  0.23028061665E+03  0.00000000000E+00 0.  1.
         -3    1    6    6    0  503 -0.37313378856E+03  0.30786902435E+03  0.15286556123E+03  0.50732636451E+03  0.00000000000E+00 0.  1.
<mgrwt>
<rscale>  0 0.14904957E+04</rscale>
<asrwt>0</asrwt>
<pdfrwt beam="1">  1        1 0.12245025E+00 0.14904957E+04</pdfrwt>
<pdfrwt beam="2">  1       -1 0.10735322E+00 0.14904957E+04</pdfrwt>
<totfact> 0.17449886E+01</totfact>
</mgrwt>
</event>
<event>
12    1  0.4672461E-008  0.1175626E+04  0.7818608E-02  0.9134463E-01
         -2   -1    0    0    0  501 -0.00000000000E+00  0.00000000000E+00  0.98318813521E+02  0.98318813521E+02  0.00000000000E+00 0.  1.
          2   -1    0    0  501    0  0.00000000000E+00 -0.00000000000E+00 -0.35143219043E+04  0.35143219043E+04  0.00000000000E+00 0. -1.
         23    2    1    2    0    0 -0.72083976978E+02  0.62130132138E+02 -0.74078255368E+02  0.15112421324E+03  0.91075171442E+02 0.  0.
        254    2    1    2    0    0  0.72083976978E+02 -0.62130132138E+02 -0.33419248354E+04  0.34615165046E+04  0.89698308394E+03 0.  0.
         23    2    4    4    0    0 -0.51006094465E+02  0.37770509245E+02 -0.32586051540E+04  0.32604719992E+04  0.90232336235E+02 0.  0.
         23    2    4    4    0    0  0.12309007144E+03 -0.99900641383E+02 -0.83319681384E+02  0.20104450540E+03  0.91353270390E+02 0.  0.
         11    1    3    3    0    0 -0.82355254257E+01  0.34720471103E+02  0.14523997110E+02  0.38526373885E+02  0.00000000000E+00 0.  1.
        -11    1    3    3    0    0 -0.63848451553E+02  0.27409661035E+02 -0.88602252478E+02  0.11259783936E+03  0.00000000000E+00 0. -1.
          2    1    5    5  502    0  0.16982821661E+01  0.40231220715E+02 -0.60310826758E+03  0.60445100521E+03  0.00000000000E+00 0. -1.
          1    1    6    6  503    0  0.31180730799E+02  0.87794963786E+01 -0.41597210784E+02  0.52722343222E+02  0.00000000000E+00 0. -1.
         -2    1    5    5    0  502 -0.52704376631E+02 -0.24607114704E+01 -0.26554968865E+04  0.26560209940E+04  0.00000000000E+00 0.  1.
         -1    1    6    6    0  503  0.91909340644E+02 -0.10868013776E+03 -0.41722470600E+02  0.14832216218E+03  0.00000000000E+00 0.  1.
<mgrwt>
<rscale>  0 0.11756257E+04</rscale>
<asrwt>0</asrwt>
<pdfrwt beam="1">  1        2 0.54066490E+00 0.11756257E+04</pdfrwt>
<pdfrwt beam="2">  1       -2 0.15125972E-01 0.11756257E+04</pdfrwt>
<totfact> 0.27937565E+01</totfact>
</mgrwt>
</event>
<event>
12    1  0.4672461E-008  0.1637061E+04  0.7818608E-02  0.8798098E-01
          1   -1    0    0  501    0  0.00000000000E+00  0.00000000000E+00  0.97506500705E+03  0.97506500705E+03  0.00000000000E+00 0. -1.
         -1   -1    0    0    0  501 -0.00000000000E+00 -0.00000000000E+00 -0.68712559838E+03  0.68712559838E+03  0.00000000000E+00 0.  1.
         23    2    1    2    0    0  0.98208526069E+02  0.26837504447E+03  0.60003961526E+03  0.67072390498E+03  0.90293619623E+02 0.  0.
        254    2    1    2    0    0 -0.98208526069E+02 -0.26837504447E+03 -0.31210020659E+03  0.99146670045E+03  0.89662121326E+03 0.  0.
         23    2    4    4    0    0 -0.45935658510E+03 -0.20549410061E+01 -0.24332340389E+03  0.52773575811E+03  0.91027778486E+02 0.  0.
         23    2    4    4    0    0  0.36114805903E+03 -0.26632010346E+03 -0.68776802700E+02  0.46373094234E+03  0.94666890971E+02 0.  0.
         11    1    3    3    0    0  0.24349689691E+02  0.65970884668E+01  0.79463987604E+02  0.83372383259E+02  0.00000000000E+00 0.  1.
        -11    1    3    3    0    0  0.73858836378E+02  0.26177795600E+03  0.52057562766E+03  0.58735152172E+03  0.00000000000E+00 0. -1.
          4    1    5    5  502    0 -0.45232791208E+03  0.12085503665E+02 -0.23439786353E+03  0.50959685818E+03  0.00000000000E+00 0.  1.
          3    1    6    6  503    0  0.24817770274E+03 -0.14827319127E+03 -0.74049116143E+01  0.28919188111E+03  0.00000000000E+00 0. -1.
         -4    1    5    5    0  502 -0.70286730180E+01 -0.14140444671E+02 -0.89255403672E+01  0.18138899931E+02  0.00000000000E+00 0. -1.
         -3    1    6    6    0  503  0.11297035629E+03 -0.11804691219E+03 -0.61371891085E+02  0.17453906123E+03  0.00000000000E+00 0.  1.
<mgrwt>
<rscale>  0 0.16370609E+04</rscale>
<asrwt>0</asrwt>
<pdfrwt beam="1">  1        1 0.15001000E+00 0.16370609E+04</pdfrwt>
<pdfrwt beam="2">  1       -1 0.10571163E+00 0.16370609E+04</pdfrwt>
<totfact> 0.12693887E+01</totfact>
</mgrwt>
</event>
<event>
12    1  0.4672461E-008  0.2197708E+04  0.7818608E-02  0.8519383E-01
         -1   -1    0    0    0  501 -0.00000000000E+00  0.00000000000E+00  0.83781714469E+03  0.83781714469E+03  0.00000000000E+00 0.  1.
          1   -1    0    0  501    0  0.00000000000E+00 -0.00000000000E+00 -0.14412216499E+04  0.14412216499E+04  0.00000000000E+00 0. -1.
         23    2    1    2    0    0  0.47776751074E+03 -0.38115264813E+03 -0.95929202558E+03  0.11410112606E+04  0.90146386156E+02 0.  0.
        254    2    1    2    0    0 -0.47776751074E+03  0.38115264813E+03  0.35588752033E+03  0.11380275341E+04  0.89157815453E+03 0.  0.
         23    2    4    4    0    0 -0.50140726914E+03 -0.13532775988E+03  0.46707180176E+02  0.52907820596E+03  0.89550740900E+02 0.  0.
         23    2    4    4    0    0  0.23639758399E+02  0.51648040801E+03  0.30918034016E+03  0.60894932810E+03  0.88971632617E+02 0.  0.
         11    1    3    3    0    0  0.38330815975E+03 -0.28935399657E+03 -0.81216486007E+03  0.94353730218E+03  0.00000000000E+00 0. -1.
        -11    1    3    3    0    0  0.94459350992E+02 -0.91798651561E+02 -0.14712716551E+03  0.19747395841E+03  0.00000000000E+00 0.  1.
          2    1    5    5  502    0  0.29570381807E+01 -0.60864186227E+00 -0.35008607949E+01  0.46228287902E+01  0.00000000000E+00 0. -1.
          3    1    6    6  503    0 -0.27355140792E+02  0.27833057149E+03  0.14302523654E+03  0.31412167872E+03  0.00000000000E+00 0. -1.
         -2    1    5    5    0  502 -0.50436430732E+03 -0.13471911802E+03  0.50208040971E+02  0.52445537717E+03  0.00000000000E+00 0.  1.
         -3    1    6    6    0  503  0.50994899191E+02  0.23814983652E+03  0.16615510362E+03  0.29482764938E+03  0.00000000000E+00 0.  1.
<mgrwt>
<rscale>  0 0.21977081E+04</rscale>
<asrwt>0</asrwt>
<pdfrwt beam="1">  1        1 0.22172641E+00 0.21977081E+04</pdfrwt>
<pdfrwt beam="2">  1       -1 0.12889495E+00 0.21977081E+04</pdfrwt>
<totfact> 0.33968686E+00</totfact>
</mgrwt>
</event>
<event>
12    1  0.4672461E-008  0.1903474E+04  0.7818608E-02  0.8653129E-01
          1   -1    0    0  501    0  0.00000000000E+00  0.00000000000E+00  0.23135787743E+04  0.23135787743E+04  0.00000000000E+00 0. -1.
         -1   -1    0    0    0  501 -0.00000000000E+00 -0.00000000000E+00 -0.39151615616E+03  0.39151615616E+03  0.00000000000E+00 0.  1.
         23    2    1    2    0    0 -0.21527040506E+03  0.30775036232E+02 -0.25087417432E+03  0.34441652261E+03  0.91632088031E+02 0.  0.
        254    2    1    2    0    0  0.21527040506E+03 -0.30775036232E+02  0.21729367924E+04  0.23606784078E+04  0.89658228353E+03 0.  0.
         23    2    4    4    0    0  0.44744868685E+03 -0.29285590750E+03  0.10681756091E+04  0.11980525517E+04  0.91410475010E+02 0.  0.
         23    2    4    4    0    0 -0.23217828179E+03  0.26208087126E+03  0.11047611833E+04  0.11626258561E+04  0.92781848584E+02 0.  0.
         13    1    3    3    0    0 -0.12672909189E+03 -0.89406627721E+01 -0.87042517707E+02  0.15400194178E+03  0.00000000000E+00 0. -1.
        -13    1    3    3    0    0 -0.88541313161E+02  0.39715699004E+02 -0.16383165661E+03  0.19041458083E+03  0.00000000000E+00 0.  1.
          4    1    5    5  502    0  0.40019446098E+03 -0.22776469180E+03  0.87410988769E+03  0.98797796392E+03  0.00000000000E+00 0. -1.
          3    1    6    6  503    0 -0.21181701067E+03  0.20096364352E+03  0.81310840343E+03  0.86394334753E+03  0.00000000000E+00 0. -1.
         -4    1    5    5    0  502  0.47254225867E+02 -0.65091215694E+02  0.19406572140E+03  0.21007458781E+03  0.00000000000E+00 0.  1.
         -3    1    6    6    0  503 -0.20361271122E+02  0.61117227743E+02  0.29165277990E+03  0.29868250855E+03  0.00000000000E+00 0.  1.
<mgrwt>
<rscale>  0 0.19034742E+04</rscale>
<asrwt>0</asrwt>
<pdfrwt beam="1">  1        1 0.35593519E+00 0.19034742E+04</pdfrwt>
<pdfrwt beam="2">  1       -1 0.60233256E-01 0.19034742E+04</pdfrwt>
<totfact> 0.47640244E+00</totfact>
</mgrwt>
</event>
<event>
12    1  0.4672461E-008  0.1751987E+04  0.7818608E-02  0.8732257E-01
          3   -1    0    0  501    0  0.00000000000E+00  0.00000000000E+00  0.62949768652E+03  0.62949768652E+03  0.00000000000E+00 0. -1.
         -3   -1    0    0    0  501 -0.00000000000E+00 -0.00000000000E+00 -0.12190114679E+04  0.12190114679E+04  0.00000000000E+00 0.  1.
         23    2    1    2    0    0  0.21096150232E+03  0.37234752838E+03  0.28462200756E+03  0.52213545437E+03  0.92023410994E+02 0.  0.
        254    2    1    2    0    0 -0.21096150232E+03 -0.37234752838E+03 -0.87413578895E+03  0.13263737001E+04  0.90111396468E+03 0.  0.
         23    2    4    4    0    0 -0.16935277358E+03 -0.47703090305E+03 -0.10066082226E+04  0.11306550276E+04  0.94243478556E+02 0.  0.
         23    2    4    4    0    0 -0.41608728741E+02  0.10468337466E+03  0.13247243369E+03  0.19571867243E+03  0.89816244687E+02 0.  0.
         13    1    3    3    0    0  0.19458591323E+03  0.31307860894E+03  0.27499737567E+03  0.45989721637E+03  0.00000000000E+00 0. -1.
        -13    1    3    3    0    0  0.16375589098E+02  0.59268919442E+02  0.96246318847E+01  0.62238237997E+02  0.00000000000E+00 0.  1.
          2    1    5    5  502    0 -0.33850118136E+02 -0.13520827770E+03 -0.37147302042E+03  0.39676102852E+03  0.00000000000E+00 0. -1.
          1    1    6    6  503    0 -0.59212476612E+02  0.46253696009E+02  0.40539042216E+02  0.85375264128E+02  0.00000000000E+00 0. -1.
         -2    1    5    5    0  502 -0.13550265545E+03 -0.34182262535E+03 -0.63513520222E+03  0.73389399911E+03  0.00000000000E+00 0.  1.
         -1    1    6    6    0  503  0.17603747871E+02  0.58429678656E+02  0.91933391476E+02  0.11034340830E+03  0.00000000000E+00 0.  1.
<mgrwt>
<rscale>  0 0.17519873E+04</rscale>
<asrwt>0</asrwt>
<pdfrwt beam="1">  1        3 0.96845799E-01 0.17519873E+04</pdfrwt>
<pdfrwt beam="2">  1       -3 0.18754022E+00 0.17519873E+04</pdfrwt>
<totfact> 0.41170982E-01</totfact>
</mgrwt>
</event>
<event>
12    1  0.4672461E-008  0.1427258E+04  0.7818608E-02  0.8934321E-01
         -2   -1    0    0    0  501 -0.00000000000E+00  0.00000000000E+00  0.25949965993E+03  0.25949965993E+03  0.00000000000E+00 0.  1.
          2   -1    0    0  501    0  0.00000000000E+00 -0.00000000000E+00 -0.19624933962E+04  0.19624933962E+04  0.00000000000E+00 0. -1.
         23    2    1    2    0    0  0.78039859763E+02 -0.32955770938E+03 -0.11468160133E+03  0.36962029028E+03  0.93641795069E+02 0.  0.
        254    2    1    2    0    0 -0.78039859763E+02  0.32955770938E+03 -0.15883121349E+04  0.18523727658E+04  0.89098312112E+03 0.  0.
         23    2    4    4    0    0 -0.28821152187E+03 -0.18996060528E+03 -0.84160150003E+03  0.91421364666E+03  0.91337801512E+02 0.  0.
         23    2    4    4    0    0  0.21017166211E+03  0.51951831466E+03 -0.74671063490E+03  0.93815911918E+03  0.92164818697E+02 0.  0.
         11    1    3    3    0    0  0.72922748963E+02 -0.33556265959E+03 -0.11080098639E+03  0.36082805380E+03  0.00000000000E+00 0.  1.
        -11    1    3    3    0    0  0.51171108000E+01  0.60049502124E+01 -0.38806149391E+01  0.87922364787E+01  0.00000000000E+00 0. -1.
          2    1    5    5  502    0 -0.27376932150E+02 -0.26626965912E+02 -0.38788245206E+02  0.54433626499E+02  0.00000000000E+00 0. -1.
          1    1    6    6  503    0  0.64486342377E+02  0.26617529134E+03 -0.32372662446E+03  0.42403620300E+03  0.00000000000E+00 0. -1.
         -2    1    5    5    0  502 -0.26083458972E+03 -0.16333363937E+03 -0.80281325482E+03  0.85978002016E+03  0.00000000000E+00 0.  1.
         -1    1    6    6    0  503  0.14568531973E+03  0.25334302333E+03 -0.42298401044E+03  0.51412291618E+03  0.00000000000E+00 0.  1.
<mgrwt>
<rscale>  0 0.14272580E+04</rscale>
<asrwt>0</asrwt>
<pdfrwt beam="1">  1        2 0.30192205E+00 0.14272580E+04</pdfrwt>
<pdfrwt beam="2">  1       -2 0.39923026E-01 0.14272580E+04</pdfrwt>
<totfact> 0.40442305E+01</totfact>
</mgrwt>
</event>
<event>
12    1  0.4672461E-008  0.1249163E+04  0.7818608E-02  0.9070880E-01
          1   -1    0    0  501    0  0.00000000000E+00  0.00000000000E+00  0.93504553561E+03  0.93504553561E+03  0.00000000000E+00 0. -1.
         -1   -1    0    0    0  501 -0.00000000000E+00 -0.00000000000E+00 -0.41720133286E+03  0.41720133286E+03  0.00000000000E+00 0.  1.
         23    2    1    2    0    0 -0.24190134792E+03  0.74916218394E+02  0.29614447287E+02  0.27135755663E+03  0.92893520482E+02 0.  0.
        254    2    1    2    0    0  0.24190134792E+03 -0.74916218394E+02  0.48822975546E+03  0.10808893118E+04  0.93049702226E+03 0.  0.
         23    2    4    4    0    0  0.13221595404E+03 -0.48327179687E+03  0.14625535066E+03  0.52969779403E+03  0.90312995981E+02 0.  0.
         23    2    4    4    0    0  0.10968539388E+03  0.40835557848E+03  0.34197440481E+03  0.55119151782E+03  0.89891221303E+02 0.  0.
         11    1    3    3    0    0 -0.20929713710E+03  0.53760264537E+02  0.57394739560E+02  0.22358357223E+03  0.00000000000E+00 0. -1.
        -11    1    3    3    0    0 -0.32604210826E+02  0.21155953857E+02 -0.27780292274E+02  0.47773984405E+02  0.00000000000E+00 0.  1.
          4    1    5    5  502    0  0.43788985074E+02 -0.23815427142E+03  0.28743555184E+02  0.24384651766E+03  0.00000000000E+00 0. -1.
          3    1    6    6  503    0  0.12407584474E+03  0.32878450257E+03  0.27769564409E+03  0.44789388824E+03  0.00000000000E+00 0. -1.
         -4    1    5    5    0  502  0.88426968966E+02 -0.24511752545E+03  0.11751179548E+03  0.28585127637E+03  0.00000000000E+00 0.  1.
         -3    1    6    6    0  503 -0.14390450856E+02  0.79571075913E+02  0.64278760720E+02  0.10329762958E+03  0.00000000000E+00 0.  1.
<mgrwt>
<rscale>  0 0.12491633E+04</rscale>
<asrwt>0</asrwt>
<pdfrwt beam="1">  1        1 0.14385316E+00 0.12491633E+04</pdfrwt>
<pdfrwt beam="2">  1       -1 0.64184821E-01 0.12491633E+04</pdfrwt>
<totfact> 0.41371476E+01</totfact>
</mgrwt>
</event>
<event>
12    1  0.4672461E-008  0.3929217E+04  0.7818608E-02  0.8018980E-01
         -2   -1    0    0    0  501 -0.00000000000E+00  0.00000000000E+00  0.12541857493E+04  0.12541857493E+04  0.00000000000E+00 0.  1.
          2   -1    0    0  501    0  0.00000000000E+00 -0.00000000000E+00 -0.30774434725E+04  0.30774434725E+04  0.00000000000E+00 0. -1.
         23    2    1    2    0    0  0.16013331781E+04 -0.41516691488E+03  0.75536505140E+02  0.16581479360E+04  0.84364088806E+02 0.  0.
        254    2    1    2    0    0 -0.16013331781E+04  0.41516691488E+03 -0.18987942284E+04  0.26734812858E+04  0.89746930254E+03 0.  0.
         23    2    4    4    0    0 -0.99779101900E+02 -0.21263947318E+03 -0.26698854238E+03  0.36691170651E+03  0.90387520592E+02 0.  0.
         23    2    4    4    0    0 -0.15015540762E+04  0.62780638806E+03 -0.16318056860E+04  0.23065695793E+04  0.93101677489E+02 0.  0.
         11    1    3    3    0    0  0.14683132036E+04 -0.39354897979E+03  0.49850668356E+02  0.15209567885E+04  0.00000000000E+00 0. -1.
        -11    1    3    3    0    0  0.13301997453E+03 -0.21617935087E+02  0.25685836784E+02  0.13719114750E+03  0.00000000000E+00 0.  1.
          4    1    5    5  502    0 -0.10676972228E+03 -0.19527279368E+03 -0.20653077321E+03  0.30362180065E+03  0.00000000000E+00 0.  1.
          1    1    6    6  503    0 -0.49508880022E+03  0.18762202260E+03 -0.58777011449E+03  0.79106804446E+03  0.00000000000E+00 0. -1.
         -4    1    5    5    0  502  0.69906203841E+01 -0.17366679501E+02 -0.60457769167E+02  0.63289905853E+02  0.00000000000E+00 0. -1.
         -1    1    6    6    0  503 -0.10064652760E+04  0.44018436546E+03 -0.10440355715E+04  0.15155015348E+04  0.00000000000E+00 0.  1.
<mgrwt>
<rscale>  0 0.39292166E+04</rscale>
<asrwt>0</asrwt>
<pdfrwt beam="1">  1        2 0.47345284E+00 0.39292166E+04</pdfrwt>
<pdfrwt beam="2">  1       -2 0.19295165E+00 0.39292166E+04</pdfrwt>
<totfact> 0.18264783E-01</totfact>
</mgrwt>
</event>
<event>
12    1  0.4672461E-008  0.2097405E+04  0.7818608E-02  0.8562387E-01
          3   -1    0    0  501    0  0.00000000000E+00  0.00000000000E+00  0.73108563632E+03  0.73108563632E+03  0.00000000000E+00 0. -1.
         -3   -1    0    0    0  501 -0.00000000000E+00 -0.00000000000E+00 -0.15043071809E+04  0.15043071809E+04  0.00000000000E+00 0.  1.
         23    2    1    2    0    0 -0.36938423133E+03 -0.12121364111E+03  0.48461459987E+03  0.62747174600E+03  0.87931930865E+02 0.  0.
        254    2    1    2    0    0  0.36938423133E+03  0.12121364111E+03 -0.12578361445E+04  0.16079210712E+04  0.92310397457E+03 0.  0.
         23    2    4    4    0    0  0.34837260523E+02 -0.37087044748E+03 -0.35622159208E+03  0.52381610218E+03  0.93439620629E+02 0.  0.
         23    2    4    4    0    0  0.33454697081E+03  0.49208408858E+03 -0.90161455237E+03  0.10841049691E+04  0.91139217470E+02 0.  0.
         11    1    3    3    0    0 -0.33469551469E+03 -0.79445968518E+02  0.41000310735E+03  0.53519650364E+03  0.00000000000E+00 0. -1.
        -11    1    3    3    0    0 -0.34688716637E+02 -0.41767672589E+02  0.74611492526E+02  0.92275242359E+02  0.00000000000E+00 0.  1.
          2    1    5    5  502    0  0.31207991901E+01 -0.17115941001E+03 -0.10309198595E+03  0.19983303178E+03  0.00000000000E+00 0. -1.
          1    1    6    6  503    0  0.11325159485E+03  0.12088098900E+03 -0.30970884199E+03  0.35122315420E+03  0.00000000000E+00 0. -1.
         -2    1    5    5    0  502  0.31716461333E+02 -0.19971103747E+03 -0.25312960613E+03  0.32398307040E+03  0.00000000000E+00 0.  1.
         -1    1    6    6    0  503  0.22129537596E+03  0.37120309959E+03 -0.59190571038E+03  0.73288181485E+03  0.00000000000E+00 0.  1.
<mgrwt>
<rscale>  0 0.20974054E+04</rscale>
<asrwt>0</asrwt>
<pdfrwt beam="1">  1        3 0.11247471E+00 0.20974054E+04</pdfrwt>
<pdfrwt beam="2">  1       -3 0.23143187E+00 0.20974054E+04</pdfrwt>
<totfact> 0.14982325E-01</totfact>
</mgrwt>
</event>
<event>
12    1  0.4672461E-008  0.1616954E+04  0.7818608E-02  0.8810200E-01
         -1   -1    0    0    0  501 -0.00000000000E+00  0.00000000000E+00  0.73177844277E+03  0.73177844277E+03  0.00000000000E+00 0.  1.
          1   -1    0    0  501    0  0.00000000000E+00 -0.00000000000E+00 -0.89321419539E+03  0.89321419539E+03  0.00000000000E+00 0. -1.
         23    2    1    2    0    0 -0.45404948730E+03  0.11220520781E+03  0.23518208126E+03  0.53134632648E+03  0.90925033623E+02 0.  0.
        254    2    1    2    0    0  0.45404948730E+03 -0.11220520781E+03 -0.39661783388E+03  0.10936463117E+04  0.90554160773E+03 0.  0.
         23    2    4    4    0    0  0.46190333730E+03 -0.52648850637E+02 -0.65738374176E+03  0.81051940314E+03  0.93068385926E+02 0.  0.
         23    2    4    4    0    0 -0.78538499993E+01 -0.59556357176E+02  0.26076590788E+03  0.28312690854E+03  0.92484295892E+02 0.  0.
         11    1    3    3    0    0  0.34714990671E+01  0.55976062759E+01  0.20212822844E+01  0.68898536897E+01  0.00000000000E+00 0.  1.
        -11    1    3    3    0    0 -0.45752098636E+03  0.10660760154E+03  0.23316079898E+03  0.52445647279E+03  0.00000000000E+00 0. -1.
          2    1    5    5  502    0  0.42178317436E+03 -0.22547117976E+02 -0.60633713799E+03  0.73895476425E+03  0.00000000000E+00 0. -1.
          1    1    6    6  503    0 -0.34655581477E+02 -0.66152410034E+02  0.22987304778E+03  0.24169974923E+03  0.00000000000E+00 0. -1.
         -2    1    5    5    0  502  0.40120162934E+02 -0.30101732661E+02 -0.51046603778E+02  0.71564638896E+02  0.00000000000E+00 0.  1.
         -1    1    6    6    0  503  0.26801731478E+02  0.65960528575E+01  0.30892860099E+02  0.41427159312E+02  0.00000000000E+00 0.  1.
<mgrwt>
<rscale>  0 0.16169538E+04</rscale>
<asrwt>0</asrwt>
<pdfrwt beam="1">  1        1 0.13741757E+00 0.16169538E+04</pdfrwt>
<pdfrwt beam="2">  1       -1 0.11258130E+00 0.16169538E+04</pdfrwt>
<totfact> 0.12759313E+01</totfact>
</mgrwt>
</event>
<event>
12    1  0.4672461E-008  0.2493882E+04  0.7818608E-02  0.8405168E-01
         -2   -1    0    0    0  501 -0.00000000000E+00  0.00000000000E+00  0.89060441318E+03  0.89060441318E+03  0.00000000000E+00 0.  1.
          2   -1    0    0  501    0  0.00000000000E+00 -0.00000000000E+00 -0.17458495789E+04  0.17458495789E+04  0.00000000000E+00 0. -1.
         23    2    1    2    0    0 -0.29146646927E+03 -0.66123140776E+03 -0.12493150863E+04  0.14462375446E+04  0.92925632777E+02 0.  0.
        254    2    1    2    0    0  0.29146646927E+03  0.66123140776E+03  0.39406992066E+03  0.11902164474E+04  0.85973508245E+03 0.  0.
         23    2    4    4    0    0  0.11296147825E+03 -0.17244394857E+03 -0.39450585561E+02  0.22937159596E+03  0.92508212421E+02 0.  0.
         23    2    4    4    0    0  0.17850499102E+03  0.83367535633E+03  0.43352050622E+03  0.96084485144E+03  0.91674247515E+02 0.  0.
         11    1    3    3    0    0 -0.10375428797E+03 -0.19041148728E+03 -0.45420466342E+03  0.50331239110E+03  0.00000000000E+00 0. -1.
        -11    1    3    3    0    0 -0.18771218130E+03 -0.47081992048E+03 -0.79511042292E+03  0.94292515353E+03  0.00000000000E+00 0.  1.
          2    1    5    5  502    0  0.33726749932E+02 -0.15638873630E+02  0.22059009883E+02  0.43228092098E+02  0.00000000000E+00 0. -1.
          4    1    6    6  503    0  0.10514819220E+03  0.28296725381E+03  0.15718093007E+03  0.34034167219E+03  0.00000000000E+00 0. -1.
         -2    1    5    5    0  502  0.79234728319E+02 -0.15680507494E+03 -0.61509595444E+02  0.18614350387E+03  0.00000000000E+00 0.  1.
         -4    1    6    6    0  503  0.73356798819E+02  0.55070810252E+03  0.27633957615E+03  0.62050317925E+03  0.00000000000E+00 0.  1.
<mgrwt>
<rscale>  0 0.24938816E+04</rscale>
<asrwt>0</asrwt>
<pdfrwt beam="1">  1        2 0.26859224E+00 0.24938816E+04</pdfrwt>
<pdfrwt beam="2">  1       -2 0.13701607E+00 0.24938816E+04</pdfrwt>
<totfact> 0.31344585E+00</totfact>
</mgrwt>
</event>
<event>
12    1  0.4672461E-008  0.1533076E+04  0.7818608E-02  0.8862751E-01
         -2   -1    0    0    0  501 -0.00000000000E+00  0.00000000000E+00  0.54497160200E+03  0.54497160200E+03  0.00000000000E+00 0.  1.
          2   -1    0    0  501    0  0.00000000000E+00 -0.00000000000E+00 -0.10781857419E+04  0.10781857419E+04  0.00000000000E+00 0. -1.
         23    2    1    2    0    0  0.24014804419E+03  0.33402205969E+03 -0.30643767859E+02  0.42260912345E+03  0.91747540744E+02 0.  0.
        254    2    1    2    0    0 -0.24014804419E+03 -0.33402205969E+03 -0.50257037203E+03  0.12005482204E+04  0.10097015555E+04 0.  0.
         23    2    4    4    0    0  0.36807996206E+03 -0.23783650135E+03 -0.10090175516E+03  0.45927440971E+03  0.93288581167E+02 0.  0.
         23    2    4    4    0    0 -0.60822800625E+03 -0.96185558334E+02 -0.40166861687E+03  0.74127381073E+03  0.94637283782E+02 0.  0.
         11    1    3    3    0    0  0.49935340218E+02  0.39519075155E+02  0.23469188690E+02  0.67868242364E+02  0.00000000000E+00 0.  1.
        -11    1    3    3    0    0  0.19021270397E+03  0.29450298453E+03 -0.54112956549E+02  0.35474088109E+03  0.00000000000E+00 0. -1.
          1    1    5    5  502    0  0.18549068719E+03 -0.15248905854E+03 -0.16268781877E+02  0.24067484553E+03  0.00000000000E+00 0. -1.
          3    1    6    6  503    0  0.92484955733E+00 -0.63590772203E+01 -0.87217077227E+01  0.10833346454E+02  0.00000000000E+00 0. -1.
         -1    1    5    5    0  502  0.18258927487E+03 -0.85347442815E+02 -0.84632973288E+02  0.21859956418E+03  0.00000000000E+00 0.  1.
         -3    1    6    6    0  503 -0.60915285581E+03 -0.89826481114E+02 -0.39294690914E+03  0.73044046428E+03  0.00000000000E+00 0.  1.
<mgrwt>
<rscale>  0 0.15330761E+04</rscale>
<asrwt>0</asrwt>
<pdfrwt beam="1">  1        2 0.16587473E+00 0.15330761E+04</pdfrwt>
<pdfrwt beam="2">  1       -2 0.83841785E-01 0.15330761E+04</pdfrwt>
<totfact> 0.26934410E+01</totfact>
</mgrwt>
</event>
<event>
12    1  0.5280811E-008  0.1583448E+04  0.7818608E-02  0.8830782E-01
         -2   -1    0    0    0  501 -0.00000000000E+00  0.00000000000E+00  0.43697356740E+03  0.43697356740E+03  0.00000000000E+00 0.  1.
          2   -1    0    0  501    0  0.00000000000E+00 -0.00000000000E+00 -0.14344724988E+04  0.14344724988E+04  0.00000000000E+00 0. -1.
         23    2    1    2    0    0 -0.46393078334E+03 -0.12215957249E+03 -0.59318456563E+03  0.76825314013E+03  0.90499864840E+02 0.  0.
        254    2    1    2    0    0  0.46393078334E+03  0.12215957249E+03 -0.40431436573E+03  0.11031929260E+04  0.90741930376E+03 0.  0.
         23    2    4    4    0    0  0.56307479229E+03 -0.13943495675E+03  0.19797869183E+02  0.58745213004E+03  0.90624061892E+02 0.  0.
         23    2    4    4    0    0 -0.99144008952E+02  0.26159452924E+03 -0.42411223492E+03  0.51574079599E+03  0.88634917548E+02 0.  0.
         13    1    3    3    0    0 -0.29895011189E+02 -0.32511627836E+02 -0.41603300223E+02  0.60675796064E+02  0.00000000000E+00 0.  1.
        -13    1    3    3    0    0 -0.43403577215E+03 -0.89647944652E+02 -0.55158126541E+03  0.70757734407E+03  0.00000000000E+00 0. -1.
          1    1    6    6  502    0 -0.19739345542E+02  0.81824768657E+01 -0.69522271312E+02  0.72731979888E+02  0.00000000000E+00 0. -1.
          1    1    5    5  503    0  0.79678265843E+02  0.10065642333E+02  0.13420599951E+02  0.81425154015E+02  0.00000000000E+00 0. -1.
         -1    1    5    5    0  503  0.48339652645E+03 -0.14950059908E+03  0.63772692316E+01  0.50602697603E+03  0.00000000000E+00 0.  1.
         -1    1    6    6    0  502 -0.79404663410E+02  0.25341205237E+03 -0.35458996361E+03  0.44300881611E+03  0.00000000000E+00 0.  1.
<mgrwt>
<rscale>  0 0.15834476E+04</rscale>
<asrwt>0</asrwt>
<pdfrwt beam="1">  1        2 0.22068808E+00 0.15834476E+04</pdfrwt>
<pdfrwt beam="2">  1       -2 0.67226703E-01 0.15834476E+04</pdfrwt>
<totfact> 0.26951172E+01</totfact>
</mgrwt>
</event>
<event>
12    1  0.4672461E-008  0.3353554E+04  0.7818608E-02  0.8149401E-01
         -1   -1    0    0    0  501 -0.00000000000E+00  0.00000000000E+00  0.17379780726E+04  0.17379780726E+04  0.00000000000E+00 0.  1.
          1   -1    0    0  501    0  0.00000000000E+00 -0.00000000000E+00 -0.16177313208E+04  0.16177313208E+04  0.00000000000E+00 0. -1.
         23    2    1    2    0    0  0.56096683976E+03 -0.14453939938E+04  0.13328012286E+02  0.15530838057E+04  0.89688789830E+02 0.  0.
        254    2    1    2    0    0 -0.56096683976E+03  0.14453939938E+04  0.10691873946E+03  0.18026255877E+04  0.91333444034E+03 0.  0.
         23    2    4    4    0    0  0.14973774991E+03  0.78254178012E+02  0.16814799757E+03  0.25790057371E+03  0.98457334454E+02 0.  0.
         23    2    4    4    0    0 -0.71070458968E+03  0.13671398158E+04 -0.61229258114E+02  0.15447250140E+04  0.90851841160E+02 0.  0.
         13    1    3    3    0    0  0.23769018840E+03 -0.70840839437E+03 -0.21911905959E+02  0.74754211287E+03  0.00000000000E+00 0. -1.
        -13    1    3    3    0    0  0.32327665136E+03 -0.73698559944E+03  0.35239918245E+02  0.80554169286E+03  0.00000000000E+00 0.  1.
          2    1    5    5  502    0  0.37718388104E+01  0.55618239692E+01  0.64136268168E+02  0.64487375108E+02  0.00000000000E+00 0.  1.
          1    1    6    6  503    0 -0.69725730248E+03  0.13354293250E+04 -0.73157122021E+02  0.15082742432E+04  0.00000000000E+00 0. -1.
         -2    1    5    5    0  502  0.14596591110E+03  0.72692354043E+02  0.10401172941E+03  0.19341319861E+03  0.00000000000E+00 0. -1.
         -1    1    6    6    0  503 -0.13447287202E+02  0.31710490759E+02  0.11927863906E+02  0.36450770837E+02  0.00000000000E+00 0.  1.
<mgrwt>
<rscale>  0 0.33535543E+04</rscale>
<asrwt>0</asrwt>
<pdfrwt beam="1">  1        1 0.24888174E+00 0.33535543E+04</pdfrwt>
<pdfrwt beam="2">  1       -1 0.26738124E+00 0.33535543E+04</pdfrwt>
<totfact> 0.24077468E-01</totfact>
</mgrwt>
</event>
<event>
12    1  0.4672461E-008  0.2436912E+04  0.7818608E-02  0.8425812E-01
          2   -1    0    0  501    0  0.00000000000E+00  0.00000000000E+00  0.22072457890E+04  0.22072457890E+04  0.00000000000E+00 0. -1.
         -2   -1    0    0    0  501 -0.00000000000E+00 -0.00000000000E+00 -0.67261904436E+03  0.67261904436E+03  0.00000000000E+00 0.  1.
         23    2    1    2    0    0  0.81092900142E+02 -0.49025525651E+03 -0.41879271476E+03  0.65591359237E+03  0.88932714668E+02 0.  0.
        254    2    1    2    0    0 -0.81092900142E+02  0.49025525651E+03  0.19534194594E+04  0.22239512410E+04  0.93977936930E+03 0.  0.
         23    2    4    4    0    0  0.31920796091E+03 -0.11846531630E+02  0.30059383241E+03  0.44834095730E+03  0.92838027181E+02 0.  0.
         23    2    4    4    0    0 -0.40030086105E+03  0.50210178814E+03  0.16528256270E+04  0.17756102837E+04  0.92802700991E+02 0.  0.
         13    1    3    3    0    0  0.48681279364E+01 -0.15258518997E+03 -0.83585866932E+02  0.17404751081E+03  0.00000000000E+00 0. -1.
        -13    1    3    3    0    0  0.76224772205E+02 -0.33767006654E+03 -0.33520684782E+03  0.48186608157E+03  0.00000000000E+00 0.  1.
          1    1    5    5  502    0  0.15777299699E+03  0.24457684917E+02  0.19512420465E+03  0.25211892465E+03  0.00000000000E+00 0. -1.
          3    1    6    6  503    0 -0.36201807140E+03  0.39925219093E+03  0.13597881806E+04  0.14626972660E+04  0.00000000000E+00 0. -1.
         -1    1    5    5    0  502  0.16143496392E+03 -0.36304216547E+02  0.10546962777E+03  0.19622203265E+03  0.00000000000E+00 0.  1.
         -3    1    6    6    0  503 -0.38282789646E+02  0.10284959721E+03  0.29303744637E+03  0.31291301763E+03  0.00000000000E+00 0.  1.
<mgrwt>
<rscale>  0 0.24369124E+04</rscale>
<asrwt>0</asrwt>
<pdfrwt beam="1">  1        2 0.33957627E+00 0.24369124E+04</pdfrwt>
<pdfrwt beam="2">  1       -2 0.10347985E+00 0.24369124E+04</pdfrwt>
<totfact> 0.34907868E+00</totfact>
</mgrwt>
</event>
<event>
12    1  0.4672461E-008  0.2952263E+04  0.7818608E-02  0.8257495E-01
          2   -1    0    0  501    0  0.00000000000E+00  0.00000000000E+00  0.80464936478E+03  0.80464936478E+03  0.00000000000E+00 0. -1.
         -2   -1    0    0    0  501 -0.00000000000E+00 -0.00000000000E+00 -0.27079682300E+04  0.27079682300E+04  0.00000000000E+00 0.  1.
         23    2    1    2    0    0  0.10206074737E+04 -0.33830253867E+03  0.78963125155E+02  0.10819845754E+04  0.91472527968E+02 0.  0.
        254    2    1    2    0    0 -0.10206074737E+04  0.33830253867E+03 -0.19822819904E+04  0.24306330194E+04  0.90688850605E+03 0.  0.
         23    2    4    4    0    0 -0.89517077427E+03  0.55606997319E+03 -0.18523375893E+04  0.21331245654E+04  0.92311085640E+02 0.  0.
         23    2    4    4    0    0 -0.12543669939E+03 -0.21776743452E+03 -0.12994440110E+03  0.29750845397E+03  0.92025603596E+02 0.  0.
         11    1    3    3    0    0  0.30916225367E+03 -0.14549631410E+03  0.36954724624E+02  0.34368027028E+03  0.00000000000E+00 0. -1.
        -11    1    3    3    0    0  0.71144521999E+03 -0.19280622457E+03  0.42008400531E+02  0.73830430515E+03  0.00000000000E+00 0.  1.
          4    1    5    5  502    0 -0.33762662630E+03  0.15813881939E+03 -0.66252852729E+03  0.76022606799E+03  0.00000000000E+00 0. -1.
          4    1    6    6  503    0 -0.12944236229E+03 -0.17528065771E+03 -0.13204205150E+03  0.25478174481E+03  0.00000000000E+00 0.  1.
         -4    1    5    5    0  502 -0.55754414797E+03  0.39793115381E+03 -0.11898090620E+04  0.13728984974E+04  0.00000000000E+00 0.  1.
         -4    1    6    6    0  503  0.40056628992E+01 -0.42486776813E+02  0.20976504009E+01  0.42726709169E+02  0.00000000000E+00 0. -1.
<mgrwt>
<rscale>  0 0.29522635E+04</rscale>
<asrwt>0</asrwt>
<pdfrwt beam="1">  1        2 0.12379221E+00 0.29522635E+04</pdfrwt>
<pdfrwt beam="2">  1       -2 0.41661050E+00 0.29522635E+04</pdfrwt>
<totfact> 0.16942559E-01</totfact>
</mgrwt>
</event>
<event>
12    1  0.4672461E-008  0.2022575E+04  0.7818608E-02  0.8596138E-01
         -1   -1    0    0    0  501 -0.00000000000E+00  0.00000000000E+00  0.12854229954E+04  0.12854229954E+04  0.00000000000E+00 0.  1.
          1   -1    0    0  501    0  0.00000000000E+00 -0.00000000000E+00 -0.79561538433E+03  0.79561538433E+03  0.00000000000E+00 0. -1.
         23    2    1    2    0    0  0.37855972321E+03 -0.66120242140E+03  0.61058666927E+02  0.77425211692E+03  0.12345879328E+03 0.  0.
        254    2    1    2    0    0 -0.37855972321E+03  0.66120242140E+03  0.42874894418E+03  0.13067862629E+04  0.97127162707E+03 0.  0.
         23    2    4    4    0    0  0.16220861421E+03 -0.94070853993E+02 -0.10297466214E+03  0.23252884578E+03  0.91131350138E+02 0.  0.
         23    2    4    4    0    0 -0.54076833743E+03  0.75527327539E+03  0.53172360632E+03  0.10742574171E+04  0.91819874498E+02 0.  0.
         13    1    3    3    0    0  0.23725356446E+03 -0.47716178713E+03  0.89950751526E+02  0.54042923926E+03  0.00000000000E+00 0. -1.
        -13    1    3    3    0    0  0.14130615875E+03 -0.18404063427E+03 -0.28892084599E+02  0.23382287766E+03  0.00000000000E+00 0.  1.
          1    1    5    5  502    0  0.10635653635E+03 -0.28064599476E+02 -0.95625247977E+02  0.14575157844E+03  0.00000000000E+00 0. -1.
          1    1    6    6  503    0 -0.95424114256E+02  0.13680572168E+03  0.13774588439E+03  0.21632266578E+03  0.00000000000E+00 0. -1.
         -1    1    5    5    0  502  0.55852077865E+02 -0.66006254517E+02 -0.73494141668E+01  0.86777267333E+02  0.00000000000E+00 0.  1.
         -1    1    6    6    0  503 -0.44534422317E+03  0.61846755371E+03  0.39397772194E+03  0.85793475130E+03  0.00000000000E+00 0.  1.
<mgrwt>
<rscale>  0 0.20225749E+04</rscale>
<asrwt>0</asrwt>
<pdfrwt beam="1">  1        1 0.12240237E+00 0.20225749E+04</pdfrwt>
<pdfrwt beam="2">  1       -1 0.19775738E+00 0.20225749E+04</pdfrwt>
<totfact> 0.32208785E+00</totfact>
</mgrwt>
</event>
<event>
12    1  0.4672461E-008  0.1629164E+04  0.7818608E-02  0.8802829E-01
          2   -1    0    0  501    0  0.00000000000E+00  0.00000000000E+00  0.18849864732E+04  0.18849864732E+04  0.00000000000E+00 0. -1.
         -2   -1    0    0    0  501 -0.00000000000E+00 -0.00000000000E+00 -0.35201532714E+03  0.35201532714E+03  0.00000000000E+00 0.  1.
         23    2    1    2    0    0 -0.25551964285E+03 -0.19374550935E+03  0.11565150752E+04  0.12036564050E+04  0.91836876494E+02 0.  0.
        254    2    1    2    0    0  0.25551964285E+03  0.19374550935E+03  0.37645607083E+03  0.10333453953E+04  0.90733451519E+03 0.  0.
         23    2    4    4    0    0  0.49668608136E+03  0.36320021552E+03  0.12310468316E+03  0.63402739548E+03  0.90689113148E+02 0.  0.
         23    2    4    4    0    0 -0.24116643851E+03 -0.16945470616E+03  0.25335138767E+03  0.39931799982E+03  0.91606718319E+02 0.  0.
         11    1    3    3    0    0 -0.22698974339E+03 -0.18477301910E+03  0.92457416269E+03  0.96979523328E+03  0.00000000000E+00 0. -1.
        -11    1    3    3    0    0 -0.28529899458E+02 -0.89724902531E+01  0.23194091251E+03  0.23386117173E+03  0.00000000000E+00 0.  1.
          3    1    5    5  502    0  0.24994677560E+02  0.33459103653E+02 -0.10796190882E+02  0.43137028886E+02  0.00000000000E+00 0. -1.
          3    1    6    6  503    0 -0.16076299654E+03 -0.13634603906E+03  0.22389056889E+03  0.30750930110E+03  0.00000000000E+00 0. -1.
         -3    1    5    5    0  502  0.47169140380E+03  0.32974111186E+03  0.13390087404E+03  0.59089036660E+03  0.00000000000E+00 0.  1.
         -3    1    6    6    0  503 -0.80403441968E+02 -0.33108667104E+02  0.29460818780E+02  0.91808698722E+02  0.00000000000E+00 0.  1.
<mgrwt>
<rscale>  0 0.16291644E+04</rscale>
<asrwt>0</asrwt>
<pdfrwt beam="1">  1        2 0.28999791E+00 0.16291644E+04</pdfrwt>
<pdfrwt beam="2">  1       -2 0.54156205E-01 0.16291644E+04</pdfrwt>
<totfact> 0.23777765E+01</totfact>
</mgrwt>
</event>
<event>
12    1  0.4672461E-008  0.1542558E+04  0.7818608E-02  0.8856635E-01
          2   -1    0    0  501    0  0.00000000000E+00  0.00000000000E+00  0.11984687877E+04  0.11984687877E+04  0.00000000000E+00 0. -1.
         -2   -1    0    0    0  501 -0.00000000000E+00 -0.00000000000E+00 -0.49635959625E+03  0.49635959625E+03  0.00000000000E+00 0.  1.
         23    2    1    2    0    0 -0.12219168597E+03 -0.14726223810E+03  0.73651685657E+03  0.76639950394E+03  0.91072195172E+02 0.  0.
        254    2    1    2    0    0  0.12219168597E+03  0.14726223810E+03 -0.34407665079E+02  0.92842888005E+03  0.90784322601E+03 0.  0.
         23    2    4    4    0    0 -0.28324248329E+03  0.27538664143E+03 -0.21373916084E+03  0.45804771348E+03  0.89772893039E+02 0.  0.
         23    2    4    4    0    0  0.40543416926E+03 -0.12812440333E+03  0.17933149576E+03  0.47038116658E+03  0.91136865020E+02 0.  0.
         11    1    3    3    0    0 -0.30354091400E+02 -0.58645360260E+02  0.12154528042E+03  0.13832535681E+03  0.00000000000E+00 0.  1.
        -11    1    3    3    0    0 -0.91837594570E+02 -0.88616877840E+02  0.61497157616E+03  0.62807414713E+03  0.00000000000E+00 0. -1.
          2    1    5    5  502    0 -0.51618962688E+02  0.12244279309E+02 -0.15277263675E+02  0.55207195819E+02  0.00000000000E+00 0. -1.
          1    1    6    6  503    0  0.96753609858E+02 -0.40464871537E+02  0.87583167239E+02  0.13663629837E+03  0.00000000000E+00 0. -1.
         -2    1    5    5    0  502 -0.23162352060E+03  0.26314236213E+03 -0.19846189717E+03  0.40284051766E+03  0.00000000000E+00 0.  1.
         -1    1    6    6    0  503  0.30868055940E+03 -0.87659531797E+02  0.91748328524E+02  0.33374486820E+03  0.00000000000E+00 0.  1.
<mgrwt>
<rscale>  0 0.15425582E+04</rscale>
<asrwt>0</asrwt>
<pdfrwt beam="1">  1        2 0.18437981E+00 0.15425582E+04</pdfrwt>
<pdfrwt beam="2">  1       -2 0.76363015E-01 0.15425582E+04</pdfrwt>
<totfact> 0.28048098E+01</totfact>
</mgrwt>
</event>
<event>
12    1  0.4672461E-008  0.2266588E+04  0.7818608E-02  0.8491213E-01
         -1   -1    0    0    0  501 -0.00000000000E+00  0.00000000000E+00  0.12738366959E+04  0.12738366959E+04  0.00000000000E+00 0.  1.
          1   -1    0    0  501    0  0.00000000000E+00 -0.00000000000E+00 -0.10082571072E+04  0.10082571072E+04  0.00000000000E+00 0. -1.
         23    2    1    2    0    0  0.24696305806E+03  0.76899205239E+03 -0.39050480767E+03  0.90397377906E+03  0.11106331411E+03 0.  0.
        254    2    1    2    0    0 -0.24696305806E+03 -0.76899205239E+03  0.65608439642E+03  0.13781200240E+04  0.90356435119E+03 0.  0.
         23    2    4    4    0    0  0.21117148012E+03  0.78011703494E+02  0.97095359076E+02  0.26094305386E+03  0.89356301998E+02 0.  0.
         23    2    4    4    0    0 -0.45813453818E+03 -0.84700375588E+03  0.55898903734E+03  0.11171769702E+04  0.91175771345E+02 0.  0.
         13    1    3    3    0    0  0.10592660536E+03  0.44132529450E+03 -0.17033617494E+03  0.48477094981E+03  0.00000000000E+00 0. -1.
        -13    1    3    3    0    0  0.14103645270E+03  0.32766675788E+03 -0.22016863273E+03  0.41920282925E+03  0.00000000000E+00 0.  1.
          2    1    5    5  502    0  0.21161587286E+03  0.56239504253E+02  0.96160114115E+02  0.23914624611E+03  0.00000000000E+00 0. -1.
          1    1    6    6  503    0 -0.40246206451E+03 -0.77674936734E+03  0.53056523349E+03  0.10231396581E+04  0.00000000000E+00 0. -1.
         -2    1    5    5    0  502 -0.44439274239E+00  0.21772199241E+02  0.93524496131E+00  0.21796807744E+02  0.00000000000E+00 0.  1.
         -1    1    6    6    0  503 -0.55672473666E+02 -0.70254388539E+02  0.28423803853E+02  0.94037312055E+02  0.00000000000E+00 0.  1.
<mgrwt>
<rscale>  0 0.22665877E+04</rscale>
<asrwt>0</asrwt>
<pdfrwt beam="1">  1        1 0.15511648E+00 0.22665877E+04</pdfrwt>
<pdfrwt beam="2">  1       -1 0.19597488E+00 0.22665877E+04</pdfrwt>
<totfact> 0.21687901E+00</totfact>
</mgrwt>
</event>
<event>
12    1  0.4672461E-008  0.2639025E+04  0.7818608E-02  0.8355065E-01
         -2   -1    0    0    0  501 -0.00000000000E+00  0.00000000000E+00  0.43973848655E+03  0.43973848655E+03  0.00000000000E+00 0.  1.
          2   -1    0    0  501    0  0.00000000000E+00 -0.00000000000E+00 -0.39594286773E+04  0.39594286773E+04  0.00000000000E+00 0. -1.
         23    2    1    2    0    0 -0.92521235783E+03  0.81993374431E+02 -0.27377237269E+04  0.28925686910E+04  0.95297464371E+02 0.  0.
        254    2    1    2    0    0  0.92521235783E+03 -0.81993374431E+02 -0.78196646383E+03  0.15065984729E+04  0.89197902851E+03 0.  0.
         23    2    4    4    0    0  0.94952654239E+03 -0.25200216642E+03 -0.37482699617E+03  0.10552802486E+04  0.89528652087E+02 0.  0.
         23    2    4    4    0    0 -0.24314184560E+02  0.17000879199E+03 -0.40713946767E+03  0.45131822421E+03  0.91822788256E+02 0.  0.
         11    1    3    3    0    0 -0.58379608567E+02  0.19604261310E+02 -0.24762469473E+03  0.25516758257E+03  0.00000000000E+00 0.  1.
        -11    1    3    3    0    0 -0.86683274926E+03  0.62389113121E+02 -0.24900990322E+04  0.26374011084E+04  0.00000000000E+00 0. -1.
          1    1    5    5  502    0  0.18375643097E+03 -0.34919072945E+02 -0.37306845511E+02  0.19072904420E+03  0.00000000000E+00 0. -1.
          3    1    6    6  503    0 -0.18070442362E+02  0.69040358447E+02 -0.27941694983E+03  0.28838679553E+03  0.00000000000E+00 0. -1.
         -1    1    5    5    0  502  0.76577011142E+03 -0.21708309347E+03 -0.33752015066E+03  0.86455120445E+03  0.00000000000E+00 0.  1.
         -3    1    6    6    0  503 -0.62437421979E+01  0.10096843354E+03 -0.12772251783E+03  0.16293142867E+03  0.00000000000E+00 0.  1.
<mgrwt>
<rscale>  0 0.26390250E+04</rscale>
<asrwt>0</asrwt>
<pdfrwt beam="1">  1        2 0.60914287E+00 0.26390250E+04</pdfrwt>
<pdfrwt beam="2">  1       -2 0.67652075E-01 0.26390250E+04</pdfrwt>
<totfact> 0.65241025E-01</totfact>
</mgrwt>
</event>
<event>
12    1  0.4672461E-008  0.1086463E+04  0.7818608E-02  0.9218488E-01
         -1   -1    0    0    0  501 -0.00000000000E+00  0.00000000000E+00  0.26322578315E+03  0.26322578315E+03  0.00000000000E+00 0.  1.
          1   -1    0    0  501    0  0.00000000000E+00 -0.00000000000E+00 -0.11210916104E+04  0.11210916104E+04  0.00000000000E+00 0. -1.
         23    2    1    2    0    0  0.24755248868E+02 -0.10439780415E+03 -0.82278006615E+02  0.16263325387E+03  0.90377989771E+02 0.  0.
        254    2    1    2    0    0 -0.24755248868E+02  0.10439780415E+03 -0.77558782068E+03  0.12216841397E+04  0.93779739058E+03 0.  0.
         23    2    4    4    0    0 -0.45874513308E+03  0.13255660354E+03 -0.50759106005E+03  0.70297897165E+03  0.92262668868E+02 0.  0.
         23    2    4    4    0    0  0.43398988421E+03 -0.28158799388E+02 -0.26799676062E+03  0.51870516807E+03  0.89959157927E+02 0.  0.
         13    1    3    3    0    0 -0.49297117026E+01  0.91985300213E+01 -0.34205415027E+02  0.35762066903E+02  0.00000000000E+00 0. -1.
        -13    1    3    3    0    0  0.29684960571E+02 -0.11359633417E+03 -0.48072591587E+02  0.12687118697E+03  0.00000000000E+00 0.  1.
          2    1    5    5  502    0 -0.46175422597E+03  0.12874905568E+03 -0.49314380446E+03  0.68773839243E+03  0.00000000000E+00 0. -1.
          4    1    6    6  503    0  0.43051168082E+03 -0.39393930022E+02 -0.25979461738E+03  0.50436636711E+03  0.00000000000E+00 0. -1.
         -2    1    5    5    0  502  0.30090928954E+01  0.38075478539E+01 -0.14447255591E+02  0.15240579216E+02  0.00000000000E+00 0.  1.
         -4    1    6    6    0  503  0.34782033832E+01  0.11235130634E+02 -0.82021432402E+01  0.14338800956E+02  0.00000000000E+00 0.  1.
<mgrwt>
<rscale>  0 0.10864625E+04</rscale>
<asrwt>0</asrwt>
<pdfrwt beam="1">  1        1 0.17247563E+00 0.10864625E+04</pdfrwt>
<pdfrwt beam="2">  1       -1 0.40496274E-01 0.10864625E+04</pdfrwt>
<totfact> 0.72544800E+01</totfact>
</mgrwt>
</event>
<event>
12    1  0.4672461E-008  0.1756016E+04  0.7818608E-02  0.8730046E-01
         -2   -1    0    0    0  501 -0.00000000000E+00  0.00000000000E+00  0.58063145240E+03  0.58063145240E+03  0.00000000000E+00 0.  1.
          2   -1    0    0  501    0  0.00000000000E+00 -0.00000000000E+00 -0.13276884519E+04  0.13276884519E+04  0.00000000000E+00 0. -1.
         23    2    1    2    0    0  0.28246253754E+03  0.19388643498E+03  0.31788512947E+03  0.47606409883E+03  0.90603729935E+02 0.  0.
        254    2    1    2    0    0 -0.28246253754E+03 -0.19388643498E+03 -0.10649421289E+04  0.14322558054E+04  0.89435894329E+03 0.  0.
         23    2    4    4    0    0 -0.48656115440E+02 -0.50600329140E+03 -0.79913472708E+03  0.95140841705E+03  0.90304570900E+02 0.  0.
         23    2    4    4    0    0 -0.23380642210E+03  0.31211685642E+03 -0.26580740185E+03  0.48084738838E+03  0.92077472615E+02 0.  0.
         11    1    3    3    0    0  0.47159775467E+02  0.49488957069E+02  0.23028632111E+02  0.72135422580E+02  0.00000000000E+00 0. -1.
        -11    1    3    3    0    0  0.23530276207E+03  0.14439747792E+03  0.29485649736E+03  0.40392867625E+03  0.00000000000E+00 0.  1.
          2    1    5    5  502    0 -0.40355730373E+02 -0.48228959807E+03 -0.71344332176E+03  0.86210974635E+03  0.00000000000E+00 0. -1.
          4    1    6    6  503    0 -0.18227650218E+03  0.29382205844E+03 -0.22355424976E+03  0.41174340050E+03  0.00000000000E+00 0. -1.
         -2    1    5    5    0  502 -0.83003850663E+01 -0.23713693334E+02 -0.85691405314E+02  0.89298670698E+02  0.00000000000E+00 0.  1.
         -4    1    6    6    0  503 -0.51529919916E+02  0.18294797984E+02 -0.42253152087E+02  0.69103987881E+02  0.00000000000E+00 0.  1.
<mgrwt>
<rscale>  0 0.17560156E+04</rscale>
<asrwt>0</asrwt>
<pdfrwt beam="1">  1        2 0.20425976E+00 0.17560156E+04</pdfrwt>
<pdfrwt beam="2">  1       -2 0.89327915E-01 0.17560156E+04</pdfrwt>
<totfact> 0.16227993E+01</totfact>
</mgrwt>
</event>
<event>
12    1  0.4672461E-008  0.2350502E+04  0.7818608E-02  0.8458271E-01
         -2   -1    0    0    0  501 -0.00000000000E+00  0.00000000000E+00  0.54899704062E+03  0.54899704062E+03  0.00000000000E+00 0.  1.
          2   -1    0    0  501    0  0.00000000000E+00 -0.00000000000E+00 -0.25158876098E+04  0.25158876098E+04  0.00000000000E+00 0. -1.
         23    2    1    2    0    0 -0.45286819322E+03  0.21280268956E+03 -0.19716987731E+04  0.20365343594E+04  0.97475945217E+02 0.  0.
        254    2    1    2    0    0  0.45286819322E+03 -0.21280268956E+03  0.48082039080E+01  0.10283502911E+04  0.89839112707E+03 0.  0.
         23    2    4    4    0    0  0.25219704756E+03  0.24449615875E+03 -0.26840657666E+03  0.45146977169E+03  0.91657743355E+02 0.  0.
         23    2    4    4    0    0  0.20067114566E+03 -0.45729884830E+03  0.27321478057E+03  0.57688051937E+03  0.93561059989E+02 0.  0.
         11    1    3    3    0    0 -0.31764700534E+03  0.12406689336E+03 -0.14855005302E+04  0.15241404264E+04  0.00000000000E+00 0. -1.
        -11    1    3    3    0    0 -0.13522118789E+03  0.88735796198E+02 -0.48619824287E+03  0.51239393298E+03  0.00000000000E+00 0.  1.
          1    1    5    5  502    0  0.13871722128E+03  0.78277167507E+02 -0.14494272830E+03  0.21535593077E+03  0.00000000000E+00 0. -1.
          1    1    6    6  503    0  0.18108249756E+03 -0.38433010543E+03  0.19283848911E+03  0.46656959153E+03  0.00000000000E+00 0. -1.
         -1    1    5    5    0  502  0.11347982629E+03  0.16621899124E+03 -0.12346384836E+03  0.23611384092E+03  0.00000000000E+00 0.  1.
         -1    1    6    6    0  503  0.19588648098E+02 -0.72968742874E+02  0.80376291461E+02  0.11031092784E+03  0.00000000000E+00 0.  1.
<mgrwt>
<rscale>  0 0.23505019E+04</rscale>
<asrwt>0</asrwt>
<pdfrwt beam="1">  1        2 0.38705963E+00 0.23505019E+04</pdfrwt>
<pdfrwt beam="2">  1       -2 0.84461083E-01 0.23505019E+04</pdfrwt>
<totfact> 0.37613484E+00</totfact>
</mgrwt>
</event>
<event>
12    1  0.4672461E-008  0.1360025E+04  0.7818608E-02  0.8983274E-01
          2   -1    0    0  501    0  0.00000000000E+00  0.00000000000E+00  0.14287752345E+04  0.14287752345E+04  0.00000000000E+00 0. -1.
         -2   -1    0    0    0  501 -0.00000000000E+00 -0.00000000000E+00 -0.32364589750E+03  0.32364589750E+03  0.00000000000E+00 0.  1.
         23    2    1    2    0    0 -0.81145908103E+02 -0.20342476637E+03  0.69568823309E+03  0.73506244699E+03  0.91478901059E+02 0.  0.
        254    2    1    2    0    0  0.81145908103E+02  0.20342476637E+03  0.40944110394E+03  0.10173586851E+04  0.90521289346E+03 0.  0.
         23    2    4    4    0    0 -0.32759947681E+03  0.42142833639E+02 -0.81435038387E+02  0.35243152934E+03  0.92080843622E+02 0.  0.
         23    2    4    4    0    0  0.40874538491E+03  0.16128193273E+03  0.49087614233E+03  0.66492715572E+03  0.89911533134E+02 0.  0.
         11    1    3    3    0    0 -0.10416717653E+02 -0.13969217187E+03  0.46050202636E+03  0.48133618934E+03  0.00000000000E+00 0. -1.
        -11    1    3    3    0    0 -0.70729190450E+02 -0.63732594492E+02  0.23518620673E+03  0.25372625764E+03  0.00000000000E+00 0.  1.
          2    1    5    5  502    0 -0.16921415517E+01 -0.11569901756E+02  0.17260693132E+01  0.11819699021E+02  0.00000000000E+00 0. -1.
          1    1    6    6  503    0  0.12051552433E+02 -0.10107029242E+02  0.24580650975E+02  0.29182192489E+02  0.00000000000E+00 0. -1.
         -2    1    5    5    0  502 -0.32590733526E+03  0.53712735396E+02 -0.83161107700E+02  0.34061183032E+03  0.00000000000E+00 0.  1.
         -1    1    6    6    0  503  0.39669383248E+03  0.17138896197E+03  0.46629549135E+03  0.63574496323E+03  0.00000000000E+00 0.  1.
<mgrwt>
<rscale>  0 0.13600254E+04</rscale>
<asrwt>0</asrwt>
<pdfrwt beam="1">  1        2 0.21981157E+00 0.13600254E+04</pdfrwt>
<pdfrwt beam="2">  1       -2 0.49791678E-01 0.13600254E+04</pdfrwt>
<totfact> 0.51891245E+01</totfact>
</mgrwt>
</event>
<event>
12    1  0.4672461E-008  0.1371420E+04  0.7818608E-02  0.8974770E-01
         -2   -1    0    0    0  501 -0.00000000000E+00  0.00000000000E+00  0.58695643139E+03  0.58695643139E+03  0.00000000000E+00 0.  1.
          2   -1    0    0  501    0  0.00000000000E+00 -0.00000000000E+00 -0.80107859853E+03  0.80107859853E+03  0.00000000000E+00 0. -1.
         23    2    1    2    0    0 -0.14939279907E+03 -0.17788690282E+03  0.25549132259E+03  0.35727739299E+03  0.91702568215E+02 0.  0.
        254    2    1    2    0    0  0.14939279907E+03  0.17788690282E+03 -0.46961348972E+03  0.10307576369E+04  0.88767252844E+03 0.  0.
         23    2    4    4    0    0  0.29467196513E+03  0.41912702788E+03 -0.57941412043E+02  0.52372840284E+03  0.91843345866E+02 0.  0.
         23    2    4    4    0    0 -0.14527916606E+03 -0.24124012506E+03 -0.41167207768E+03  0.50702923409E+03  0.91114821230E+02 0.  0.
         11    1    3    3    0    0 -0.10324205294E+03 -0.14758141279E+03  0.23975055943E+03  0.29986584608E+03  0.00000000000E+00 0.  1.
        -11    1    3    3    0    0 -0.46150746128E+02 -0.30305490033E+02  0.15740763153E+02  0.57411546913E+02  0.00000000000E+00 0. -1.
          1    1    5    5  502    0  0.21935052896E+03  0.26219976627E+03 -0.71085180189E+02  0.34916539753E+03  0.00000000000E+00 0. -1.
          1    1    6    6  503    0 -0.99780137251E+02 -0.14520385143E+03 -0.17860647168E+03  0.25087946505E+03  0.00000000000E+00 0. -1.
         -1    1    5    5    0  502  0.75321436165E+02  0.15692726161E+03  0.13143768146E+02  0.17456300531E+03  0.00000000000E+00 0.  1.
         -1    1    6    6    0  503 -0.45499028805E+02 -0.96036273631E+02 -0.23306560600E+03  0.25614976903E+03  0.00000000000E+00 0.  1.
<mgrwt>
<rscale>  0 0.13714200E+04</rscale>
<asrwt>0</asrwt>
<pdfrwt beam="1">  1        2 0.12324286E+00 0.13714200E+04</pdfrwt>
<pdfrwt beam="2">  1       -2 0.90300990E-01 0.13714200E+04</pdfrwt>
<totfact> 0.35179498E+01</totfact>
</mgrwt>
</event>
<event>
12    1  0.4672461E-008  0.1870792E+04  0.7818608E-02  0.8669533E-01
         -2   -1    0    0    0  501 -0.00000000000E+00  0.00000000000E+00  0.33549510126E+03  0.33549510126E+03  0.00000000000E+00 0.  1.
          2   -1    0    0  501    0  0.00000000000E+00 -0.00000000000E+00 -0.26079847436E+04  0.26079847436E+04  0.00000000000E+00 0. -1.
         23    2    1    2    0    0 -0.56904624188E+03 -0.30134637134E+03 -0.13577589088E+04  0.15054538732E+04  0.90878208777E+02 0.  0.
        254    2    1    2    0    0  0.56904624188E+03  0.30134637134E+03 -0.91473073347E+03  0.14380259716E+04  0.90363882136E+03 0.  0.
         23    2    4    4    0    0  0.24858321476E+03 -0.22313891014E+03 -0.69969300112E+03  0.78054095059E+03  0.89940490636E+02 0.  0.
         23    2    4    4    0    0  0.32046302712E+03  0.52448528147E+03 -0.21503773235E+03  0.65748502106E+03  0.90906349327E+02 0.  0.
         11    1    3    3    0    0 -0.44158674374E+03 -0.26706296642E+03 -0.10280737032E+04  0.11503290918E+04  0.00000000000E+00 0. -1.
        -11    1    3    3    0    0 -0.12745949814E+03 -0.34283404913E+02 -0.32968520563E+03  0.35512478135E+03  0.00000000000E+00 0.  1.
          2    1    5    5  502    0  0.13857070291E+03 -0.16650679625E+03 -0.37501719629E+03  0.43308688553E+03  0.00000000000E+00 0. -1.
          3    1    6    6  503    0  0.24580431949E+03  0.38837494246E+03 -0.20086108711E+03  0.50159748378E+03  0.00000000000E+00 0. -1.
         -2    1    5    5    0  502  0.11001251185E+03 -0.56632113882E+02 -0.32467580483E+03  0.34745406506E+03  0.00000000000E+00 0.  1.
         -3    1    6    6    0  503  0.74658707633E+02  0.13611033901E+03 -0.14176645243E+02  0.15588753729E+03  0.00000000000E+00 0.  1.
<mgrwt>
<rscale>  0 0.18707925E+04</rscale>
<asrwt>0</asrwt>
<pdfrwt beam="1">  1        2 0.40122843E+00 0.18707925E+04</pdfrwt>
<pdfrwt beam="2">  1       -2 0.51614630E-01 0.18707925E+04</pdfrwt>
<totfact> 0.10033413E+01</totfact>
</mgrwt>
</event>
<event>
12    1  0.4672461E-008  0.1660928E+04  0.7818608E-02  0.8783968E-01
         -2   -1    0    0    0  501 -0.00000000000E+00  0.00000000000E+00  0.13364195599E+04  0.13364195599E+04  0.00000000000E+00 0.  1.
          2   -1    0    0  501    0  0.00000000000E+00 -0.00000000000E+00 -0.51605824356E+03  0.51605824356E+03  0.00000000000E+00 0. -1.
         23    2    1    2    0    0  0.34422548016E+03 -0.76761834468E+02 -0.22153006750E+03  0.42567540964E+03  0.87979674588E+02 0.  0.
        254    2    1    2    0    0 -0.34422548016E+03  0.76761834468E+02  0.10418913838E+04  0.14268023938E+04  0.90875951430E+03 0.  0.
         23    2    4    4    0    0  0.31062364544E+02  0.42729473277E+03  0.35321987960E+03  0.56261136605E+03  0.90673076010E+02 0.  0.
         23    2    4    4    0    0 -0.37528784471E+03 -0.35053289831E+03  0.68867150423E+03  0.86419102775E+03  0.94039420084E+02 0.  0.
         11    1    3    3    0    0  0.13629636862E+03 -0.42403234753E+02 -0.13931547837E+03  0.19945810821E+03  0.00000000000E+00 0.  1.
        -11    1    3    3    0    0  0.20792911154E+03 -0.34358599716E+02 -0.82214589133E+02  0.22621730143E+03  0.00000000000E+00 0. -1.
          2    1    5    5  502    0 -0.11536970395E+02  0.18439897637E+03  0.10405595951E+03  0.21204652056E+03  0.00000000000E+00 0. -1.
          1    1    6    6  503    0 -0.25371564254E+03 -0.20505298868E+03  0.36896715618E+03  0.49249885053E+03  0.00000000000E+00 0. -1.
         -2    1    5    5    0  502  0.42599334939E+02  0.24289575640E+03  0.24916392009E+03  0.35056484549E+03  0.00000000000E+00 0.  1.
         -1    1    6    6    0  503 -0.12157220217E+03 -0.14547990962E+03  0.31970434805E+03  0.37169217722E+03  0.00000000000E+00 0.  1.
<mgrwt>
<rscale>  0 0.16609279E+04</rscale>
<asrwt>0</asrwt>
<pdfrwt beam="1">  1        2 0.79393577E-01 0.16609279E+04</pdfrwt>
<pdfrwt beam="2">  1       -2 0.20560301E+00 0.16609279E+04</pdfrwt>
<totfact> 0.69185339E+00</totfact>
</mgrwt>
</event>
<event>
12    1  0.4672461E-008  0.2441420E+04  0.7818608E-02  0.8424157E-01
          1   -1    0    0  501    0  0.00000000000E+00  0.00000000000E+00  0.51725275534E+03  0.51725275534E+03  0.00000000000E+00 0. -1.
         -1   -1    0    0    0  501 -0.00000000000E+00 -0.00000000000E+00 -0.28808592014E+04  0.28808592014E+04  0.00000000000E+00 0.  1.
         23    2    1    2    0    0  0.34439419972E+03  0.53065900520E+03 -0.22087230715E+04  0.22993077367E+04  0.90289074684E+02 0.  0.
        254    2    1    2    0    0 -0.34439419972E+03 -0.53065900520E+03 -0.15488337460E+03  0.10988042200E+04  0.88497203890E+03 0.  0.
         23    2    4    4    0    0 -0.91333981030E+02  0.10978266463E+03 -0.34014147687E+03  0.37998449887E+03  0.91092620695E+02 0.  0.
         23    2    4    4    0    0 -0.25306021869E+03 -0.64044166983E+03  0.18525810228E+03  0.71881972117E+03  0.90422454829E+02 0.  0.
         13    1    3    3    0    0  0.29120398291E+03  0.47718885595E+03 -0.20239737769E+04  0.20997568463E+04  0.00000000000E+00 0.  1.
        -13    1    3    3    0    0  0.53190216814E+02  0.53470149256E+02 -0.18474929459E+03  0.19955089045E+03  0.00000000000E+00 0. -1.
          4    1    5    5  502    0 -0.13152512982E+02 -0.63311351301E+00 -0.12599308927E+03  0.12667931155E+03  0.00000000000E+00 0. -1.
          3    1    6    6  503    0 -0.11813040148E+03 -0.24897397450E+03  0.11601039175E+03  0.29900040589E+03  0.00000000000E+00 0. -1.
         -4    1    5    5    0  502 -0.78181468048E+02  0.11041577814E+03 -0.21414838760E+03  0.25330518732E+03  0.00000000000E+00 0.  1.
         -3    1    6    6    0  503 -0.13492981721E+03 -0.39146769534E+03  0.69247710531E+02  0.41981931528E+03  0.00000000000E+00 0.  1.
<mgrwt>
<rscale>  0 0.24414196E+04</rscale>
<asrwt>0</asrwt>
<pdfrwt beam="1">  1        1 0.79577348E-01 0.24414196E+04</pdfrwt>
<pdfrwt beam="2">  1       -1 0.44320910E+00 0.24414196E+04</pdfrwt>
<totfact> 0.13601478E-01</totfact>
</mgrwt>
</event>
<event>
12    1  0.4672461E-008  0.2302786E+04  0.7818608E-02  0.8476823E-01
          2   -1    0    0  501    0  0.00000000000E+00  0.00000000000E+00  0.24765587149E+04  0.24765587149E+04  0.00000000000E+00 0. -1.
         -2   -1    0    0    0  501 -0.00000000000E+00 -0.00000000000E+00 -0.53530153720E+03  0.53530153720E+03  0.00000000000E+00 0.  1.
         23    2    1    2    0    0  0.60623102700E+03  0.71368605019E+03  0.51222128775E+03  0.10712244951E+04  0.91035350293E+02 0.  0.
        254    2    1    2    0    0 -0.60623102700E+03 -0.71368605019E+03  0.14290358899E+04  0.19406357569E+04  0.92035847912E+03 0.  0.
         23    2    4    4    0    0 -0.64409410404E+02 -0.73473408457E+03  0.98494476605E+03  0.12340031413E+04  0.93084978877E+02 0.  0.
         23    2    4    4    0    0 -0.54182161660E+03  0.21048034386E+02  0.44409112387E+03  0.70663261567E+03  0.89994684697E+02 0.  0.
         11    1    3    3    0    0  0.42907158320E+02  0.46577304657E+02  0.62903996756E+02  0.89260194668E+02  0.00000000000E+00 0. -1.
        -11    1    3    3    0    0  0.56332386868E+03  0.66710874553E+03  0.44931729099E+03  0.98196430046E+03  0.00000000000E+00 0.  1.
          1    1    5    5  502    0 -0.47070229619E+02 -0.40576514297E+03  0.47003135290E+03  0.62272821557E+03  0.00000000000E+00 0. -1.
          3    1    6    6  503    0 -0.37019055154E+02  0.18838551553E+02  0.56834698879E+02  0.70395202009E+02  0.00000000000E+00 0. -1.
         -1    1    5    5    0  502 -0.17339180786E+02 -0.32896894161E+03  0.51491341316E+03  0.61127492569E+03  0.00000000000E+00 0.  1.
         -3    1    6    6    0  503 -0.50480256144E+03  0.22094828328E+01  0.38725642499E+03  0.63623741366E+03  0.00000000000E+00 0.  1.
<mgrwt>
<rscale>  0 0.23027859E+04</rscale>
<asrwt>0</asrwt>
<pdfrwt beam="1">  1        2 0.38100903E+00 0.23027859E+04</pdfrwt>
<pdfrwt beam="2">  1       -2 0.82354084E-01 0.23027859E+04</pdfrwt>
<totfact> 0.42146299E+00</totfact>
</mgrwt>
</event>
<event>
12    1  0.4672461E-008  0.1414431E+04  0.7818608E-02  0.8943438E-01
         -1   -1    0    0    0  501 -0.00000000000E+00  0.00000000000E+00  0.20450822992E+03  0.20450822992E+03  0.00000000000E+00 0.  1.
          1   -1    0    0  501    0  0.00000000000E+00 -0.00000000000E+00 -0.24456408949E+04  0.24456408949E+04  0.00000000000E+00 0. -1.
         23    2    1    2    0    0  0.14451799674E+03  0.63796113073E+02 -0.13858317418E+04  0.13977448063E+04  0.90584389069E+02 0.  0.
        254    2    1    2    0    0 -0.14451799674E+03 -0.63796113073E+02 -0.85530092317E+03  0.12524043185E+04  0.90112236263E+03 0.  0.
         23    2    4    4    0    0 -0.50355785517E+03 -0.60430692067E+02 -0.33820233879E+03  0.61630854614E+03  0.90735990804E+02 0.  0.
         23    2    4    4    0    0  0.35903985844E+03 -0.33654210061E+01 -0.51709858438E+03  0.63609577237E+03  0.91136928092E+02 0.  0.
         11    1    3    3    0    0 -0.10538013078E+02 -0.62917910335E-01 -0.18006895978E+03  0.18037706050E+03  0.00000000000E+00 0.  1.
        -11    1    3    3    0    0  0.15505600981E+03  0.63859030983E+02 -0.12057627820E+04  0.12173677458E+04  0.00000000000E+00 0. -1.
          2    1    6    6  502    0 -0.54960435794E+01 -0.46198778816E+00 -0.11759555358E+02  0.12988728574E+02  0.00000000000E+00 0. -1.
          2    1    5    5  503    0 -0.13226822944E+01 -0.98246271420E+01 -0.29527468192E+01  0.10343669596E+02  0.00000000000E+00 0. -1.
         -2    1    5    5    0  503 -0.50223517288E+03 -0.50606064925E+02 -0.33524959197E+03  0.60596487654E+03  0.00000000000E+00 0.  1.
         -2    1    6    6    0  502  0.36453590202E+03 -0.29034332180E+01 -0.50533902902E+03  0.62310704380E+03  0.00000000000E+00 0.  1.
<mgrwt>
<rscale>  0 0.14144309E+04</rscale>
<asrwt>0</asrwt>
<pdfrwt beam="1">  1        1 0.37625242E+00 0.14144309E+04</pdfrwt>
<pdfrwt beam="2">  1       -1 0.31462807E-01 0.14144309E+04</pdfrwt>
<totfact> 0.13542031E+01</totfact>
</mgrwt>
</event>
<event>
12    1  0.4672461E-008  0.1149788E+04  0.7818608E-02  0.9157979E-01
          2   -1    0    0  501    0  0.00000000000E+00  0.00000000000E+00  0.20491886524E+04  0.20491886524E+04  0.00000000000E+00 0.  1.
         -2   -1    0    0    0  501 -0.00000000000E+00 -0.00000000000E+00 -0.16128485769E+03  0.16128485769E+03  0.00000000000E+00 0. -1.
         23    2    1    2    0    0 -0.15594224261E+03 -0.16609348698E+02  0.13060952682E+03  0.22392366689E+03  0.92136347895E+02 0.  0.
        254    2    1    2    0    0  0.15594224261E+03  0.16609348698E+02  0.17572942678E+04  0.19865498432E+04  0.91307353596E+03 0.  0.
         23    2    4    4    0    0  0.40758411233E+03  0.30609529856E+03  0.82460813443E+03  0.97395949128E+03  0.93804983070E+02 0.  0.
         23    2    4    4    0    0 -0.25164186972E+03 -0.28948594987E+03  0.93268613340E+03  0.10125903519E+04  0.91159483901E+02 0.  0.
         11    1    3    3    0    0 -0.54015960757E+02 -0.38400267745E+02  0.14402218818E+02  0.67821298176E+02  0.00000000000E+00 0. -1.
        -11    1    3    3    0    0 -0.10192628185E+03  0.21790919047E+02  0.11620730801E+03  0.15610236872E+03  0.00000000000E+00 0.  1.
          1    1    6    6  502    0 -0.44293125991E+02 -0.11535914670E+02  0.81409007451E+02  0.93393708736E+02  0.00000000000E+00 0. -1.
          1    1    5    5  503    0  0.30949370201E+03  0.20405162479E+03  0.65894033244E+03  0.75605937523E+03  0.00000000000E+00 0. -1.
         -1    1    5    5    0  503  0.98090410318E+02  0.10204367378E+03  0.16566780199E+03  0.21790011604E+03  0.00000000000E+00 0.  1.
         -1    1    6    6    0  502 -0.20734874373E+03 -0.27795003520E+03  0.85127712595E+03  0.91919664314E+03  0.00000000000E+00 0.  1.
<mgrwt>
<rscale>  0 0.11497880E+04</rscale>
<asrwt>0</asrwt>
<pdfrwt beam="1">  1        2 0.31525977E+00 0.11497880E+04</pdfrwt>
<pdfrwt beam="2">  1       -2 0.24813057E-01 0.11497880E+04</pdfrwt>
<totfact> 0.90491868E+01</totfact>
</mgrwt>
</event>
<event>
12    1  0.4672461E-008  0.1503882E+04  0.7818608E-02  0.8881875E-01
         -2   -1    0    0    0  501 -0.00000000000E+00  0.00000000000E+00  0.10257956522E+04  0.10257956522E+04  0.00000000000E+00 0.  1.
          2   -1    0    0  501    0  0.00000000000E+00 -0.00000000000E+00 -0.55119703300E+03  0.55119703300E+03  0.00000000000E+00 0. -1.
         23    2    1    2    0    0  0.24104828567E+03 -0.29407821432E+03  0.43052856749E+03  0.58191008510E+03  0.93157004870E+02 0.  0.
        254    2    1    2    0    0 -0.24104828567E+03  0.29407821432E+03  0.44070051752E+02  0.99508260013E+03  0.91851017385E+03 0.  0.
         23    2    4    4    0    0 -0.18381185734E+03 -0.30606069666E+03 -0.66574646341E+02  0.37506242897E+03  0.93700016797E+02 0.  0.
         23    2    4    4    0    0 -0.57236428324E+02  0.60013891099E+03  0.11064469809E+03  0.62002017116E+03  0.93488192955E+02 0.  0.
         11    1    3    3    0    0  0.16568428120E+03 -0.16182947351E+03  0.20193440575E+03  0.30727441116E+03  0.00000000000E+00 0.  1.
        -11    1    3    3    0    0  0.75364004469E+02 -0.13224874082E+03  0.22859416174E+03  0.27463567394E+03  0.00000000000E+00 0. -1.
          2    1    5    5  502    0 -0.55231284054E+02 -0.18288669167E+03 -0.33638026523E+02  0.19398338474E+03  0.00000000000E+00 0. -1.
          4    1    6    6  503    0 -0.73924926569E+02  0.30741601477E+03  0.72134474385E+02  0.32430368993E+03  0.00000000000E+00 0. -1.
         -2    1    5    5    0  502 -0.12858057329E+03 -0.12317400500E+03 -0.32936619818E+02  0.18107904423E+03  0.00000000000E+00 0.  1.
         -4    1    6    6    0  503  0.16688498245E+02  0.29272289621E+03  0.38510223708E+02  0.29571648123E+03  0.00000000000E+00 0.  1.
<mgrwt>
<rscale>  0 0.15038823E+04</rscale>
<asrwt>0</asrwt>
<pdfrwt beam="1">  1        2 0.84799543E-01 0.15038823E+04</pdfrwt>
<pdfrwt beam="2">  1       -2 0.15781472E+00 0.15038823E+04</pdfrwt>
<totfact> 0.13856413E+01</totfact>
</mgrwt>
</event>
<event>
12    1  0.4672461E-008  0.1868862E+04  0.7818608E-02  0.8670513E-01
          2   -1    0    0  501    0  0.00000000000E+00  0.00000000000E+00  0.45983566272E+03  0.45983566272E+03  0.00000000000E+00 0. -1.
         -2   -1    0    0    0  501 -0.00000000000E+00 -0.00000000000E+00 -0.18988558738E+04  0.18988558738E+04  0.00000000000E+00 0.  1.
         23    2    1    2    0    0  0.47543850400E+03 -0.41149835876E+03 -0.13164122564E+03  0.64870335385E+03  0.90077514721E+02 0.  0.
        254    2    1    2    0    0 -0.47543850400E+03  0.41149835876E+03 -0.13073789855E+04  0.17099881827E+04  0.90523317600E+03 0.  0.
         23    2    4    4    0    0 -0.91675620726E+02  0.85287153790E+02 -0.11694823599E+04  0.11795734956E+04  0.89589750102E+02 0.  0.
         23    2    4    4    0    0 -0.38376288328E+03  0.32621120497E+03 -0.13789662552E+03  0.53041468706E+03  0.92933094668E+02 0.  0.
         13    1    3    3    0    0  0.12526357221E+03 -0.13314976054E+03 -0.14490110833E+01  0.18281663187E+03  0.00000000000E+00 0.  1.
        -13    1    3    3    0    0  0.35017493180E+03 -0.27834859822E+03 -0.13019221456E+03  0.46588672199E+03  0.00000000000E+00 0. -1.
          1    1    5    5  502    0 -0.53994967643E+02 -0.68315139234E+01 -0.40690043714E+03  0.41052416720E+03  0.00000000000E+00 0. -1.
          3    1    6    6  503    0 -0.11652032051E+03  0.15719694234E+03 -0.43910600113E+02  0.20053928436E+03  0.00000000000E+00 0. -1.
         -1    1    5    5    0  502 -0.37680653083E+02  0.92118667714E+02 -0.76258192281E+03  0.76904932842E+03  0.00000000000E+00 0.  1.
         -3    1    6    6    0  503 -0.26724256277E+03  0.16901426264E+03 -0.93986025404E+02  0.32987540269E+03  0.00000000000E+00 0.  1.
<mgrwt>
<rscale>  0 0.18688624E+04</rscale>
<asrwt>0</asrwt>
<pdfrwt beam="1">  1        2 0.70743948E-01 0.18688624E+04</pdfrwt>
<pdfrwt beam="2">  1       -2 0.29213167E+00 0.18688624E+04</pdfrwt>
<totfact> 0.22644423E+00</totfact>
</mgrwt>
</event>
<event>
12    1  0.4672461E-008  0.2131181E+04  0.7818608E-02  0.8547631E-01
         -1   -1    0    0    0  501 -0.00000000000E+00  0.00000000000E+00  0.63697320573E+03  0.63697320573E+03  0.00000000000E+00 0. -1.
          1   -1    0    0  501    0  0.00000000000E+00 -0.00000000000E+00 -0.17826227133E+04  0.17826227133E+04  0.00000000000E+00 0.  1.
         23    2    1    2    0    0 -0.44539114178E+03  0.37236647671E+03 -0.12145435713E+04  0.13490582043E+04  0.88384896515E+02 0.  0.
        254    2    1    2    0    0  0.44539114178E+03 -0.37236647671E+03  0.68894063773E+02  0.10705377147E+04  0.89681355049E+03 0.  0.
         23    2    4    4    0    0  0.27971537929E+03  0.98651729043E+02 -0.30888063504E+03  0.43838883323E+03  0.93833178279E+02 0.  0.
         23    2    4    4    0    0  0.16567576250E+03 -0.47101820575E+03  0.37777469881E+03  0.63214888144E+03  0.87131376767E+02 0.  0.
         13    1    3    3    0    0 -0.27980281595E+03  0.28273207137E+03 -0.86311633305E+03  0.95036668943E+03  0.00000000000E+00 0.  1.
        -13    1    3    3    0    0 -0.16558832583E+03  0.89634405333E+02 -0.35142723827E+03  0.39869151492E+03  0.00000000000E+00 0. -1.
          4    1    5    5  502    0  0.25543152962E+03  0.11522518428E+03 -0.26576735433E+03  0.38620512172E+03  0.00000000000E+00 0. -1.
          3    1    6    6  503    0  0.16056860687E+03 -0.39182195038E+03  0.34535417334E+03  0.54642128743E+03  0.00000000000E+00 0. -1.
         -4    1    5    5    0  502  0.24283849670E+02 -0.16573455242E+02 -0.43113280703E+02  0.52183711505E+02  0.00000000000E+00 0.  1.
         -3    1    6    6    0  503  0.51071556245E+01 -0.79196255364E+02  0.32420525469E+02  0.85727594006E+02  0.00000000000E+00 0.  1.
<mgrwt>
<rscale>  0 0.21311808E+04</rscale>
<asrwt>0</asrwt>
<pdfrwt beam="1">  1        1 0.27424965E+00 0.21311808E+04</pdfrwt>
<pdfrwt beam="2">  1       -1 0.97995877E-01 0.21311808E+04</pdfrwt>
<totfact> 0.38322777E+00</totfact>
</mgrwt>
</event>
<event>
12    1  0.4672461E-008  0.1462326E+04  0.7818608E-02  0.8909900E-01
          1   -1    0    0  501    0  0.00000000000E+00  0.00000000000E+00  0.12790233733E+04  0.12790233733E+04  0.00000000000E+00 0. -1.
         -1   -1    0    0    0  501 -0.00000000000E+00 -0.00000000000E+00 -0.41797463137E+03  0.41797463137E+03  0.00000000000E+00 0.  1.
         23    2    1    2    0    0 -0.21527644665E+03  0.33919876597E+03  0.50845199139E+03  0.65411099741E+03  0.89095555787E+02 0.  0.
        254    2    1    2    0    0  0.21527644665E+03 -0.33919876597E+03  0.35259675049E+03  0.10428870072E+04  0.89548260175E+03 0.  0.
         23    2    4    4    0    0  0.23462460995E+03 -0.62840732415E+03  0.22189215556E+03  0.71270861929E+03  0.93664158952E+02 0.  0.
         23    2    4    4    0    0 -0.19348163298E+02  0.28920855818E+03  0.13070459493E+03  0.33017838792E+03  0.88983903964E+02 0.  0.
         11    1    3    3    0    0 -0.20494726262E+03  0.34327889916E+03  0.48823591365E+03  0.63104523645E+03  0.00000000000E+00 0. -1.
        -11    1    3    3    0    0 -0.10329184030E+02 -0.40801331864E+01  0.20216077739E+02  0.23065760960E+02  0.00000000000E+00 0.  1.
          2    1    5    5  502    0  0.23601533874E+03 -0.63132403326E+03  0.22017174183E+03  0.70904786227E+03  0.00000000000E+00 0. -1.
          3    1    6    6  503    0 -0.21423078147E+02  0.25314533616E+03  0.77013460187E+02  0.26546672588E+03  0.00000000000E+00 0. -1.
         -2    1    5    5    0  502 -0.13907287938E+01  0.29167091039E+01  0.17204137301E+01  0.36607570224E+01  0.00000000000E+00 0.  1.
         -3    1    6    6    0  503  0.20749148483E+01  0.36063222017E+02  0.53691134745E+02  0.64711662041E+02  0.00000000000E+00 0.  1.
<mgrwt>
<rscale>  0 0.14623260E+04</rscale>
<asrwt>0</asrwt>
<pdfrwt beam="1">  1        1 0.19677283E+00 0.14623260E+04</pdfrwt>
<pdfrwt beam="2">  1       -1 0.64303790E-01 0.14623260E+04</pdfrwt>
<totfact> 0.22282452E+01</totfact>
</mgrwt>
</event>
<event>
12    1  0.6632573E-008  0.1713105E+04  0.7818608E-02  0.8753925E-01
         -4   -1    0    0    0  501 -0.00000000000E+00  0.00000000000E+00  0.75116271629E+03  0.75116271629E+03  0.00000000000E+00 0.  1.
          4   -1    0    0  501    0  0.00000000000E+00 -0.00000000000E+00 -0.97672836631E+03  0.97672836631E+03  0.00000000000E+00 0. -1.
         23    2    1    2    0    0  0.32490436489E+03 -0.79097894363E+02 -0.59983256010E+03  0.69304844480E+03  0.93261586283E+02 0.  0.
        254    2    1    2    0    0 -0.32490436489E+03  0.79097894363E+02  0.37426691008E+03  0.10348426378E+04  0.90498853132E+03 0.  0.
         23    2    4    4    0    0  0.57198285918E+02  0.41174425910E+03  0.54703912348E+02  0.42946460214E+03  0.92964227825E+02 0.  0.
         23    2    4    4    0    0 -0.38210265081E+03 -0.33264636473E+03  0.31956299773E+03  0.60537803566E+03  0.87783921196E+02 0.  0.
         13    1    3    3    0    0  0.27830931003E+02  0.13736847503E+02 -0.27067987085E+02  0.41181763253E+02  0.00000000000E+00 0.  1.
        -13    1    3    3    0    0  0.29707343389E+03 -0.92834741866E+02 -0.57276457301E+03  0.65186668155E+03  0.00000000000E+00 0. -1.
          2    1    5    5  502    0  0.12031412497E+02  0.11091374689E+03 -0.26381194844E+02  0.11464109899E+03  0.00000000000E+00 0. -1.
          3    1    6    6  503    0 -0.97288929703E+02 -0.92182756841E+02  0.13194283185E+03  0.18807367540E+03  0.00000000000E+00 0. -1.
         -2    1    5    5    0  502  0.45166873421E+02  0.30083051221E+03  0.81085107192E+02  0.31482350315E+03  0.00000000000E+00 0.  1.
         -3    1    6    6    0  503 -0.28481372111E+03 -0.24046360789E+03  0.18762016588E+03  0.41730436026E+03  0.00000000000E+00 0.  1.
<mgrwt>
<rscale>  0 0.17131047E+04</rscale>
<asrwt>0</asrwt>
<pdfrwt beam="1">  1        4 0.15026590E+00 0.17131047E+04</pdfrwt>
<pdfrwt beam="2">  1       -4 0.11556350E+00 0.17131047E+04</pdfrwt>
<totfact> 0.32769710E-01</totfact>
</mgrwt>
</event>
<event>
12    1  0.4672461E-008  0.1417018E+04  0.7818608E-02  0.8941591E-01
          2   -1    0    0  501    0  0.00000000000E+00  0.00000000000E+00  0.86442128673E+03  0.86442128673E+03  0.00000000000E+00 0. -1.
         -2   -1    0    0    0  501 -0.00000000000E+00 -0.00000000000E+00 -0.58071821959E+03  0.58071821959E+03  0.00000000000E+00 0.  1.
         23    2    1    2    0    0 -0.19493814636E+03  0.32858690232E+03 -0.14992742035E+03  0.42045222463E+03  0.91277645386E+02 0.  0.
        254    2    1    2    0    0  0.19493814636E+03 -0.32858690232E+03  0.43363048749E+03  0.10246872817E+04  0.84615506397E+03 0.  0.
         23    2    4    4    0    0  0.26615275553E+03  0.20280478630E+03  0.31130476786E+02  0.34809658338E+03  0.90747199171E+02 0.  0.
         23    2    4    4    0    0 -0.71214609169E+02 -0.53139168862E+03  0.40250001071E+03  0.67659069831E+03  0.91214401949E+02 0.  0.
         13    1    3    3    0    0 -0.18976005585E+03  0.25068433955E+03 -0.12692578030E+03  0.33905998082E+03  0.00000000000E+00 0.  1.
        -13    1    3    3    0    0 -0.51780905067E+01  0.77902562774E+02 -0.23001640043E+02  0.81392243812E+02  0.00000000000E+00 0. -1.
          1    1    5    5  502    0  0.18775671828E+03  0.12965113923E+03  0.62131686397E+02  0.23647906803E+03  0.00000000000E+00 0. -1.
          3    1    6    6  503    0 -0.19921655761E+02 -0.35816549668E+03  0.22571667796E+03  0.42382474455E+03  0.00000000000E+00 0. -1.
         -1    1    5    5    0  502  0.78396037245E+02  0.73153647070E+02 -0.31001209611E+02  0.11161751535E+03  0.00000000000E+00 0.  1.
         -3    1    6    6    0  503 -0.51292953408E+02 -0.17322619194E+03  0.17678333275E+03  0.25276595376E+03  0.00000000000E+00 0.  1.
<mgrwt>
<rscale>  0 0.14170183E+04</rscale>
<asrwt>0</asrwt>
<pdfrwt beam="1">  1        2 0.13298789E+00 0.14170183E+04</pdfrwt>
<pdfrwt beam="2">  1       -2 0.89341264E-01 0.14170183E+04</pdfrwt>
<totfact> 0.32416523E+01</totfact>
</mgrwt>
</event>
<event>
12    1  0.4672461E-008  0.1410407E+04  0.7818608E-02  0.8946320E-01
         -2   -1    0    0    0  501 -0.00000000000E+00  0.00000000000E+00  0.83129780067E+03  0.83129780067E+03  0.00000000000E+00 0.  1.
          2   -1    0    0  501    0  0.00000000000E+00 -0.00000000000E+00 -0.59823537157E+03  0.59823537157E+03  0.00000000000E+00 0. -1.
         23    2    1    2    0    0  0.31581502063E+03  0.27770907526E+03 -0.66098734877E+01  0.43066634238E+03  0.92565383875E+02 0.  0.
        254    2    1    2    0    0 -0.31581502063E+03 -0.27770907526E+03  0.23967230258E+03  0.99886682986E+03  0.87374519937E+03 0.  0.
         23    2    4    4    0    0  0.57401171096E+02  0.23321813454E+03 -0.99252683636E+02  0.27488252927E+03  0.89575202846E+02 0.  0.
         23    2    4    4    0    0 -0.37321619173E+03 -0.51092720980E+03  0.33892498622E+03  0.72398430059E+03  0.94584257319E+02 0.  0.
         11    1    3    3    0    0  0.21203524275E+03  0.19332910075E+03 -0.47402067628E+02  0.29082991830E+03  0.00000000000E+00 0. -1.
        -11    1    3    3    0    0  0.10377977788E+03  0.84379974519E+02  0.40792194141E+02  0.13983642408E+03  0.00000000000E+00 0.  1.
          3    1    6    6  502    0 -0.66655464657E+02 -0.39758386271E+02  0.39283117690E+02  0.86987605915E+02  0.00000000000E+00 0. -1.
          3    1    5    5  503    0  0.29284288207E+02  0.27039159618E+02 -0.44442517508E+02  0.59697764205E+02  0.00000000000E+00 0. -1.
         -3    1    5    5    0  503  0.28116882890E+02  0.20617897492E+03 -0.54810166128E+02  0.21518476506E+03  0.00000000000E+00 0.  1.
         -3    1    6    6    0  502 -0.30656072707E+03 -0.47116882353E+03  0.29964186853E+03  0.63699669468E+03  0.00000000000E+00 0.  1.
<mgrwt>
<rscale>  0 0.14104067E+04</rscale>
<asrwt>0</asrwt>
<pdfrwt beam="1">  1        2 0.92036211E-01 0.14104067E+04</pdfrwt>
<pdfrwt beam="2">  1       -2 0.12789197E+00 0.14104067E+04</pdfrwt>
<totfact> 0.21903647E+01</totfact>
</mgrwt>
</event>
<event>
12    1  0.4672461E-008  0.9650498E+03  0.7818608E-02  0.9347731E-01
         -1   -1    0    0    0  501 -0.00000000000E+00  0.00000000000E+00  0.25115341006E+03  0.25115341006E+03  0.00000000000E+00 0.  1.
          1   -1    0    0  501    0  0.00000000000E+00 -0.00000000000E+00 -0.92704412351E+03  0.92704412351E+03  0.00000000000E+00 0. -1.
         23    2    1    2    0    0 -0.70095718052E+02  0.77494133883E+02 -0.10217244449E+03  0.16014296001E+03  0.65481361863E+02 0.  0.
        254    2    1    2    0    0  0.70095718052E+02 -0.77494133883E+02 -0.57371826895E+03  0.10180545736E+04  0.83448409939E+03 0.  0.
         23    2    4    4    0    0  0.30643285901E+03 -0.33548098176E+03 -0.22304033167E+03  0.51415391007E+03  0.90325342437E+02 0.  0.
         23    2    4    4    0    0 -0.23633714096E+03  0.25798684788E+03 -0.35067793729E+03  0.50390066349E+03  0.92349364318E+02 0.  0.
         11    1    3    3    0    0 -0.97118828353E+01  0.38562297411E+02 -0.61841090781E+01  0.40244436323E+02  0.00000000000E+00 0. -1.
        -11    1    3    3    0    0 -0.60383835217E+02  0.38931836471E+02 -0.95988335415E+02  0.11989852369E+03  0.00000000000E+00 0.  1.
          4    1    5    5  502    0  0.13849757215E+03 -0.15803737335E+03 -0.53692405096E+02  0.21688767423E+03  0.00000000000E+00 0. -1.
          3    1    6    6  503    0 -0.23185152369E+02  0.25147887332E+02 -0.83880546180E+02  0.90586497642E+02  0.00000000000E+00 0. -1.
         -4    1    5    5    0  502  0.16793528686E+03 -0.17744360841E+03 -0.16934792657E+03  0.29726623584E+03  0.00000000000E+00 0.  1.
         -3    1    6    6    0  503 -0.21315198859E+03  0.23283896055E+03 -0.26679739111E+03  0.41331416585E+03  0.00000000000E+00 0.  1.
<mgrwt>
<rscale>  0 0.96504983E+03</rscale>
<asrwt>0</asrwt>
<pdfrwt beam="1">  1        1 0.14262217E+00 0.96504983E+03</pdfrwt>
<pdfrwt beam="2">  1       -1 0.38638986E-01 0.96504983E+03</pdfrwt>
<totfact> 0.11261545E+02</totfact>
</mgrwt>
</event>
<event>
12    1  0.4672461E-008  0.2096925E+04  0.7818608E-02  0.8562599E-01
         -2   -1    0    0    0  501 -0.00000000000E+00  0.00000000000E+00  0.14182134088E+04  0.14182134088E+04  0.00000000000E+00 0.  1.
          2   -1    0    0  501    0  0.00000000000E+00 -0.00000000000E+00 -0.77511153755E+03  0.77511153755E+03  0.00000000000E+00 0. -1.
         23    2    1    2    0    0 -0.23306856374E+03  0.23491896021E+03  0.10863430312E+04  0.11392197235E+04  0.90402011701E+02 0.  0.
        254    2    1    2    0    0  0.23306856374E+03 -0.23491896021E+03 -0.44324115994E+03  0.10541052229E+04  0.89731110643E+03 0.  0.
         23    2    4    4    0    0  0.66382268924E+02 -0.23950959119E+03 -0.69222466174E+03  0.74094052139E+03  0.89701861883E+02 0.  0.
         23    2    4    4    0    0  0.16668629481E+03  0.45906309833E+01  0.24898350180E+03  0.31316470146E+03  0.90961262633E+02 0.  0.
         13    1    3    3    0    0 -0.18910413380E+03  0.22848561794E+03  0.89820554828E+03  0.94590657995E+03  0.00000000000E+00 0. -1.
        -13    1    3    3    0    0 -0.43964429942E+02  0.64333422630E+01  0.18813748295E+03  0.19331314359E+03  0.00000000000E+00 0.  1.
          3    1    5    5  502    0 -0.65017970526E+01 -0.47676990692E+01 -0.91790684911E+02  0.92144094524E+02  0.00000000000E+00 0. -1.
          3    1    6    6  503    0  0.14962818811E+03 -0.28868414817E+02  0.19924127397E+03  0.25083673037E+03  0.00000000000E+00 0. -1.
         -3    1    5    5    0  502  0.72884065977E+02 -0.23474189212E+03 -0.60043397683E+03  0.64879642687E+03  0.00000000000E+00 0.  1.
         -3    1    6    6    0  503  0.17058106704E+02  0.33459045801E+02  0.49742227835E+02  0.62327971090E+02  0.00000000000E+00 0.  1.
<mgrwt>
<rscale>  0 0.20969250E+04</rscale>
<asrwt>0</asrwt>
<pdfrwt beam="1">  1        2 0.11924793E+00 0.20969250E+04</pdfrwt>
<pdfrwt beam="2">  1       -2 0.21818668E+00 0.20969250E+04</pdfrwt>
<totfact> 0.33587595E+00</totfact>
</mgrwt>
</event>
<event>
12    1  0.4672461E-008  0.2056003E+04  0.7818608E-02  0.8580876E-01
          2   -1    0    0  501    0  0.00000000000E+00  0.00000000000E+00  0.10245874456E+04  0.10245874456E+04  0.00000000000E+00 0. -1.
         -2   -1    0    0    0  501 -0.00000000000E+00 -0.00000000000E+00 -0.10314265015E+04  0.10314265015E+04  0.00000000000E+00 0.  1.
         23    2    1    2    0    0  0.36361887164E+03 -0.20408708536E+03  0.71263865004E+03  0.83553594390E+03  0.12804782622E+03 0.  0.
        254    2    1    2    0    0 -0.36361887164E+03  0.20408708536E+03 -0.71947770594E+03  0.12204780032E+04  0.89333541554E+03 0.  0.
         23    2    4    4    0    0 -0.13808750449E+03 -0.70167308846E+02 -0.82070724000E+03  0.84009045091E+03  0.90553750872E+02 0.  0.
         23    2    4    4    0    0 -0.22553136715E+03  0.27425439421E+03  0.10122953406E+03  0.38038755227E+03  0.91473499142E+02 0.  0.
         13    1    3    3    0    0  0.19105548155E+03 -0.14827920306E+03  0.50446122808E+03  0.55943726165E+03  0.00000000000E+00 0.  1.
        -13    1    3    3    0    0  0.17256339009E+03 -0.55807882305E+02  0.20817742196E+03  0.27609868225E+03  0.00000000000E+00 0. -1.
          4    1    5    5  502    0 -0.47742587557E+02 -0.49950583498E+02 -0.18139335284E+03  0.19410812428E+03  0.00000000000E+00 0. -1.
          1    1    6    6  503    0 -0.75438676616E+02  0.72469994831E+02 -0.10630172946E+02  0.10514701450E+03  0.00000000000E+00 0. -1.
         -4    1    5    5    0  502 -0.90344916937E+02 -0.20216725348E+02 -0.63931388716E+03  0.64598232663E+03  0.00000000000E+00 0.  1.
         -1    1    6    6    0  503 -0.15009269053E+03  0.20178439938E+03  0.11185970700E+03  0.27524053777E+03  0.00000000000E+00 0.  1.
<mgrwt>
<rscale>  0 0.20560026E+04</rscale>
<asrwt>0</asrwt>
<pdfrwt beam="1">  1        2 0.15762884E+00 0.20560026E+04</pdfrwt>
<pdfrwt beam="2">  1       -2 0.15868100E+00 0.20560026E+04</pdfrwt>
<totfact> 0.57874230E+00</totfact>
</mgrwt>
</event>
<event>
12    1  0.4672461E-008  0.1979308E+04  0.7818608E-02  0.8616356E-01
          2   -1    0    0  501    0  0.00000000000E+00  0.00000000000E+00  0.19700192496E+04  0.19700192496E+04  0.00000000000E+00 0. -1.
         -2   -1    0    0    0  501 -0.00000000000E+00 -0.00000000000E+00 -0.49716022501E+03  0.49716022501E+03  0.00000000000E+00 0.  1.
         23    2    1    2    0    0  0.48400721613E+03 -0.18577549077E+03 -0.14337669826E+03  0.54581690722E+03  0.92648261497E+02 0.  0.
        254    2    1    2    0    0 -0.48400721613E+03  0.18577549077E+03  0.16162357229E+04  0.19213625674E+04  0.90035586593E+03 0.  0.
         23    2    4    4    0    0 -0.14552113045E+03  0.25490940513E+03  0.46040084549E+02  0.31090157143E+03  0.91569064101E+02 0.  0.
         23    2    4    4    0    0 -0.33848608568E+03 -0.69133914356E+02  0.15701956383E+04  0.16104609960E+04  0.93369955908E+02 0.  0.
         11    1    3    3    0    0  0.16769080523E+03 -0.21566089213E+02 -0.63291651490E+02  0.18053015125E+03  0.00000000000E+00 0. -1.
        -11    1    3    3    0    0  0.31631641090E+03 -0.16420940156E+03 -0.80085046772E+02  0.36528675596E+03  0.00000000000E+00 0.  1.
          2    1    6    6  502    0 -0.18371421947E+03 -0.15290767634E+02  0.64339025266E+03  0.66928001555E+03  0.00000000000E+00 0.  1.
          2    1    5    5  503    0 -0.10916825030E+03  0.24266603964E+03  0.25291618649E+02  0.26729044061E+03  0.00000000000E+00 0.  1.
         -2    1    5    5    0  503 -0.36352880155E+02  0.12243365488E+02  0.20748465900E+02  0.43611130818E+02  0.00000000000E+00 0. -1.
         -2    1    6    6    0  502 -0.15477186621E+03 -0.53843146723E+02  0.92680538566E+03  0.94118098043E+03  0.00000000000E+00 0. -1.
<mgrwt>
<rscale>  0 0.19793082E+04</rscale>
<asrwt>0</asrwt>
<pdfrwt beam="1">  1        2 0.30307988E+00 0.19793082E+04</pdfrwt>
<pdfrwt beam="2">  1       -2 0.76486189E-01 0.19793082E+04</pdfrwt>
<totfact> 0.98756520E+00</totfact>
</mgrwt>
</event>
<event>
12    1  0.4672461E-008  0.2176336E+04  0.7818608E-02  0.8528342E-01
         -2   -1    0    0    0  501 -0.00000000000E+00  0.00000000000E+00  0.84081931491E+03  0.84081931491E+03  0.00000000000E+00 0.  1.
          2   -1    0    0  501    0  0.00000000000E+00 -0.00000000000E+00 -0.14082812070E+04  0.14082812070E+04  0.00000000000E+00 0. -1.
         23    2    1    2    0    0 -0.22528997189E+03  0.12871891632E+03 -0.11290052005E+04  0.11620957254E+04  0.92139033062E+02 0.  0.
        254    2    1    2    0    0  0.22528997189E+03 -0.12871891632E+03  0.56154330837E+03  0.10870047965E+04  0.89382571548E+03 0.  0.
         23    2    4    4    0    0  0.97613762553E+01 -0.49034475001E+03  0.30214141350E+03  0.58375554095E+03  0.94593020390E+02 0.  0.
         23    2    4    4    0    0  0.21552859564E+03  0.36162583368E+03  0.25940189487E+03  0.50324925559E+03  0.93512839021E+02 0.  0.
         11    1    3    3    0    0 -0.51890178921E+02  0.27601095595E+02 -0.45663920568E+03  0.46040609825E+03  0.00000000000E+00 0.  1.
        -11    1    3    3    0    0 -0.17339979297E+03  0.10111782073E+03 -0.67236599482E+03  0.70168962716E+03  0.00000000000E+00 0. -1.
          4    1    5    5  502    0  0.41412393959E+02 -0.38390394600E+03  0.25725450914E+03  0.46397964244E+03  0.00000000000E+00 0. -1.
          1    1    6    6  503    0  0.20487547257E+03  0.36572931281E+03  0.24777225080E+03  0.48695274697E+03  0.00000000000E+00 0. -1.
         -4    1    5    5    0  502 -0.31651017704E+02 -0.10644080401E+03  0.44886904363E+02  0.11977589850E+03  0.00000000000E+00 0.  1.
         -1    1    6    6    0  503  0.10653123066E+02 -0.41034791284E+01  0.11629644072E+02  0.16296508622E+02  0.00000000000E+00 0.  1.
<mgrwt>
<rscale>  0 0.21763364E+04</rscale>
<asrwt>0</asrwt>
<pdfrwt beam="1">  1        2 0.21665865E+00 0.21763364E+04</pdfrwt>
<pdfrwt beam="2">  1       -2 0.12935682E+00 0.21763364E+04</pdfrwt>
<totfact> 0.57660778E+00</totfact>
</mgrwt>
</event>
<event>
12    1  0.4672461E-008  0.2277745E+04  0.7818608E-02  0.8486748E-01
          2   -1    0    0  501    0  0.00000000000E+00  0.00000000000E+00  0.19986262931E+04  0.19986262931E+04  0.00000000000E+00 0. -1.
         -2   -1    0    0    0  501 -0.00000000000E+00 -0.00000000000E+00 -0.64896094423E+03  0.64896094423E+03  0.00000000000E+00 0.  1.
         23    2    1    2    0    0 -0.49009748000E+03 -0.61480161582E+01  0.15260178653E+04  0.16056038836E+04  0.94868160486E+02 0.  0.
        254    2    1    2    0    0  0.49009748000E+03  0.61480161582E+01 -0.17635251637E+03  0.10419833538E+04  0.90243878546E+03 0.  0.
         23    2    4    4    0    0 -0.98946819693E+02 -0.28123846617E+03 -0.21559178850E+03  0.37890862994E+03  0.90589086512E+02 0.  0.
         23    2    4    4    0    0  0.58904429969E+03  0.28738648233E+03  0.39239272128E+02  0.66307472383E+03  0.92542918029E+02 0.  0.
         13    1    3    3    0    0 -0.49064947693E+03 -0.11462856278E+02  0.14794498353E+04  0.15587302915E+04  0.00000000000E+00 0. -1.
        -13    1    3    3    0    0  0.55199692393E+00  0.53148401198E+01  0.46568029934E+02  0.46873592118E+02  0.00000000000E+00 0.  1.
          2    1    6    6  502    0  0.37333815337E+03  0.15025950707E+03 -0.10950540902E+02  0.40259062405E+03  0.00000000000E+00 0.  1.
          2    1    5    5  503    0  0.13207214179E+02 -0.79612500999E+02 -0.61499780059E+02  0.10146331243E+03  0.00000000000E+00 0. -1.
         -2    1    5    5    0  503 -0.11215403387E+03 -0.20162596517E+03 -0.15409200844E+03  0.27744531751E+03  0.00000000000E+00 0.  1.
         -2    1    6    6    0  502  0.21570614632E+03  0.13712697526E+03  0.50189813030E+02  0.26048409978E+03  0.00000000000E+00 0. -1.
<mgrwt>
<rscale>  0 0.22777449E+04</rscale>
<asrwt>0</asrwt>
<pdfrwt beam="1">  1        2 0.30748097E+00 0.22777449E+04</pdfrwt>
<pdfrwt beam="2">  1       -2 0.99840146E-01 0.22777449E+04</pdfrwt>
<totfact> 0.50400776E+00</totfact>
</mgrwt>
</event>
<event>
12    1  0.4672461E-008  0.1170497E+04  0.7818608E-02  0.9139080E-01
         -2   -1    0    0    0  501 -0.00000000000E+00  0.00000000000E+00  0.38569512666E+03  0.38569512666E+03  0.00000000000E+00 0. -1.
          2   -1    0    0  501    0  0.00000000000E+00 -0.00000000000E+00 -0.88804804083E+03  0.88804804083E+03  0.00000000000E+00 0.  1.
         23    2    1    2    0    0  0.13456429179E+03 -0.11893676660E+03 -0.26023554508E+03  0.32868562308E+03  0.89767459696E+02 0.  0.
        254    2    1    2    0    0 -0.13456429179E+03  0.11893676660E+03 -0.24211736908E+03  0.94505754441E+03  0.89568936511E+03 0.  0.
         23    2    4    4    0    0 -0.79693818921E+02 -0.14180240374E+03 -0.51849758633E+03  0.55066072781E+03  0.89041920738E+02 0.  0.
         23    2    4    4    0    0 -0.54870472866E+02  0.26073917033E+03  0.27638021725E+03  0.39439681660E+03  0.90372234238E+02 0.  0.
         11    1    3    3    0    0  0.17736501381E+02  0.14226477435E+02 -0.20596732901E+02  0.30679008258E+02  0.00000000000E+00 0. -1.
        -11    1    3    3    0    0  0.11682779041E+03 -0.13316324403E+03 -0.23963881218E+03  0.29800661482E+03  0.00000000000E+00 0.  1.
          4    1    5    5  502    0 -0.71046447085E+02 -0.41600082190E+02 -0.18894668582E+03  0.20610437784E+03  0.00000000000E+00 0. -1.
          4    1    6    6  503    0 -0.71112497389E+00  0.14200154680E+01 -0.65869928489E+01  0.67757374100E+01  0.00000000000E+00 0. -1.
         -4    1    5    5    0  502 -0.86473718360E+01 -0.10020232155E+03 -0.32955090051E+03  0.34455634998E+03  0.00000000000E+00 0.  1.
         -4    1    6    6    0  503 -0.54159347892E+02  0.25931915486E+03  0.28296721009E+03  0.38762107919E+03  0.00000000000E+00 0.  1.
<mgrwt>
<rscale>  0 0.11704970E+04</rscale>
<asrwt>0</asrwt>
<pdfrwt beam="1">  1        2 0.13662277E+00 0.11704970E+04</pdfrwt>
<pdfrwt beam="2">  1       -2 0.59337712E-01 0.11704970E+04</pdfrwt>
<totfact> 0.78327695E+01</totfact>
</mgrwt>
</event>
<event>
12    1  0.4672461E-008  0.1656618E+04  0.7818608E-02  0.8786501E-01
          1   -1    0    0  501    0  0.00000000000E+00  0.00000000000E+00  0.12352212033E+04  0.12352212033E+04  0.00000000000E+00 0. -1.
         -1   -1    0    0    0  501 -0.00000000000E+00 -0.00000000000E+00 -0.55544372671E+03  0.55544372671E+03  0.00000000000E+00 0.  1.
         23    2    1    2    0    0  0.53866023576E+03  0.14454207049E+02 -0.42969171971E+02  0.54766470456E+03  0.87900541422E+02 0.  0.
        254    2    1    2    0    0 -0.53866023576E+03 -0.14454207049E+02  0.72274664860E+03  0.12430002255E+04  0.85575876790E+03 0.  0.
         23    2    4    4    0    0 -0.55919393100E+03 -0.19072749475E+03  0.82545938339E+03  0.10191697520E+04  0.90823785231E+02 0.  0.
         23    2    4    4    0    0  0.20533695238E+02  0.17627328770E+03 -0.10271273478E+03  0.22383047355E+03  0.89756729014E+02 0.  0.
         13    1    3    3    0    0  0.10731211513E+03  0.17283112437E+01 -0.44345628020E+02  0.11612670597E+03  0.00000000000E+00 0. -1.
        -13    1    3    3    0    0  0.43134812063E+03  0.12725895805E+02  0.13764560496E+01  0.43153799859E+03  0.00000000000E+00 0.  1.
          4    1    5    5  502    0 -0.26040663629E+03 -0.87453869654E+02  0.30724635510E+03  0.41214089613E+03  0.00000000000E+00 0. -1.
          1    1    6    6  503    0  0.39245184913E+02  0.26195975950E+02 -0.18147367622E+02  0.50554333607E+02  0.00000000000E+00 0. -1.
         -4    1    5    5    0  502 -0.29878729471E+03 -0.10327362510E+03  0.51821302829E+03  0.60702885583E+03  0.00000000000E+00 0.  1.
         -1    1    6    6    0  503 -0.18711489675E+02  0.15007731175E+03 -0.84565367161E+02  0.17327613994E+03  0.00000000000E+00 0.  1.
<mgrwt>
<rscale>  0 0.16566181E+04</rscale>
<asrwt>0</asrwt>
<pdfrwt beam="1">  1        1 0.19003403E+00 0.16566181E+04</pdfrwt>
<pdfrwt beam="2">  1       -1 0.85452882E-01 0.16566181E+04</pdfrwt>
<totfact> 0.13019824E+01</totfact>
</mgrwt>
</event>
<event>
12    1  0.4672461E-008  0.1495320E+04  0.7818608E-02  0.8887571E-01
         -1   -1    0    0    0  501 -0.00000000000E+00  0.00000000000E+00  0.13534820673E+04  0.13534820673E+04  0.00000000000E+00 0.  1.
          1   -1    0    0  501    0  0.00000000000E+00 -0.00000000000E+00 -0.41300532724E+03  0.41300532724E+03  0.00000000000E+00 0. -1.
         23    2    1    2    0    0 -0.11736297340E+03  0.28697990422E+02  0.83195346944E+03  0.84557595093E+03  0.90854121020E+02 0.  0.
        254    2    1    2    0    0  0.11736297340E+03 -0.28697990422E+02  0.10852327063E+03  0.92091144362E+03  0.90647831995E+03 0.  0.
         23    2    4    4    0    0  0.14725586681E+03  0.65145209886E+02 -0.37594815617E+03  0.41851590431E+03  0.88827683489E+02 0.  0.
         23    2    4    4    0    0 -0.29892893416E+02 -0.93843200308E+02  0.48447142680E+03  0.50239553931E+03  0.89378874514E+02 0.  0.
         11    1    3    3    0    0 -0.11346645147E+02  0.36567897078E+02  0.34707079895E+03  0.34917631210E+03  0.00000000000E+00 0. -1.
        -11    1    3    3    0    0 -0.10601632825E+03 -0.78699066559E+01  0.48488267049E+03  0.49639963883E+03  0.00000000000E+00 0.  1.
          2    1    5    5  502    0  0.51117153931E+02  0.25017712121E+02 -0.48102552528E+02  0.74516474054E+02  0.00000000000E+00 0. -1.
          1    1    6    6  503    0  0.30856011451E+02 -0.47126630157E+02  0.19958506719E+03  0.20738180190E+03  0.00000000000E+00 0. -1.
         -2    1    5    5    0  502  0.96138712882E+02  0.40127497765E+02 -0.32784560364E+03  0.34399943026E+03  0.00000000000E+00 0.  1.
         -1    1    6    6    0  503 -0.60748904867E+02 -0.46716570151E+02  0.28488635961E+03  0.29501373741E+03  0.00000000000E+00 0.  1.
<mgrwt>
<rscale>  0 0.14953198E+04</rscale>
<asrwt>0</asrwt>
<pdfrwt beam="1">  1        1 0.63539282E-01 0.14953198E+04</pdfrwt>
<pdfrwt beam="2">  1       -1 0.20822801E+00 0.14953198E+04</pdfrwt>
<totfact> 0.73517679E+00</totfact>
</mgrwt>
</event>
<event>
12    1  0.4672461E-008  0.1642084E+04  0.7818608E-02  0.8795104E-01
         -2   -1    0    0    0  501 -0.00000000000E+00  0.00000000000E+00  0.45438516114E+03  0.45438516114E+03  0.00000000000E+00 0.  1.
          2   -1    0    0  501    0  0.00000000000E+00 -0.00000000000E+00 -0.14835643207E+04  0.14835643207E+04  0.00000000000E+00 0. -1.
         23    2    1    2    0    0 -0.49679113847E+03  0.27304937553E+03 -0.34534465030E+03  0.66988685001E+03  0.90155796208E+02 0.  0.
        254    2    1    2    0    0  0.49679113847E+03 -0.27304937553E+03 -0.68383450928E+03  0.12680626318E+04  0.90498387028E+03 0.  0.
         23    2    4    4    0    0  0.53493042180E+02  0.19732554134E+03  0.10342765824E+03  0.24533187569E+03  0.87701618664E+02 0.  0.
         23    2    4    4    0    0  0.44329809629E+03 -0.47037491686E+03 -0.78726216752E+03  0.10227307562E+04  0.91818922814E+02 0.  0.
         13    1    3    3    0    0 -0.42114914331E+02  0.26568809527E+02 -0.64119665065E+02  0.81184352537E+02  0.00000000000E+00 0. -1.
        -13    1    3    3    0    0 -0.45467622414E+03  0.24648056600E+03 -0.28122498524E+03  0.58870249748E+03  0.00000000000E+00 0.  1.
          4    1    5    5  502    0  0.61741618596E+02  0.19868946195E+03  0.10938783394E+03  0.23506430604E+03  0.00000000000E+00 0. -1.
          1    1    6    6  503    0  0.39804318572E+03 -0.37562865435E+03 -0.64480504774E+03  0.84575931165E+03  0.00000000000E+00 0. -1.
         -4    1    5    5    0  502 -0.82485764158E+01 -0.13639206173E+01 -0.59601756963E+01  0.10267569657E+02  0.00000000000E+00 0.  1.
         -1    1    6    6    0  503  0.45254910575E+02 -0.94746262515E+02 -0.14245711979E+03  0.17697144450E+03  0.00000000000E+00 0.  1.
<mgrwt>
<rscale>  0 0.16420836E+04</rscale>
<asrwt>0</asrwt>
<pdfrwt beam="1">  1        2 0.22824067E+00 0.16420836E+04</pdfrwt>
<pdfrwt beam="2">  1       -2 0.69905409E-01 0.16420836E+04</pdfrwt>
<totfact> 0.23109715E+01</totfact>
</mgrwt>
</event>
<event>
12    1  0.4672461E-008  0.2326694E+04  0.7818608E-02  0.8467470E-01
          3   -1    0    0  501    0  0.00000000000E+00  0.00000000000E+00  0.18960227308E+04  0.18960227308E+04  0.00000000000E+00 0. -1.
         -3   -1    0    0    0  501 -0.00000000000E+00 -0.00000000000E+00 -0.71379717575E+03  0.71379717575E+03  0.00000000000E+00 0.  1.
         23    2    1    2    0    0 -0.75453558313E+03 -0.47613284522E+03  0.96727020513E+03  0.13190998804E+04  0.91577356677E+02 0.  0.
        254    2    1    2    0    0  0.75453558313E+03  0.47613284522E+03  0.21495534990E+03  0.12907200261E+04  0.90759349428E+03 0.  0.
         23    2    4    4    0    0  0.46739362312E+03  0.43888066405E+03 -0.28369270018E+03  0.70694151618E+03  0.90618557451E+02 0.  0.
         23    2    4    4    0    0  0.28714196001E+03  0.37252181169E+02  0.49864805008E+03  0.58377850994E+03  0.91155036136E+02 0.  0.
         11    1    3    3    0    0 -0.55245749903E+03 -0.37955914047E+03  0.67970961183E+03  0.95460965099E+03  0.00000000000E+00 0.  1.
        -11    1    3    3    0    0 -0.20207808410E+03 -0.96573704750E+02  0.28756059330E+03  0.36449022942E+03  0.00000000000E+00 0. -1.
          2    1    5    5  502    0  0.25427430287E+03  0.17676987155E+03 -0.13286890236E+03  0.33698242358E+03  0.00000000000E+00 0. -1.
          1    1    6    6  503    0  0.52897026440E+02  0.28028120038E+02  0.16888249117E+03  0.17917858896E+03  0.00000000000E+00 0. -1.
         -2    1    5    5    0  502  0.21311932025E+03  0.26211079250E+03 -0.15082379782E+03  0.36995909260E+03  0.00000000000E+00 0.  1.
         -1    1    6    6    0  503  0.23424493357E+03  0.92240611310E+01  0.32976555891E+03  0.40459992097E+03  0.00000000000E+00 0.  1.
<mgrwt>
<rscale>  0 0.23266935E+04</rscale>
<asrwt>0</asrwt>
<pdfrwt beam="1">  1        3 0.29169580E+00 0.23266935E+04</pdfrwt>
<pdfrwt beam="2">  1       -3 0.10981495E+00 0.23266935E+04</pdfrwt>
<totfact> 0.71036004E-02</totfact>
</mgrwt>
</event>
<event>
12    1  0.4672461E-008  0.1592168E+04  0.7818608E-02  0.8825374E-01
         -2   -1    0    0    0  501 -0.00000000000E+00  0.00000000000E+00  0.74843026680E+03  0.74843026680E+03  0.00000000000E+00 0.  1.
          2   -1    0    0  501    0  0.00000000000E+00 -0.00000000000E+00 -0.84677224290E+03  0.84677224290E+03  0.00000000000E+00 0. -1.
         23    2    1    2    0    0 -0.16303125592E+03 -0.34678346230E+03  0.35362436019E+03  0.52946483127E+03  0.91895915596E+02 0.  0.
        254    2    1    2    0    0  0.16303125592E+03  0.34678346230E+03 -0.45196633629E+03  0.10657376784E+04  0.88582462709E+03 0.  0.
         23    2    4    4    0    0  0.93990481274E+02  0.24730520790E+03  0.23318628453E+03  0.36395302452E+03  0.89954901714E+02 0.  0.
         23    2    4    4    0    0  0.69040774642E+02  0.99478254391E+02 -0.68515262082E+03  0.70178465391E+03  0.91678977895E+02 0.  0.
         11    1    3    3    0    0 -0.13867704491E+03 -0.19049211033E+03  0.22093318936E+03  0.32300161152E+03  0.00000000000E+00 0.  1.
        -11    1    3    3    0    0 -0.24354211006E+02 -0.15629135197E+03  0.13269117083E+03  0.20646321975E+03  0.00000000000E+00 0. -1.
          2    1    5    5  502    0  0.65983660913E+02  0.21528191512E+03  0.22907951951E+03  0.32121265969E+03  0.00000000000E+00 0. -1.
          3    1    6    6  503    0  0.30388568449E+02  0.88548869101E+02 -0.60424986567E+03  0.61145912985E+03  0.00000000000E+00 0. -1.
         -2    1    5    5    0  502  0.28006820362E+02  0.32023292786E+02  0.41067650188E+01  0.42740364839E+02  0.00000000000E+00 0.  1.
         -3    1    6    6    0  503  0.38652206193E+02  0.10929385290E+02 -0.80902755149E+02  0.90325524062E+02  0.00000000000E+00 0.  1.
<mgrwt>
<rscale>  0 0.15921683E+04</rscale>
<asrwt>0</asrwt>
<pdfrwt beam="1">  1        2 0.13027265E+00 0.15921683E+04</pdfrwt>
<pdfrwt beam="2">  1       -2 0.11514312E+00 0.15921683E+04</pdfrwt>
<totfact> 0.17996285E+01</totfact>
</mgrwt>
</event>
<event>
12    1  0.4672461E-008  0.1378371E+04  0.7818608E-02  0.8969625E-01
         -1   -1    0    0    0  501 -0.00000000000E+00  0.00000000000E+00  0.41118468475E+03  0.41118468475E+03  0.00000000000E+00 0.  1.
          1   -1    0    0  501    0  0.00000000000E+00 -0.00000000000E+00 -0.11551416390E+04  0.11551416390E+04  0.00000000000E+00 0. -1.
         23    2    1    2    0    0 -0.52961887857E+02 -0.15980461304E+03  0.18069862822E+03  0.26330397266E+03  0.91293547752E+02 0.  0.
        254    2    1    2    0    0  0.52961887857E+02  0.15980461304E+03 -0.92465558246E+03  0.13030223511E+04  0.90251693908E+03 0.  0.
         23    2    4    4    0    0  0.28237705317E+03  0.40253349281E+03 -0.28428635290E+03  0.57508723304E+03  0.90203005354E+02 0.  0.
         23    2    4    4    0    0 -0.22941516531E+03 -0.24272887976E+03 -0.64036922956E+03  0.72793511804E+03  0.90929416370E+02 0.  0.
         13    1    3    3    0    0 -0.77059110634E+02 -0.13848195858E+03  0.14031278048E+03  0.21166727605E+03  0.00000000000E+00 0.  1.
        -13    1    3    3    0    0  0.24097222777E+02 -0.21322654461E+02  0.40385847737E+02  0.51636696605E+02  0.00000000000E+00 0. -1.
          2    1    5    5  502    0  0.91901371483E+02  0.69957872505E+02 -0.82635030158E+02  0.14201589423E+03  0.00000000000E+00 0. -1.
          3    1    6    6  503    0 -0.57485883523E+02 -0.19440634141E+02 -0.77238416065E+02  0.98225953681E+02  0.00000000000E+00 0. -1.
         -2    1    5    5    0  502  0.19047568168E+03  0.33257562030E+03 -0.20165132274E+03  0.43307133881E+03  0.00000000000E+00 0.  1.
         -3    1    6    6    0  503 -0.17192928179E+03 -0.22328824562E+03 -0.56313081350E+03  0.62970916436E+03  0.00000000000E+00 0.  1.
<mgrwt>
<rscale>  0 0.13783709E+04</rscale>
<asrwt>0</asrwt>
<pdfrwt beam="1">  1        1 0.17771409E+00 0.13783709E+04</pdfrwt>
<pdfrwt beam="2">  1       -1 0.63259183E-01 0.13783709E+04</pdfrwt>
<totfact> 0.28543621E+01</totfact>
</mgrwt>
</event>
<event>
12    1  0.4672461E-008  0.2187485E+04  0.7818608E-02  0.8523655E-01
          1   -1    0    0  501    0  0.00000000000E+00  0.00000000000E+00  0.25783753632E+04  0.25783753632E+04  0.00000000000E+00 0. -1.
         -1   -1    0    0    0  501 -0.00000000000E+00 -0.00000000000E+00 -0.46396357796E+03  0.46396357796E+03  0.00000000000E+00 0.  1.
         23    2    1    2    0    0 -0.45895397413E+03 -0.13969149779E+03  0.19195228187E+04  0.19806880857E+04  0.91678656564E+02 0.  0.
        254    2    1    2    0    0  0.45895397413E+03  0.13969149779E+03  0.19488896653E+03  0.10616508555E+04  0.92680546226E+03 0.  0.
         23    2    4    4    0    0  0.35712493517E+03  0.48720001093E+03  0.28914607704E+03  0.67586140054E+03  0.91000598396E+02 0.  0.
         23    2    4    4    0    0  0.10182903896E+03 -0.34750851314E+03 -0.94257110516E+02  0.38578945500E+03  0.93903039500E+02 0.  0.
         11    1    3    3    0    0 -0.22999341246E+03 -0.61553194663E+02  0.76937591368E+03  0.80537262314E+03  0.00000000000E+00 0. -1.
        -11    1    3    3    0    0 -0.22896056167E+03 -0.78138303128E+02  0.11501469051E+04  0.11753154625E+04  0.00000000000E+00 0.  1.
          4    1    5    5  502    0  0.31913675668E+03  0.43847652615E+03  0.22602115076E+03  0.58753339824E+03  0.00000000000E+00 0. -1.
          3    1    6    6  503    0  0.10851087347E+03 -0.32863992548E+03 -0.67892458914E+02  0.35268710815E+03  0.00000000000E+00 0. -1.
         -4    1    5    5    0  502  0.37988178483E+02  0.48723484772E+02  0.63124926280E+02  0.88328002302E+02  0.00000000000E+00 0.  1.
         -3    1    6    6    0  503 -0.66818345083E+01 -0.18868587656E+02 -0.26364651602E+02  0.33102346844E+02  0.00000000000E+00 0.  1.
<mgrwt>
<rscale>  0 0.21874846E+04</rscale>
<asrwt>0</asrwt>
<pdfrwt beam="1">  1        1 0.39667312E+00 0.21874846E+04</pdfrwt>
<pdfrwt beam="2">  1       -1 0.71379014E-01 0.21874846E+04</pdfrwt>
<totfact> 0.21614412E+00</totfact>
</mgrwt>
</event>
<event>
12    1  0.4672461E-008  0.1311205E+04  0.7818608E-02  0.9020727E-01
          1   -1    0    0  501    0  0.00000000000E+00  0.00000000000E+00  0.18816342522E+04  0.18816342522E+04  0.00000000000E+00 0. -1.
         -1   -1    0    0    0  501 -0.00000000000E+00 -0.00000000000E+00 -0.22842616534E+03  0.22842616534E+03  0.00000000000E+00 0.  1.
         23    2    1    2    0    0  0.88675554905E+02  0.29717532614E+03  0.57817035769E+03  0.66288429571E+03  0.94647231811E+02 0.  0.
        254    2    1    2    0    0 -0.88675554905E+02 -0.29717532614E+03  0.10750377292E+04  0.14471761219E+04  0.91784316741E+03 0.  0.
         23    2    4    4    0    0 -0.42715082095E+03 -0.81691714096E+02  0.21452739022E+03  0.49338573018E+03  0.90973169663E+02 0.  0.
         23    2    4    4    0    0  0.33847526604E+03 -0.21548361204E+03  0.86051033899E+03  0.95379039169E+03  0.90771002987E+02 0.  0.
         13    1    3    3    0    0  0.79046709555E+02  0.15825084879E+03  0.39489206276E+03  0.43270250134E+03  0.00000000000E+00 0. -1.
        -13    1    3    3    0    0  0.96288453498E+01  0.13892447735E+03  0.18327829493E+03  0.23018179437E+03  0.00000000000E+00 0.  1.
          4    1    5    5  502    0 -0.40465915126E+03 -0.97690598021E+02  0.20620587444E+03  0.46455714858E+03  0.00000000000E+00 0. -1.
          3    1    6    6  503    0  0.32311579944E+03 -0.21939834046E+03  0.78690959861E+03  0.87850222995E+03  0.00000000000E+00 0. -1.
         -4    1    5    5    0  502 -0.22491669687E+02  0.15998883924E+02  0.83215157801E+01  0.28828581599E+02  0.00000000000E+00 0.  1.
         -3    1    6    6    0  503  0.15359466609E+02  0.39147284229E+01  0.73600740383E+02  0.75288161739E+02  0.00000000000E+00 0.  1.
<mgrwt>
<rscale>  0 0.13112048E+04</rscale>
<asrwt>0</asrwt>
<pdfrwt beam="1">  1        1 0.28948218E+00 0.13112048E+04</pdfrwt>
<pdfrwt beam="2">  1       -1 0.35142488E-01 0.13112048E+04</pdfrwt>
<totfact> 0.27135992E+01</totfact>
</mgrwt>
</event>
<event>
12    1  0.4672461E-008  0.1451682E+04  0.7818608E-02  0.8917235E-01
          2   -1    0    0  501    0  0.00000000000E+00  0.00000000000E+00  0.13740544639E+04  0.13740544639E+04  0.00000000000E+00 0. -1.
         -2   -1    0    0    0  501 -0.00000000000E+00 -0.00000000000E+00 -0.38342384629E+03  0.38342384629E+03  0.00000000000E+00 0.  1.
         23    2    1    2    0    0  0.34993711713E+03 -0.26177132378E+03  0.36631569082E+03  0.57705641047E+03  0.88468658998E+02 0.  0.
        254    2    1    2    0    0 -0.34993711713E+03  0.26177132378E+03  0.62431492677E+03  0.11804218997E+04  0.90146909077E+03 0.  0.
         23    2    4    4    0    0  0.30383883718E+01 -0.30188754603E+03  0.29685162766E+03  0.43355227952E+03  0.93281123399E+02 0.  0.
         23    2    4    4    0    0 -0.35297550551E+03  0.56365886981E+03  0.32746329912E+03  0.74686962019E+03  0.90988945998E+02 0.  0.
         11    1    3    3    0    0  0.19070577798E+03 -0.14325287900E+03  0.14225622115E+03  0.27771732670E+03  0.00000000000E+00 0. -1.
        -11    1    3    3    0    0  0.15923133916E+03 -0.11851844478E+03  0.22405946967E+03  0.29933908377E+03  0.00000000000E+00 0.  1.
          2    1    5    5  502    0 -0.25582337608E+02 -0.61068161621E+02  0.29170826025E+02  0.72351319630E+02  0.00000000000E+00 0. -1.
          3    1    6    6  503    0 -0.37253782390E+02  0.77400148119E+02  0.76843189914E+02  0.11525408048E+03  0.00000000000E+00 0. -1.
         -2    1    5    5    0  502  0.28620725980E+02 -0.24081938441E+03  0.26768080163E+03  0.36120095989E+03  0.00000000000E+00 0.  1.
         -3    1    6    6    0  503 -0.31572172312E+03  0.48625872169E+03  0.25062010920E+03  0.63161553971E+03  0.00000000000E+00 0.  1.
<mgrwt>
<rscale>  0 0.14516821E+04</rscale>
<asrwt>0</asrwt>
<pdfrwt beam="1">  1        2 0.21139299E+00 0.14516821E+04</pdfrwt>
<pdfrwt beam="2">  1       -2 0.58988285E-01 0.14516821E+04</pdfrwt>
<totfact> 0.38981568E+01</totfact>
</mgrwt>
</event>
<event>
12    1  0.4672461E-008  0.2054199E+04  0.7818608E-02  0.8581692E-01
          2   -1    0    0  501    0  0.00000000000E+00  0.00000000000E+00  0.15027137935E+04  0.15027137935E+04  0.00000000000E+00 0.  1.
         -2   -1    0    0    0  501 -0.00000000000E+00 -0.00000000000E+00 -0.70201913299E+03  0.70201913299E+03  0.00000000000E+00 0. -1.
         23    2    1    2    0    0 -0.75229548526E+02 -0.82056783614E+03  0.36499746713E+03  0.90582197021E+03  0.91100120895E+02 0.  0.
        254    2    1    2    0    0  0.75229548526E+02  0.82056783614E+03  0.43569719335E+03  0.12989109563E+04  0.90462509877E+03 0.  0.
         23    2    4    4    0    0 -0.16957009074E+03 -0.42673114387E+02  0.33942325731E+03  0.39184660048E+03  0.88094269609E+02 0.  0.
         23    2    4    4    0    0  0.24479963927E+03  0.86324095052E+03  0.96273936037E+02  0.90706435578E+03  0.91571134724E+02 0.  0.
         13    1    3    3    0    0 -0.55054842689E+02 -0.25934045962E+03  0.14903874306E+03  0.30413986360E+03  0.00000000000E+00 0.  1.
        -13    1    3    3    0    0 -0.20174705837E+02 -0.56122737652E+03  0.21595872407E+03  0.60168210661E+03  0.00000000000E+00 0. -1.
          2    1    5    5  502    0 -0.16111245123E+03 -0.61457899429E+02  0.32015391166E+03  0.36363831275E+03  0.00000000000E+00 0. -1.
          1    1    6    6  503    0  0.20093292851E+03  0.75929794915E+03  0.11117680978E+03  0.79326395379E+03  0.00000000000E+00 0. -1.
         -2    1    5    5    0  502 -0.84576395160E+01  0.18784785042E+02  0.19269345648E+02  0.28208287736E+02  0.00000000000E+00 0.  1.
         -1    1    6    6    0  503  0.43866710758E+02  0.10394300137E+03 -0.14902873748E+02  0.11380040199E+03  0.00000000000E+00 0.  1.
<mgrwt>
<rscale>  0 0.20541994E+04</rscale>
<asrwt>0</asrwt>
<pdfrwt beam="1">  1        2 0.23118674E+00 0.20541994E+04</pdfrwt>
<pdfrwt beam="2">  1       -2 0.10800294E+00 0.20541994E+04</pdfrwt>
<totfact> 0.80368682E+00</totfact>
</mgrwt>
</event>
<event>
12    1  0.4672461E-008  0.2014782E+04  0.7818608E-02  0.8599741E-01
          2   -1    0    0  501    0  0.00000000000E+00  0.00000000000E+00  0.83769718963E+03  0.83769718963E+03  0.00000000000E+00 0. -1.
         -2   -1    0    0    0  501 -0.00000000000E+00 -0.00000000000E+00 -0.12114594147E+04  0.12114594147E+04  0.00000000000E+00 0.  1.
         23    2    1    2    0    0 -0.57704853791E+03  0.51960431356E+03 -0.35167108238E+03  0.85744707227E+03  0.92570372063E+02 0.  0.
        254    2    1    2    0    0  0.57704853791E+03 -0.51960431356E+03 -0.22091142727E+02  0.11917095321E+04  0.90372005207E+03 0.  0.
         23    2    4    4    0    0  0.43086899285E+03 -0.66513372133E+03  0.25244078205E+03  0.83664384202E+03  0.90529628786E+02 0.  0.
         23    2    4    4    0    0  0.14617954506E+03  0.14552940777E+03 -0.27453192478E+03  0.35506569008E+03  0.90313889450E+02 0.  0.
         13    1    3    3    0    0 -0.15677688127E+03  0.11822174665E+03 -0.49803584211E+02  0.20257287302E+03  0.00000000000E+00 0. -1.
        -13    1    3    3    0    0 -0.42027165664E+03  0.40138256691E+03 -0.30186749817E+03  0.65487419925E+03  0.00000000000E+00 0.  1.
          1    1    5    5  502    0  0.18009811601E+02 -0.53072755379E+02  0.38452613353E+02  0.67968184845E+02  0.00000000000E+00 0. -1.
          1    1    6    6  503    0  0.12013994670E+03  0.59882119187E+02 -0.18386605006E+03  0.22765368294E+03  0.00000000000E+00 0. -1.
         -1    1    5    5    0  502  0.41285918125E+03 -0.61206096595E+03  0.21398816870E+03  0.76867565717E+03  0.00000000000E+00 0.  1.
         -1    1    6    6    0  503  0.26039598360E+02  0.85647288582E+02 -0.90665874722E+02  0.12741200714E+03  0.00000000000E+00 0.  1.
<mgrwt>
<rscale>  0 0.20147815E+04</rscale>
<asrwt>0</asrwt>
<pdfrwt beam="1">  1        2 0.12887649E+00 0.20147815E+04</pdfrwt>
<pdfrwt beam="2">  1       -2 0.18637837E+00 0.20147815E+04</pdfrwt>
<totfact> 0.49241123E+00</totfact>
</mgrwt>
</event>
<event>
12    1  0.4672461E-008  0.1240868E+04  0.7818608E-02  0.9077818E-01
          2   -1    0    0  501    0  0.00000000000E+00  0.00000000000E+00  0.44529171688E+04  0.44529171688E+04  0.00000000000E+00 0.  1.
         -2   -1    0    0    0  501 -0.00000000000E+00 -0.00000000000E+00 -0.86446313093E+02  0.86446313093E+02  0.00000000000E+00 0. -1.
         23    2    1    2    0    0  0.21248137094E+03 -0.63010779364E+02  0.41665739843E+03  0.48049478514E+03  0.90294847959E+02 0.  0.
        254    2    1    2    0    0 -0.21248137094E+03  0.63010779364E+02  0.39498134573E+04  0.40588686968E+04  0.90789319797E+03 0.  0.
         23    2    4    4    0    0  0.79861941653E+02  0.78842985351E+02  0.61596074581E+02  0.15833310580E+03  0.93172688728E+02 0.  0.
         23    2    4    4    0    0 -0.29234331259E+03 -0.15832205987E+02  0.38882173827E+04  0.39005355910E+04  0.10113461352E+03 0.  0.
         13    1    3    3    0    0  0.60465399687E+02 -0.31271783405E+02  0.57157720627E+02  0.88887535819E+02  0.00000000000E+00 0.  1.
        -13    1    3    3    0    0  0.15201597125E+03 -0.31738995960E+02  0.35949967780E+03  0.39160724932E+03  0.00000000000E+00 0. -1.
          4    1    5    5  502    0 -0.13810307484E+02  0.38337166442E+02  0.32754049731E+02  0.52280882715E+02  0.00000000000E+00 0. -1.
          3    1    6    6  503    0 -0.18293441810E+03 -0.48552811025E+02  0.27848818499E+04  0.27913060195E+04  0.00000000000E+00 0. -1.
         -4    1    5    5    0  502  0.93672249138E+02  0.40505818909E+02  0.28842024850E+02  0.10605222309E+03  0.00000000000E+00 0.  1.
         -3    1    6    6    0  503 -0.10940889449E+03  0.32720605038E+02  0.11033355329E+04  0.11092295715E+04  0.00000000000E+00 0.  1.
<mgrwt>
<rscale>  0 0.12408679E+04</rscale>
<asrwt>0</asrwt>
<pdfrwt beam="1">  1        2 0.68506400E+00 0.12408679E+04</pdfrwt>
<pdfrwt beam="2">  1       -2 0.13299436E-01 0.12408679E+04</pdfrwt>
<totfact> 0.60948377E+00</totfact>
</mgrwt>
</event>
<event>
12    1  0.4672461E-008  0.1325611E+04  0.7818608E-02  0.9009499E-01
         -1   -1    0    0    0  501 -0.00000000000E+00  0.00000000000E+00  0.58298456048E+03  0.58298456048E+03  0.00000000000E+00 0.  1.
          1   -1    0    0  501    0  0.00000000000E+00 -0.00000000000E+00 -0.75355492568E+03  0.75355492568E+03  0.00000000000E+00 0. -1.
         23    2    1    2    0    0 -0.14332513279E+03  0.68740933090E+02 -0.35914173496E+03  0.40316166617E+03  0.91044679745E+02 0.  0.
        254    2    1    2    0    0  0.14332513279E+03 -0.68740933090E+02  0.18857136975E+03  0.93337781999E+03  0.90020419005E+03 0.  0.
         23    2    4    4    0    0 -0.15537975802E+03 -0.39669608861E+03  0.20149577106E+03  0.47982829042E+03  0.90133160441E+02 0.  0.
         23    2    4    4    0    0  0.29870489081E+03  0.32795515552E+03 -0.12924401309E+02  0.45354952957E+03  0.93599892096E+02 0.  0.
         11    1    3    3    0    0 -0.12549648625E+03  0.83728879371E+02 -0.34331944634E+03  0.37500418069E+03  0.00000000000E+00 0. -1.
        -11    1    3    3    0    0 -0.17828646545E+02 -0.14987946281E+02 -0.15822288613E+02  0.28157485475E+02  0.00000000000E+00 0.  1.
          2    1    5    5  502    0 -0.19638800817E+01 -0.89295724767E+02  0.21041398606E+02  0.91762322017E+02  0.00000000000E+00 0. -1.
          4    1    6    6  503    0  0.87054167865E+02  0.42364150411E+02  0.10071198897E+02  0.97337446185E+02  0.00000000000E+00 0. -1.
         -2    1    5    5    0  502 -0.15341587794E+03 -0.30740036384E+03  0.18045437246E+03  0.38806596840E+03  0.00000000000E+00 0.  1.
         -4    1    6    6    0  503  0.21165072295E+03  0.28559100511E+03 -0.22995600206E+02  0.35621208338E+03  0.00000000000E+00 0.  1.
<mgrwt>
<rscale>  0 0.13256106E+04</rscale>
<asrwt>0</asrwt>
<pdfrwt beam="1">  1        1 0.11593153E+00 0.13256106E+04</pdfrwt>
<pdfrwt beam="2">  1       -1 0.89689933E-01 0.13256106E+04</pdfrwt>
<totfact> 0.29032768E+01</totfact>
</mgrwt>
</event>
<event>
12    1  0.4672461E-008  0.1462567E+04  0.7818608E-02  0.8909734E-01
         -2   -1    0    0    0  501 -0.00000000000E+00  0.00000000000E+00  0.90531842341E+03  0.90531842341E+03  0.00000000000E+00 0.  1.
          2   -1    0    0  501    0  0.00000000000E+00 -0.00000000000E+00 -0.59070408465E+03  0.59070408465E+03  0.00000000000E+00 0. -1.
         23    2    1    2    0    0  0.23071445402E+03 -0.13338382947E+03  0.46694640281E+03  0.54503682076E+03  0.89475067079E+02 0.  0.
        254    2    1    2    0    0 -0.23071445402E+03  0.13338382947E+03 -0.15233206405E+03  0.95098568730E+03  0.90008239315E+03 0.  0.
         23    2    4    4    0    0 -0.34024391376E+03  0.38991892329E+03  0.13352334855E+03  0.54137292162E+03  0.86333470155E+02 0.  0.
         23    2    4    4    0    0  0.10952945974E+03 -0.25653509381E+03 -0.28585541260E+03  0.40961276568E+03  0.90897436657E+02 0.  0.
         11    1    3    3    0    0  0.99420832735E+02 -0.83304156279E+01  0.16204910649E+03  0.19029926621E+03  0.00000000000E+00 0. -1.
        -11    1    3    3    0    0  0.13129362129E+03 -0.12505341385E+03  0.30489729632E+03  0.35473755455E+03  0.00000000000E+00 0.  1.
          2    1    5    5  502    0 -0.21083252225E+03  0.30107294431E+03  0.88221498538E+02  0.37799246426E+03  0.00000000000E+00 0.  1.
          3    1    6    6  503    0  0.10626264675E+02  0.18926214818E+00 -0.37505790029E+02  0.38982529507E+02  0.00000000000E+00 0. -1.
         -2    1    5    5    0  502 -0.12941139151E+03  0.88845978975E+02  0.45301850007E+02  0.16338045736E+03  0.00000000000E+00 0. -1.
         -3    1    6    6    0  503  0.98903195062E+02 -0.25672435596E+03 -0.24834962257E+03  0.37063023618E+03  0.00000000000E+00 0.  1.
<mgrwt>
<rscale>  0 0.14625666E+04</rscale>
<asrwt>0</asrwt>
<pdfrwt beam="1">  1        2 0.90877552E-01 0.14625666E+04</pdfrwt>
<pdfrwt beam="2">  1       -2 0.13927976E+00 0.14625666E+04</pdfrwt>
<totfact> 0.17814663E+01</totfact>
</mgrwt>
</event>
<event>
12    1  0.4672461E-008  0.2423396E+04  0.7818608E-02  0.8430796E-01
          1   -1    0    0  501    0  0.00000000000E+00  0.00000000000E+00  0.31285600747E+04  0.31285600747E+04  0.00000000000E+00 0. -1.
         -1   -1    0    0    0  501 -0.00000000000E+00 -0.00000000000E+00 -0.46929316854E+03  0.46929316854E+03  0.00000000000E+00 0.  1.
         23    2    1    2    0    0 -0.19278299823E+03  0.53730674011E+02 -0.37163989127E+03  0.43211965938E+03  0.92514439428E+02 0.  0.
        254    2    1    2    0    0  0.19278299823E+03 -0.53730674011E+02  0.30309067975E+04  0.31657335839E+04  0.89186368883E+03 0.  0.
         23    2    4    4    0    0  0.47639581605E+03 -0.11167110592E+03  0.25426174735E+04  0.25908642708E+04  0.90833053526E+02 0.  0.
         23    2    4    4    0    0 -0.28361281782E+03  0.57940431907E+02  0.48828932397E+03  0.57486931310E+03  0.90856695764E+02 0.  0.
         11    1    3    3    0    0 -0.17984414335E+03  0.15988380074E+02 -0.30172295981E+03  0.35161952260E+03  0.00000000000E+00 0.  1.
        -11    1    3    3    0    0 -0.12938854880E+02  0.37742293937E+02 -0.69916931465E+02  0.80500136787E+02  0.00000000000E+00 0. -1.
          3    1    6    6  502    0 -0.88922835163E+02 -0.24089746880E+02  0.14762921710E+03  0.17401716082E+03  0.00000000000E+00 0. -1.
          3    1    5    5  503    0  0.56313516527E+00 -0.34795033988E+01  0.95631567906E+02  0.95696503830E+02  0.00000000000E+00 0. -1.
         -3    1    5    5    0  503  0.47583268088E+03 -0.10819160252E+03  0.24469859056E+04  0.24951677669E+04  0.00000000000E+00 0.  1.
         -3    1    6    6    0  502 -0.19468998266E+03  0.82030178787E+02  0.34066010686E+03  0.40085215228E+03  0.00000000000E+00 0.  1.
<mgrwt>
<rscale>  0 0.24233959E+04</rscale>
<asrwt>0</asrwt>
<pdfrwt beam="1">  1        1 0.48131692E+00 0.24233959E+04</pdfrwt>
<pdfrwt beam="2">  1       -1 0.72198951E-01 0.24233959E+04</pdfrwt>
<totfact> 0.83231301E-01</totfact>
</mgrwt>
</event>
<event>
12    1  0.4672461E-008  0.1595771E+04  0.7818608E-02  0.8823150E-01
          1   -1    0    0  501    0  0.00000000000E+00  0.00000000000E+00  0.27015904253E+04  0.27015904253E+04  0.00000000000E+00 0. -1.
         -1   -1    0    0    0  501 -0.00000000000E+00 -0.00000000000E+00 -0.23564691450E+03  0.23564691450E+03  0.00000000000E+00 0.  1.
         23    2    1    2    0    0 -0.14793862126E+02 -0.14260055543E+03 -0.10996942188E+03  0.20196673852E+03  0.90241414836E+02 0.  0.
        254    2    1    2    0    0  0.14793862126E+02  0.14260055543E+03  0.25759129326E+04  0.27352706012E+04  0.90874861688E+03 0.  0.
         23    2    4    4    0    0 -0.29987563297E+03 -0.22142162211E+03  0.15723368829E+04  0.16184526900E+04  0.90514675399E+02 0.  0.
         23    2    4    4    0    0  0.31466949509E+03  0.36402217755E+03  0.10035760498E+04  0.11168179113E+04  0.92673201938E+02 0.  0.
         13    1    3    3    0    0 -0.73003618069E+01 -0.42981193199E+02 -0.90122368501E+02  0.10011353333E+03  0.00000000000E+00 0.  1.
        -13    1    3    3    0    0 -0.74935003188E+01 -0.99619362235E+02 -0.19847053378E+02  0.10185320519E+03  0.00000000000E+00 0. -1.
          4    1    5    5  502    0 -0.28920819927E+03 -0.20596625400E+03  0.13705318613E+04  0.14157757814E+04  0.00000000000E+00 0. -1.
          1    1    6    6  503    0  0.13661789502E+03  0.21955233911E+03  0.47962293205E+03  0.54489066408E+03  0.00000000000E+00 0. -1.
         -4    1    5    5    0  502 -0.10667433701E+02 -0.15455368116E+02  0.20180502158E+03  0.20267690860E+03  0.00000000000E+00 0.  1.
         -1    1    6    6    0  503  0.17805160008E+03  0.14446983843E+03  0.52395311770E+03  0.57192724717E+03  0.00000000000E+00 0.  1.
<mgrwt>
<rscale>  0 0.15957712E+04</rscale>
<asrwt>0</asrwt>
<pdfrwt beam="1">  1        1 0.41562927E+00 0.15957712E+04</pdfrwt>
<pdfrwt beam="2">  1       -1 0.36253373E-01 0.15957712E+04</pdfrwt>
<totfact> 0.68644642E+00</totfact>
</mgrwt>
</event>
<event>
12    1  0.5573891E-008  0.2803735E+04  0.7818608E-02  0.8302110E-01
         -1   -1    0    0    0  501 -0.00000000000E+00  0.00000000000E+00  0.71019166893E+03  0.71019166893E+03  0.00000000000E+00 0.  1.
          1   -1    0    0  501    0  0.00000000000E+00 -0.00000000000E+00 -0.27671855640E+04  0.27671855640E+04  0.00000000000E+00 0. -1.
         23    2    1    2    0    0  0.73015445418E+03 -0.25594748500E+03  0.30186315719E+03  0.83548832937E+03  0.91020551590E+02 0.  0.
        254    2    1    2    0    0 -0.73015445418E+03  0.25594748500E+03 -0.23588570522E+04  0.26418889035E+04  0.90373433246E+03 0.  0.
         23    2    4    4    0    0 -0.29635328349E+03  0.55356302686E+03 -0.10298407028E+04  0.12098340375E+04  0.94176599846E+02 0.  0.
         23    2    4    4    0    0 -0.43380117068E+03 -0.29761554186E+03 -0.13290163494E+04  0.14320548660E+04  0.87967127997E+02 0.  0.
         11    1    3    3    0    0  0.56447408483E+03 -0.17762768048E+03  0.19353655909E+03  0.62260660535E+03  0.00000000000E+00 0.  1.
        -11    1    3    3    0    0  0.16568036935E+03 -0.78319804522E+02  0.10832659810E+03  0.21288172402E+03  0.00000000000E+00 0. -1.
          1    1    5    5  502    0 -0.38062684014E+02  0.92605274185E+02 -0.23440026402E+03  0.25488818822E+03  0.00000000000E+00 0. -1.
          3    1    6    6  503    0 -0.19267336156E+02 -0.57389501611E+01 -0.20299187964E+02  0.28569613639E+02  0.00000000000E+00 0. -1.
         -1    1    5    5    0  502 -0.25829059948E+03  0.46095775268E+03 -0.79544043875E+03  0.95494584932E+03  0.00000000000E+00 0.  1.
         -3    1    6    6    0  503 -0.41453383453E+03 -0.29187659170E+03 -0.13087171615E+04  0.14034852523E+04  0.00000000000E+00 0.  1.
<mgrwt>
<rscale>  0 0.28037347E+04</rscale>
<asrwt>0</asrwt>
<pdfrwt beam="1">  1        1 0.42572085E+00 0.28037347E+04</pdfrwt>
<pdfrwt beam="2">  1       -1 0.10926026E+00 0.28037347E+04</pdfrwt>
<totfact> 0.58990049E-01</totfact>
</mgrwt>
</event>
<event>
12    1  0.4672461E-008  0.2176439E+04  0.7818608E-02  0.8528299E-01
         -2   -1    0    0    0  501 -0.00000000000E+00  0.00000000000E+00  0.25017548350E+03  0.25017548350E+03  0.00000000000E+00 0. -1.
          2   -1    0    0  501    0  0.00000000000E+00 -0.00000000000E+00 -0.47335623772E+04  0.47335623772E+04  0.00000000000E+00 0.  1.
         23    2    1    2    0    0  0.23616029269E+03 -0.45757557282E+03 -0.17384118604E+03  0.55119824266E+03  0.91932888887E+02 0.  0.
        254    2    1    2    0    0 -0.23616029269E+03  0.45757557282E+03 -0.43095457077E+04  0.44325396181E+04  0.90004231595E+03 0.  0.
         23    2    4    4    0    0  0.30562193324E+03  0.24574120649E+03 -0.11603734694E+04  0.12287128670E+04  0.97340712837E+02 0.  0.
         23    2    4    4    0    0 -0.54178222593E+03  0.21183436633E+03 -0.31491722383E+04  0.32038267511E+04  0.93905726700E+02 0.  0.
         11    1    3    3    0    0  0.14555892064E+03 -0.26167647412E+03 -0.14739819549E+03  0.33374871463E+03  0.00000000000E+00 0. -1.
        -11    1    3    3    0    0  0.90601372047E+02 -0.19589909870E+03 -0.26442990555E+02  0.21744952803E+03  0.00000000000E+00 0.  1.
          2    1    5    5  502    0  0.26143009001E+03  0.24242030272E+03 -0.97578252304E+03  0.10388767142E+04  0.00000000000E+00 0. -1.
          1    1    6    6  503    0 -0.39531995643E+03  0.10912659109E+03 -0.21481770270E+04  0.21869730269E+04  0.00000000000E+00 0. -1.
         -2    1    5    5    0  502  0.44191843230E+02  0.33209037650E+01 -0.18459094637E+03  0.18983615276E+03  0.00000000000E+00 0.  1.
         -1    1    6    6    0  503 -0.14646226950E+03  0.10270777525E+03 -0.10009952112E+04  0.10168537242E+04  0.00000000000E+00 0.  1.
<mgrwt>
<rscale>  0 0.21764386E+04</rscale>
<asrwt>0</asrwt>
<pdfrwt beam="1">  1        2 0.72824032E+00 0.21764386E+04</pdfrwt>
<pdfrwt beam="2">  1       -2 0.38488538E-01 0.21764386E+04</pdfrwt>
<totfact> 0.41832635E-01</totfact>
</mgrwt>
</event>
<event>
12    1  0.4672461E-008  0.2099359E+04  0.7818608E-02  0.8561526E-01
          2   -1    0    0  501    0  0.00000000000E+00  0.00000000000E+00  0.15323725403E+04  0.15323725403E+04  0.00000000000E+00 0. -1.
         -2   -1    0    0    0  501 -0.00000000000E+00 -0.00000000000E+00 -0.71903345314E+03  0.71903345314E+03  0.00000000000E+00 0.  1.
         23    2    1    2    0    0 -0.13846686699E+03  0.26682428698E+03 -0.52380620062E+03  0.61041009894E+03  0.88652578710E+02 0.  0.
        254    2    1    2    0    0  0.13846686699E+03 -0.26682428698E+03  0.13371452877E+04  0.16409958945E+04  0.90251965726E+03 0.  0.
         23    2    4    4    0    0 -0.97178213846E+02  0.10926481701E+03  0.11294968917E+04  0.11424655998E+04  0.89900016748E+02 0.  0.
         23    2    4    4    0    0  0.23564508084E+03 -0.37608910398E+03  0.20764839607E+03  0.49853029463E+03  0.91885689976E+02 0.  0.
         13    1    3    3    0    0 -0.10120625089E+03  0.11275652503E+03 -0.21137370630E+03  0.26006841959E+03  0.00000000000E+00 0. -1.
        -13    1    3    3    0    0 -0.37260616104E+02  0.15406776195E+03 -0.31243249431E+03  0.35034167935E+03  0.00000000000E+00 0.  1.
          4    1    5    5  502    0 -0.76557165155E+02  0.25715932353E+02  0.41325542388E+03  0.42107286077E+03  0.00000000000E+00 0. -1.
          4    1    6    6  503    0  0.36574062265E+02 -0.26303091472E+02  0.47232609033E+02  0.65272000181E+02  0.00000000000E+00 0. -1.
         -4    1    5    5    0  502 -0.20621048691E+02  0.83548884654E+02  0.71624146780E+03  0.72139273906E+03  0.00000000000E+00 0.  1.
         -4    1    6    6    0  503  0.19907101857E+03 -0.34978601251E+03  0.16041578703E+03  0.43325829445E+03  0.00000000000E+00 0.  1.
<mgrwt>
<rscale>  0 0.20993591E+04</rscale>
<asrwt>0</asrwt>
<pdfrwt beam="1">  1        2 0.23574962E+00 0.20993591E+04</pdfrwt>
<pdfrwt beam="2">  1       -2 0.11062053E+00 0.20993591E+04</pdfrwt>
<totfact> 0.72707503E+00</totfact>
</mgrwt>
</event>
<event>
12    1  0.4672461E-008  0.1290131E+04  0.7818608E-02  0.9037428E-01
          1   -1    0    0  501    0  0.00000000000E+00  0.00000000000E+00  0.22287889172E+04  0.22287889172E+04  0.00000000000E+00 0. -1.
         -1   -1    0    0    0  501 -0.00000000000E+00 -0.00000000000E+00 -0.18669763008E+03  0.18669763008E+03  0.00000000000E+00 0.  1.
         23    2    1    2    0    0  0.28007599937E+03 -0.76746433135E+01  0.79967657317E+03  0.85223948175E+03  0.91258133907E+02 0.  0.
        254    2    1    2    0    0 -0.28007599937E+03  0.76746433135E+01  0.12424147140E+04  0.15632470656E+04  0.90644668949E+03 0.  0.
         23    2    4    4    0    0 -0.56619641463E+03 -0.12895012125E+03  0.97484220643E+03  0.11384156815E+04  0.92013165766E+02 0.  0.
         23    2    4    4    0    0  0.28612041526E+03  0.13662476456E+03  0.26757250757E+03  0.42483138410E+03  0.91408094762E+02 0.  0.
         13    1    3    3    0    0  0.17893948231E+03  0.34402065926E+01  0.62469913761E+03  0.64983089021E+03  0.00000000000E+00 0. -1.
        -13    1    3    3    0    0  0.10113651705E+03 -0.11114849906E+02  0.17497743556E+03  0.20240859153E+03  0.00000000000E+00 0.  1.
          2    1    6    6  502    0  0.27855792357E+02  0.47088600478E+02  0.62817225801E+02  0.83302372836E+02  0.00000000000E+00 0. -1.
          2    1    5    5  503    0 -0.26656843276E+03 -0.81550101930E+02  0.38740159876E+03  0.47727261307E+03  0.00000000000E+00 0. -1.
         -2    1    5    5    0  503 -0.29962798187E+03 -0.47400019320E+02  0.58744060767E+03  0.66114306840E+03  0.00000000000E+00 0.  1.
         -2    1    6    6    0  502  0.25826462290E+03  0.89536164086E+02  0.20475528177E+03  0.34152901126E+03  0.00000000000E+00 0.  1.
<mgrwt>
<rscale>  0 0.12901312E+04</rscale>
<asrwt>0</asrwt>
<pdfrwt beam="1">  1        1 0.34289058E+00 0.12901312E+04</pdfrwt>
<pdfrwt beam="2">  1       -1 0.28722714E-01 0.12901312E+04</pdfrwt>
<totfact> 0.22605819E+01</totfact>
</mgrwt>
</event>
<event>
12    1  0.4672461E-008  0.1682828E+04  0.7818608E-02  0.8771219E-01
         -2   -1    0    0    0  501 -0.00000000000E+00  0.00000000000E+00  0.46355525225E+03  0.46355525225E+03  0.00000000000E+00 0.  1.
          2   -1    0    0  501    0  0.00000000000E+00 -0.00000000000E+00 -0.15272772658E+04  0.15272772658E+04  0.00000000000E+00 0. -1.
         23    2    1    2    0    0 -0.18600779485E+03  0.53466975899E+03 -0.17148579599E+03  0.59887864320E+03  0.93688847437E+02 0.  0.
        254    2    1    2    0    0  0.18600779485E+03 -0.53466975899E+03 -0.89223621757E+03  0.13919538749E+04  0.90607917473E+03 0.  0.
         23    2    4    4    0    0  0.24452908694E+03 -0.75680462400E+03 -0.55570434602E+03  0.97444623077E+03  0.90500956937E+02 0.  0.
         23    2    4    4    0    0 -0.58521292090E+02  0.22213486501E+03 -0.33653187155E+03  0.41750764409E+03  0.91051042942E+02 0.  0.
         11    1    3    3    0    0 -0.16081419343E+01  0.10440778605E+03 -0.46915948201E+02  0.11447566599E+03  0.00000000000E+00 0. -1.
        -11    1    3    3    0    0 -0.18439965292E+03  0.43026197294E+03 -0.12456984779E+03  0.48440297721E+03  0.00000000000E+00 0.  1.
          1    1    6    6  502    0 -0.72338362079E+02  0.12621517869E+03 -0.24050360253E+03  0.28107844597E+03  0.00000000000E+00 0. -1.
          1    1    5    5  503    0  0.19749478894E+03 -0.50337648512E+03 -0.34385973179E+03  0.64080542490E+03  0.00000000000E+00 0. -1.
         -1    1    5    5    0  503  0.47034297998E+02 -0.25342813888E+03 -0.21184461423E+03  0.33364080587E+03  0.00000000000E+00 0.  1.
         -1    1    6    6    0  502  0.13817069989E+02  0.95919686325E+02 -0.96028269016E+02  0.13642919811E+03  0.00000000000E+00 0.  1.
<mgrwt>
<rscale>  0 0.16828279E+04</rscale>
<asrwt>0</asrwt>
<pdfrwt beam="1">  1        2 0.23496573E+00 0.16828279E+04</pdfrwt>
<pdfrwt beam="2">  1       -2 0.71316193E-01 0.16828279E+04</pdfrwt>
<totfact> 0.20831299E+01</totfact>
</mgrwt>
</event>
<event>
12    1  0.4672461E-008  0.2385845E+04  0.7818608E-02  0.8444822E-01
          1   -1    0    0  501    0  0.00000000000E+00  0.00000000000E+00  0.24947642827E+04  0.24947642827E+04  0.00000000000E+00 0. -1.
         -1   -1    0    0    0  501 -0.00000000000E+00 -0.00000000000E+00 -0.57042019690E+03  0.57042019690E+03  0.00000000000E+00 0.  1.
         23    2    1    2    0    0  0.25701640632E+03  0.95694082756E+03  0.49874790144E+03  0.11130914561E+04  0.91814703490E+02 0.  0.
        254    2    1    2    0    0 -0.25701640632E+03 -0.95694082756E+03  0.14255961844E+04  0.19520930236E+04  0.89249622474E+03 0.  0.
         23    2    4    4    0    0  0.27295426633E+03 -0.13772111981E+03  0.17753957562E+03  0.36528765366E+03  0.91889230339E+02 0.  0.
         23    2    4    4    0    0 -0.52997067265E+03 -0.81921970775E+03  0.12480566088E+04  0.15868053699E+04  0.91192871853E+02 0.  0.
         13    1    3    3    0    0  0.12826959883E+03  0.34946277236E+03  0.22017154441E+03  0.43249604417E+03  0.00000000000E+00 0. -1.
        -13    1    3    3    0    0  0.12874680749E+03  0.60747805520E+03  0.27857635703E+03  0.68059541189E+03  0.00000000000E+00 0.  1.
          2    1    5    5  502    0  0.27951811728E+03 -0.13182000281E+03  0.17764351359E+03  0.35646052931E+03  0.00000000000E+00 0. -1.
          1    1    6    6  503    0 -0.53341950485E+03 -0.81620853809E+03  0.12390165966E+04  0.15766720878E+04  0.00000000000E+00 0. -1.
         -2    1    5    5    0  502 -0.65638509520E+01 -0.59011170036E+01 -0.10393797680E+00  0.88271243513E+01  0.00000000000E+00 0.  1.
         -1    1    6    6    0  503  0.34488322068E+01 -0.30111696595E+01  0.90400122044E+01  0.10133282142E+02  0.00000000000E+00 0.  1.
<mgrwt>
<rscale>  0 0.23858449E+04</rscale>
<asrwt>0</asrwt>
<pdfrwt beam="1">  1        1 0.38380988E+00 0.23858449E+04</pdfrwt>
<pdfrwt beam="2">  1       -1 0.87756955E-01 0.23858449E+04</pdfrwt>
<totfact> 0.15648582E+00</totfact>
</mgrwt>
</event>
<event>
12    1  0.4672461E-008  0.1500908E+04  0.7818608E-02  0.8883849E-01
          2   -1    0    0  501    0  0.00000000000E+00  0.00000000000E+00  0.15509377691E+04  0.15509377691E+04  0.00000000000E+00 0.  1.
         -2   -1    0    0    0  501 -0.00000000000E+00 -0.00000000000E+00 -0.36312297557E+03  0.36312297557E+03  0.00000000000E+00 0. -1.
         23    2    1    2    0    0 -0.35657489778E+03  0.18258238718E+03  0.69936153596E+03  0.81099734638E+03  0.90156264489E+02 0.  0.
        254    2    1    2    0    0  0.35657489778E+03 -0.18258238718E+03  0.48845325759E+03  0.11030633983E+04  0.90425676110E+03 0.  0.
         23    2    4    4    0    0  0.19479638254E+03  0.33963940057E+03  0.34411982471E+03  0.52960827513E+03  0.93626482652E+02 0.  0.
         23    2    4    4    0    0  0.16177851524E+03 -0.52222178775E+03  0.14433343289E+03  0.57345512318E+03  0.95554983440E+02 0.  0.
         11    1    3    3    0    0 -0.33580141672E+03  0.17432068535E+03  0.68966113263E+03  0.78662746625E+03  0.00000000000E+00 0.  1.
        -11    1    3    3    0    0 -0.20773481066E+02  0.82617018251E+01  0.97004033301E+01  0.24369880127E+02  0.00000000000E+00 0. -1.
          1    1    5    5  502    0  0.17681648666E+03  0.23768141360E+03  0.28125221732E+03  0.40848419073E+03  0.00000000000E+00 0. -1.
          3    1    6    6  503    0  0.44317120660E+02 -0.28971163781E+03  0.55954610190E+02  0.29837519781E+03  0.00000000000E+00 0. -1.
         -1    1    5    5    0  502  0.17979895880E+02  0.10195798697E+03  0.62867607385E+02  0.12112408440E+03  0.00000000000E+00 0.  1.
         -3    1    6    6    0  503  0.11746139458E+03 -0.23251014994E+03  0.88378822696E+02  0.27507992537E+03  0.00000000000E+00 0.  1.
<mgrwt>
<rscale>  0 0.15009079E+04</rscale>
<asrwt>0</asrwt>
<pdfrwt beam="1">  1        2 0.23860581E+00 0.15009079E+04</pdfrwt>
<pdfrwt beam="2">  1       -2 0.55865074E-01 0.15009079E+04</pdfrwt>
<totfact> 0.34540475E+01</totfact>
</mgrwt>
</event>
<event>
12    1  0.4672461E-008  0.1226887E+04  0.7818608E-02  0.9089643E-01
          1   -1    0    0  501    0  0.00000000000E+00  0.00000000000E+00  0.25949333082E+03  0.25949333082E+03  0.00000000000E+00 0. -1.
         -1   -1    0    0    0  501 -0.00000000000E+00 -0.00000000000E+00 -0.14501829457E+04  0.14501829457E+04  0.00000000000E+00 0.  1.
         23    2    1    2    0    0  0.14363744667E+03 -0.18808525152E+03 -0.47274455132E+03  0.53746564382E+03  0.96820088631E+02 0.  0.
        254    2    1    2    0    0 -0.14363744667E+03  0.18808525152E+03 -0.71794506354E+03  0.11722106327E+04  0.89589333918E+03 0.  0.
         23    2    4    4    0    0 -0.11166677090E+03  0.54000740195E+03 -0.48202758424E+03  0.73793004309E+03  0.90070498138E+02 0.  0.
         23    2    4    4    0    0 -0.31970675775E+02 -0.35192215043E+03 -0.23591747930E+03  0.43428058960E+03  0.89840132411E+02 0.  0.
         11    1    3    3    0    0  0.50136630487E+02 -0.95716441626E+02 -0.12235198749E+03  0.16323396631E+03  0.00000000000E+00 0. -1.
        -11    1    3    3    0    0  0.93500816185E+02 -0.92368809893E+02 -0.35039256383E+03  0.37423167751E+03  0.00000000000E+00 0.  1.
          1    1    5    5  502    0  0.14260166383E+02  0.88941995222E+02 -0.68374997953E+02  0.11308921790E+03  0.00000000000E+00 0. -1.
          3    1    6    6  503    0  0.26564081430E+02 -0.17868371659E+03 -0.13413827136E+03  0.22500354851E+03  0.00000000000E+00 0. -1.
         -1    1    5    5    0  502 -0.12592693728E+03  0.45106540673E+03 -0.41365258629E+03  0.62484082519E+03  0.00000000000E+00 0.  1.
         -3    1    6    6    0  503 -0.58534757205E+02 -0.17323843384E+03 -0.10177920794E+03  0.20927704109E+03  0.00000000000E+00 0.  1.
<mgrwt>
<rscale>  0 0.12268868E+04</rscale>
<asrwt>0</asrwt>
<pdfrwt beam="1">  1        1 0.39922053E-01 0.12268868E+04</pdfrwt>
<pdfrwt beam="2">  1       -1 0.22310506E+00 0.12268868E+04</pdfrwt>
<totfact> 0.10988149E+01</totfact>
</mgrwt>
</event>
<event>
12    1  0.4672461E-008  0.1560994E+04  0.7818608E-02  0.8844876E-01
          2   -1    0    0  501    0  0.00000000000E+00  0.00000000000E+00  0.99819988882E+03  0.99819988882E+03  0.00000000000E+00 0. -1.
         -2   -1    0    0    0  501 -0.00000000000E+00 -0.00000000000E+00 -0.61027434684E+03  0.61027434684E+03  0.00000000000E+00 0.  1.
         23    2    1    2    0    0 -0.37063281251E+03  0.31345054370E+02  0.53043913489E+03  0.65422533866E+03  0.91070982114E+02 0.  0.
        254    2    1    2    0    0  0.37063281251E+03 -0.31345054370E+02 -0.14251359291E+03  0.95424889700E+03  0.86713876578E+03 0.  0.
         23    2    4    4    0    0 -0.13327068892E+03 -0.31118702813E+03  0.10639462798E+02  0.35087691772E+03  0.91667716354E+02 0.  0.
         23    2    4    4    0    0  0.50390350143E+03  0.27984197376E+03 -0.15315305571E+03  0.60337197927E+03  0.91496545655E+02 0.  0.
         11    1    3    3    0    0 -0.23745501374E+03 -0.13933528068E+02  0.37966751627E+03  0.44802505473E+03  0.00000000000E+00 0. -1.
        -11    1    3    3    0    0 -0.13317779877E+03  0.45278582438E+02  0.15077161861E+03  0.20620028393E+03  0.00000000000E+00 0.  1.
          4    1    5    5  502    0 -0.11309487630E+03 -0.23810140297E+03 -0.29234293164E+02  0.26521193985E+03  0.00000000000E+00 0. -1.
          3    1    6    6  503    0  0.38530044370E+03  0.18264571546E+03 -0.81511692933E+02  0.43411985140E+03  0.00000000000E+00 0. -1.
         -4    1    5    5    0  502 -0.20175812621E+02 -0.73085625162E+02  0.39873755962E+02  0.85664977878E+02  0.00000000000E+00 0.  1.
         -3    1    6    6    0  503  0.11860305773E+03  0.97196258299E+02 -0.71641362772E+02  0.16925212787E+03  0.00000000000E+00 0.  1.
<mgrwt>
<rscale>  0 0.15609943E+04</rscale>
<asrwt>0</asrwt>
<pdfrwt beam="1">  1        2 0.15356921E+00 0.15609943E+04</pdfrwt>
<pdfrwt beam="2">  1       -2 0.93888361E-01 0.15609943E+04</pdfrwt>
<totfact> 0.23275097E+01</totfact>
</mgrwt>
</event>
<event>
12    1  0.4672461E-008  0.1163550E+04  0.7818608E-02  0.9145373E-01
         -2   -1    0    0    0  501 -0.00000000000E+00  0.00000000000E+00  0.16976455429E+03  0.16976455429E+03  0.00000000000E+00 0.  1.
          2   -1    0    0  501    0  0.00000000000E+00 -0.00000000000E+00 -0.19937153705E+04  0.19937153705E+04  0.00000000000E+00 0. -1.
         23    2    1    2    0    0  0.20123708609E+03 -0.49675623598E+02 -0.57966469104E+03  0.62226092444E+03  0.90738479466E+02 0.  0.
        254    2    1    2    0    0 -0.20123708609E+03  0.49675623598E+02 -0.12442861252E+04  0.15412190004E+04  0.88551906438E+03 0.  0.
         23    2    4    4    0    0 -0.26558291273E+03 -0.35653017874E+03 -0.43652891950E+03  0.63019018130E+03  0.94520448399E+02 0.  0.
         23    2    4    4    0    0  0.64345826645E+02  0.40620580234E+03 -0.80775720569E+03  0.91102881907E+03  0.91423555910E+02 0.  0.
         11    1    3    3    0    0  0.15457075434E+03 -0.48813960783E+02 -0.32305258690E+03  0.36143864592E+03  0.00000000000E+00 0.  1.
        -11    1    3    3    0    0  0.46666331746E+02 -0.86166281543E+00 -0.25661210414E+03  0.26082227852E+03  0.00000000000E+00 0. -1.
          1    1    5    5  502    0 -0.10073982758E+03 -0.72990446567E+02 -0.93694228589E+02  0.15573929055E+03  0.00000000000E+00 0. -1.
          1    1    6    6  503    0  0.84952917074E+02  0.27454052470E+03 -0.52770995733E+03  0.60088875583E+03  0.00000000000E+00 0. -1.
         -1    1    5    5    0  502 -0.16484308515E+03 -0.28353973217E+03 -0.34283469091E+03  0.47445089075E+03  0.00000000000E+00 0.  1.
         -1    1    6    6    0  503 -0.20607090428E+02  0.13166527764E+03 -0.28004724836E+03  0.31014006324E+03  0.00000000000E+00 0.  1.
<mgrwt>
<rscale>  0 0.11635501E+04</rscale>
<asrwt>0</asrwt>
<pdfrwt beam="1">  1        2 0.30672545E+00 0.11635501E+04</pdfrwt>
<pdfrwt beam="2">  1       -2 0.26117623E-01 0.11635501E+04</pdfrwt>
<totfact> 0.88384668E+01</totfact>
</mgrwt>
</event>
<event>
12    1  0.4672461E-008  0.1848749E+04  0.7818608E-02  0.8680796E-01
         -1   -1    0    0    0  501 -0.00000000000E+00  0.00000000000E+00  0.37538331727E+03  0.37538331727E+03  0.00000000000E+00 0.  1.
          1   -1    0    0  501    0  0.00000000000E+00 -0.00000000000E+00 -0.22762559689E+04  0.22762559689E+04  0.00000000000E+00 0. -1.
         23    2    1    2    0    0  0.15387297452E+03 -0.86469706967E+02  0.24314281873E+03  0.32044330790E+03  0.11140727431E+03 0.  0.
        254    2    1    2    0    0 -0.15387297452E+03  0.86469706967E+02 -0.21440154703E+04  0.23311959783E+04  0.89806372237E+03 0.  0.
         23    2    4    4    0    0  0.13926186777E+03  0.13758611538E+03 -0.55535057685E+02  0.21976425467E+03  0.82996253163E+02 0.  0.
         23    2    4    4    0    0 -0.29313484229E+03 -0.51116408412E+02 -0.20884804127E+04  0.21114317236E+04  0.88614707132E+02 0.  0.
         13    1    3    3    0    0  0.13550158262E+03 -0.85396338959E+02  0.13132670848E+03  0.20712295373E+03  0.00000000000E+00 0. -1.
        -13    1    3    3    0    0  0.18371391901E+02 -0.10733680076E+01  0.11181611025E+03  0.11332035418E+03  0.00000000000E+00 0.  1.
          1    1    5    5  502    0  0.67752615204E+02  0.94631572187E+02 -0.68946480938E+02  0.13527441944E+03  0.00000000000E+00 0. -1.
          3    1    6    6  503    0 -0.20486513841E+03 -0.76409714730E+02 -0.14717569383E+04  0.14879101636E+04  0.00000000000E+00 0. -1.
         -1    1    5    5    0  502  0.71509252566E+02  0.42954543192E+02  0.13411423253E+02  0.84489835230E+02  0.00000000000E+00 0.  1.
         -3    1    6    6    0  503 -0.88269703883E+02  0.25293306317E+02 -0.61672347432E+03  0.62352155997E+03  0.00000000000E+00 0.  1.
<mgrwt>
<rscale>  0 0.18487493E+04</rscale>
<asrwt>0</asrwt>
<pdfrwt beam="1">  1        1 0.35019323E+00 0.18487493E+04</pdfrwt>
<pdfrwt beam="2">  1       -1 0.57751279E-01 0.18487493E+04</pdfrwt>
<totfact> 0.55166998E+00</totfact>
</mgrwt>
</event>
<event>
12    1  0.4672461E-008  0.2497672E+04  0.7818608E-02  0.8403815E-01
         -2   -1    0    0    0  501 -0.00000000000E+00  0.00000000000E+00  0.68572749708E+03  0.68572749708E+03  0.00000000000E+00 0.  1.
          2   -1    0    0  501    0  0.00000000000E+00 -0.00000000000E+00 -0.22743604733E+04  0.22743604733E+04  0.00000000000E+00 0. -1.
         23    2    1    2    0    0  0.83144556019E+03 -0.51747213937E+03 -0.13688409224E+03  0.99277554056E+03  0.88243326369E+02 0.  0.
        254    2    1    2    0    0 -0.83144556019E+03  0.51747213937E+03 -0.14517488840E+04  0.19673124299E+04  0.89647322314E+03 0.  0.
         23    2    4    4    0    0 -0.83829396890E+03  0.68420040452E+03 -0.99961784089E+03  0.14759635958E+04  0.91464399748E+02 0.  0.
         23    2    4    4    0    0  0.68484087053E+01 -0.16672826515E+03 -0.45213104313E+03  0.49134883407E+03  0.95686892919E+02 0.  0.
         13    1    3    3    0    0  0.95717346741E+02 -0.60956881085E+02 -0.44940585199E+02  0.12205411921E+03  0.00000000000E+00 0. -1.
        -13    1    3    3    0    0  0.73572821345E+03 -0.45651525829E+03 -0.91943507039E+02  0.87072142135E+03  0.00000000000E+00 0.  1.
          2    1    5    5  502    0 -0.23654339305E+03  0.18807185235E+03 -0.33628721017E+03  0.45212043326E+03  0.00000000000E+00 0. -1.
          2    1    6    6  503    0 -0.63725661440E+01 -0.98566034813E+02 -0.13842583992E+03  0.17005171559E+03  0.00000000000E+00 0. -1.
         -2    1    5    5    0  502 -0.60175057584E+03  0.49612855216E+03 -0.66333063072E+03  0.10238431625E+04  0.00000000000E+00 0.  1.
         -2    1    6    6    0  503  0.13220974849E+02 -0.68162230335E+02 -0.31370520321E+03  0.32129711848E+03  0.00000000000E+00 0.  1.
<mgrwt>
<rscale>  0 0.24976721E+04</rscale>
<asrwt>0</asrwt>
<pdfrwt beam="1">  1        2 0.34990161E+00 0.24976721E+04</pdfrwt>
<pdfrwt beam="2">  1       -2 0.10549654E+00 0.24976721E+04</pdfrwt>
<totfact> 0.30389212E+00</totfact>
</mgrwt>
</event>
<event>
12    1  0.4672461E-008  0.1649229E+04  0.7818608E-02  0.8790862E-01
         -1   -1    0    0    0  501 -0.00000000000E+00  0.00000000000E+00  0.38678671210E+03  0.38678671210E+03  0.00000000000E+00 0.  1.
          1   -1    0    0  501    0  0.00000000000E+00 -0.00000000000E+00 -0.17580474812E+04  0.17580474812E+04  0.00000000000E+00 0. -1.
         23    2    1    2    0    0 -0.33864016408E+03 -0.36982692948E+03 -0.85232899690E+03  0.99344881150E+03  0.95008965947E+02 0.  0.
        254    2    1    2    0    0  0.33864016408E+03  0.36982692948E+03 -0.51893177221E+03  0.11513853818E+04  0.89718949767E+03 0.  0.
         23    2    4    4    0    0 -0.28105252669E+03  0.25345795452E+03 -0.17928714078E+03  0.43005215354E+03  0.97823915537E+02 0.  0.
         23    2    4    4    0    0  0.61969269077E+03  0.11636897496E+03 -0.33964463143E+03  0.72133322826E+03  0.86037092049E+02 0.  0.
         11    1    3    3    0    0 -0.23673926262E+03 -0.30281814873E+03 -0.59009262284E+03  0.70423974128E+03  0.00000000000E+00 0. -1.
        -11    1    3    3    0    0 -0.10190090146E+03 -0.67008780753E+02 -0.26223637407E+03  0.28920907023E+03  0.00000000000E+00 0.  1.
          2    1    5    5  502    0 -0.43348764664E+02  0.23677393877E+01 -0.33403857158E+02  0.54777178283E+02  0.00000000000E+00 0. -1.
          1    1    6    6  503    0  0.25990899774E+03  0.42653284692E+02 -0.18996915485E+03  0.32474646972E+03  0.00000000000E+00 0. -1.
         -2    1    5    5    0  502 -0.23770376203E+03  0.25109021513E+03 -0.14588328362E+03  0.37527497526E+03  0.00000000000E+00 0.  1.
         -1    1    6    6    0  503  0.35978369303E+03  0.73715690268E+02 -0.14967547658E+03  0.39658675854E+03  0.00000000000E+00 0.  1.
<mgrwt>
<rscale>  0 0.16492294E+04</rscale>
<asrwt>0</asrwt>
<pdfrwt beam="1">  1        1 0.27046884E+00 0.16492294E+04</pdfrwt>
<pdfrwt beam="2">  1       -1 0.59505648E-01 0.16492294E+04</pdfrwt>
<totfact> 0.11904677E+01</totfact>
</mgrwt>
</event>
<event>
12    1  0.4672461E-008  0.1655669E+04  0.7818608E-02  0.8787060E-01
          1   -1    0    0  501    0  0.00000000000E+00  0.00000000000E+00  0.68289376325E+03  0.68289376325E+03  0.00000000000E+00 0. -1.
         -1   -1    0    0    0  501 -0.00000000000E+00 -0.00000000000E+00 -0.10035379676E+04  0.10035379676E+04  0.00000000000E+00 0.  1.
         23    2    1    2    0    0  0.97640719104E+02 -0.30820368737E+02  0.46487255092E+03  0.48487092111E+03  0.92248124041E+02 0.  0.
        254    2    1    2    0    0 -0.97640719104E+02  0.30820368737E+02 -0.78551675530E+03  0.12015608098E+04  0.90345348611E+03 0.  0.
         23    2    4    4    0    0 -0.33305236530E+03  0.24388452744E+03 -0.91037042619E+02  0.43246528770E+03  0.91295899024E+02 0.  0.
         23    2    4    4    0    0  0.23541164619E+03 -0.21306415871E+03 -0.69447971269E+03  0.76909552208E+03  0.91601702299E+02 0.  0.
         13    1    3    3    0    0  0.41136612332E+02  0.18700645724E+02  0.30373414938E+03  0.30707713774E+03  0.00000000000E+00 0. -1.
        -13    1    3    3    0    0  0.56504106772E+02 -0.49521014461E+02  0.16113840154E+03  0.17779378337E+03  0.00000000000E+00 0.  1.
          4    1    5    5  502    0 -0.15537351886E+03  0.72629889027E+02 -0.68424871427E+02  0.18465642196E+03  0.00000000000E+00 0. -1.
          4    1    6    6  503    0  0.22460003012E+03 -0.18192771543E+03 -0.55476251186E+03  0.62554321333E+03  0.00000000000E+00 0. -1.
         -4    1    5    5    0  502 -0.17767884644E+03  0.17125463842E+03 -0.22612171192E+02  0.24780886573E+03  0.00000000000E+00 0.  1.
         -4    1    6    6    0  503  0.10811616068E+02 -0.31136443271E+02 -0.13971720083E+03  0.14355230875E+03  0.00000000000E+00 0.  1.
<mgrwt>
<rscale>  0 0.16556688E+04</rscale>
<asrwt>0</asrwt>
<pdfrwt beam="1">  1        1 0.10506058E+00 0.16556688E+04</pdfrwt>
<pdfrwt beam="2">  1       -1 0.15439046E+00 0.16556688E+04</pdfrwt>
<totfact> 0.87157067E+00</totfact>
</mgrwt>
</event>
<event>
12    1  0.4672461E-008  0.2420293E+04  0.7818608E-02  0.8431945E-01
         -2   -1    0    0    0  501 -0.00000000000E+00  0.00000000000E+00  0.19655658438E+04  0.19655658438E+04  0.00000000000E+00 0.  1.
          2   -1    0    0  501    0  0.00000000000E+00 -0.00000000000E+00 -0.74505485004E+03  0.74505485004E+03  0.00000000000E+00 0. -1.
         23    2    1    2    0    0 -0.23360394977E+03 -0.12936461856E+03 -0.57599123512E+03  0.64703790930E+03  0.12484447627E+03 0.  0.
        254    2    1    2    0    0  0.23360394977E+03  0.12936461856E+03  0.17965022289E+04  0.20635827845E+04  0.97961606785E+03 0.  0.
         23    2    4    4    0    0 -0.25527941888E+03  0.32395814193E+03  0.46027676054E+03  0.62451345173E+03  0.89698916738E+02 0.  0.
         23    2    4    4    0    0  0.48888336865E+03 -0.19459352337E+03  0.13362254683E+04  0.14390693328E+04  0.92457854906E+02 0.  0.
         13    1    3    3    0    0 -0.68992836585E+01 -0.37876726497E+02 -0.15966619512E+03  0.16424232216E+03  0.00000000000E+00 0.  1.
        -13    1    3    3    0    0 -0.22670466611E+03 -0.91487892062E+02 -0.41632504000E+03  0.48279558714E+03  0.00000000000E+00 0. -1.
          2    1    5    5  502    0 -0.11840584258E+03  0.17375006551E+03  0.17113533875E+03  0.27110207117E+03  0.00000000000E+00 0. -1.
          4    1    6    6  503    0  0.38106427571E+03 -0.15034924902E+03  0.11331937499E+04  0.12049659554E+04  0.00000000000E+00 0. -1.
         -2    1    5    5    0  502 -0.13687357630E+03  0.15020807642E+03  0.28914142180E+03  0.35341138056E+03  0.00000000000E+00 0.  1.
         -4    1    6    6    0  503  0.10781909295E+03 -0.44244274352E+02  0.20303171839E+03  0.23410337736E+03  0.00000000000E+00 0.  1.
<mgrwt>
<rscale>  0 0.24202928E+04</rscale>
<asrwt>0</asrwt>
<pdfrwt beam="1">  1        2 0.11462382E+00 0.24202928E+04</pdfrwt>
<pdfrwt beam="2">  1       -2 0.30239474E+00 0.24202928E+04</pdfrwt>
<totfact> 0.10436766E+00</totfact>
</mgrwt>
</event>
<event>
12    1  0.4672461E-008  0.2030448E+04  0.7818608E-02  0.8592516E-01
         -2   -1    0    0    0  501 -0.00000000000E+00  0.00000000000E+00  0.73255807010E+03  0.73255807010E+03  0.00000000000E+00 0.  1.
          2   -1    0    0  501    0  0.00000000000E+00 -0.00000000000E+00 -0.14069593574E+04  0.14069593574E+04  0.00000000000E+00 0. -1.
         23    2    1    2    0    0 -0.34129455758E+02 -0.60577696321E+03 -0.84927965959E+03  0.10478668069E+04  0.92835100389E+02 0.  0.
        254    2    1    2    0    0  0.34129455758E+02  0.60577696321E+03  0.17487837233E+03  0.10916506206E+04  0.89049878350E+03 0.  0.
         23    2    4    4    0    0  0.39961843098E+03  0.52705048652E+03 -0.47328730713E+01  0.66771269637E+03  0.91327646875E+02 0.  0.
         23    2    4    4    0    0 -0.36548897523E+03  0.78726476694E+02  0.17961124540E+03  0.42393792422E+03  0.87653379727E+02 0.  0.
         13    1    3    3    0    0 -0.48640091431E+01 -0.77254266735E+01 -0.50091925884E+00  0.91428508867E+01  0.00000000000E+00 0.  1.
        -13    1    3    3    0    0 -0.29265446614E+02 -0.59805153654E+03 -0.84877874033E+03  0.10387239560E+04  0.00000000000E+00 0. -1.
          2    1    5    5  502    0  0.81141382785E+02  0.15621399550E+03 -0.28452677553E+02  0.17831514588E+03  0.00000000000E+00 0. -1.
          3    1    6    6  503    0 -0.20525472892E+03  0.82600001912E+02  0.12770287086E+03  0.25546093104E+03  0.00000000000E+00 0. -1.
         -2    1    5    5    0  502  0.31847704820E+03  0.37083649102E+03  0.23719804482E+02  0.48939755049E+03  0.00000000000E+00 0.  1.
         -3    1    6    6    0  503 -0.16023424630E+03 -0.38735252180E+01  0.51908374539E+02  0.16847699318E+03  0.00000000000E+00 0.  1.
<mgrwt>
<rscale>  0 0.20304477E+04</rscale>
<asrwt>0</asrwt>
<pdfrwt beam="1">  1        2 0.21645528E+00 0.20304477E+04</pdfrwt>
<pdfrwt beam="2">  1       -2 0.11270124E+00 0.20304477E+04</pdfrwt>
<totfact> 0.82325038E+00</totfact>
</mgrwt>
</event>
<event>
12    1  0.4672461E-008  0.1044424E+04  0.7818608E-02  0.9261120E-01
         -2   -1    0    0    0  501 -0.00000000000E+00  0.00000000000E+00  0.22388682354E+03  0.22388682354E+03  0.00000000000E+00 0.  1.
          2   -1    0    0  501    0  0.00000000000E+00 -0.00000000000E+00 -0.12180505739E+04  0.12180505739E+04  0.00000000000E+00 0. -1.
         23    2    1    2    0    0 -0.34534059812E+02 -0.37446565819E+02 -0.25456270351E+03  0.27942717875E+03  0.10335633328E+03 0.  0.
        254    2    1    2    0    0  0.34534059812E+02  0.37446565819E+02 -0.73960104686E+03  0.11625102187E+04  0.89544706905E+03 0.  0.
         23    2    4    4    0    0 -0.11919652466E+03  0.11592451190E+03 -0.89377816562E+03  0.91394067647E+03  0.93818158223E+02 0.  0.
         23    2    4    4    0    0  0.15373058447E+03 -0.78477946079E+02  0.15417711876E+03  0.24856954223E+03  0.90688217259E+02 0.  0.
         11    1    3    3    0    0 -0.47191671569E+02 -0.12422484045E+02 -0.24497828126E+03  0.24979137348E+03  0.00000000000E+00 0. -1.
        -11    1    3    3    0    0  0.12657611757E+02 -0.25024081774E+02 -0.95844222417E+01  0.29635805265E+02  0.00000000000E+00 0.  1.
          1    1    5    5  502    0 -0.13996266071E+02  0.25373785721E+02 -0.42615532097E+02  0.51534532516E+02  0.00000000000E+00 0. -1.
          1    1    6    6  503    0  0.69148849679E+02 -0.56781320025E+02  0.25455422554E+02  0.93025051750E+02  0.00000000000E+00 0. -1.
         -1    1    5    5    0  502 -0.10520025859E+03  0.90550726177E+02 -0.85116263352E+03  0.86240614395E+03  0.00000000000E+00 0.  1.
         -1    1    6    6    0  503  0.84581734794E+02 -0.21696626055E+02  0.12872169621E+03  0.15554449048E+03  0.00000000000E+00 0.  1.
<mgrwt>
<rscale>  0 0.10444242E+04</rscale>
<asrwt>0</asrwt>
<pdfrwt beam="1">  1        2 0.18739240E+00 0.10444242E+04</pdfrwt>
<pdfrwt beam="2">  1       -2 0.34444127E-01 0.10444242E+04</pdfrwt>
<totfact> 0.14519609E+02</totfact>
</mgrwt>
</event>
<event>
12    1  0.4672461E-008  0.1747606E+04  0.7818608E-02  0.8734669E-01
         -2   -1    0    0    0  501 -0.00000000000E+00  0.00000000000E+00  0.30336708166E+03  0.30336708166E+03  0.00000000000E+00 0.  1.
          2   -1    0    0  501    0  0.00000000000E+00 -0.00000000000E+00 -0.25168581180E+04  0.25168581180E+04  0.00000000000E+00 0. -1.
         23    2    1    2    0    0  0.56882229132E+03 -0.13542490440E+03 -0.41185012290E+03  0.72116425803E+03  0.92513023384E+02 0.  0.
        254    2    1    2    0    0 -0.56882229132E+03  0.13542490440E+03 -0.18016409134E+04  0.20990609416E+04  0.90457070030E+03 0.  0.
         23    2    4    4    0    0 -0.41870351596E+03  0.44085384097E+03 -0.15433023968E+04  0.16611891715E+04  0.90013510036E+02 0.  0.
         23    2    4    4    0    0 -0.15011877536E+03 -0.30542893657E+03 -0.25833851661E+03  0.43787177015E+03  0.95762288631E+02 0.  0.
         13    1    3    3    0    0  0.44310743439E+03 -0.66849690368E+02 -0.29716230489E+03  0.53769741952E+03  0.00000000000E+00 0.  1.
        -13    1    3    3    0    0  0.12571485693E+03 -0.68575214033E+02 -0.11468781801E+03  0.18346683851E+03  0.00000000000E+00 0. -1.
          4    1    5    5  502    0 -0.42245551341E+03  0.43019685900E+03 -0.15059781772E+04  0.16221924264E+04  0.00000000000E+00 0. -1.
          3    1    6    6  503    0 -0.13468089249E+03 -0.29285311557E+03 -0.26456513921E+03  0.41700911619E+03  0.00000000000E+00 0. -1.
         -4    1    5    5    0  502  0.37519974543E+01  0.10656981968E+02 -0.37324219655E+02  0.38996745024E+02  0.00000000000E+00 0.  1.
         -3    1    6    6    0  503 -0.15437882872E+02 -0.12575821001E+02  0.62266226008E+01  0.20862653964E+02  0.00000000000E+00 0.  1.
<mgrwt>
<rscale>  0 0.17476063E+04</rscale>
<asrwt>0</asrwt>
<pdfrwt beam="1">  1        2 0.38720894E+00 0.17476063E+04</pdfrwt>
<pdfrwt beam="2">  1       -2 0.46671859E-01 0.17476063E+04</pdfrwt>
<totfact> 0.14063157E+01</totfact>
</mgrwt>
</event>
<event>
12    1  0.4672461E-008  0.1234500E+04  0.7818608E-02  0.9083184E-01
         -1   -1    0    0    0  501 -0.00000000000E+00  0.00000000000E+00  0.39003133790E+03  0.39003133790E+03  0.00000000000E+00 0.  1.
          1   -1    0    0  501    0  0.00000000000E+00 -0.00000000000E+00 -0.97683805382E+03  0.97683805382E+03  0.00000000000E+00 0. -1.
         23    2    1    2    0    0 -0.22911895781E+02 -0.11881408080E+03  0.16309936778E+03  0.22210415518E+03  0.89928367118E+02 0.  0.
        254    2    1    2    0    0  0.22911895781E+02  0.11881408080E+03 -0.74990608369E+03  0.11447652365E+04  0.85643830581E+03 0.  0.
         23    2    4    4    0    0 -0.58604494304E+00 -0.87846271148E+02  0.16259538349E+03  0.20493734264E+03  0.88570564353E+02 0.  0.
         23    2    4    4    0    0  0.23497940724E+02  0.20666035195E+03 -0.91250146719E+03  0.93982789390E+03  0.85772304702E+02 0.  0.
         13    1    3    3    0    0  0.98657270749E+01 -0.69219988504E+02  0.14329789308E+03  0.15944599568E+03  0.00000000000E+00 0.  1.
        -13    1    3    3    0    0 -0.32777622856E+02 -0.49594092298E+02  0.19801474703E+02  0.62658159496E+02  0.00000000000E+00 0. -1.
          1    1    6    6  502    0  0.46223485717E+02  0.10586699486E+03 -0.37141671081E+03  0.38896632798E+03  0.00000000000E+00 0. -1.
          1    1    5    5  503    0 -0.29403555661E+01 -0.10160619363E+03  0.16163988605E+03  0.19094480103E+03  0.00000000000E+00 0. -1.
         -1    1    5    5    0  503  0.23543106230E+01  0.13759922485E+02  0.95549743885E+00  0.13992541609E+02  0.00000000000E+00 0.  1.
         -1    1    6    6    0  502 -0.22725544993E+02  0.10079335709E+03 -0.54108475638E+03  0.55086156592E+03  0.00000000000E+00 0.  1.
<mgrwt>
<rscale>  0 0.12344998E+04</rscale>
<asrwt>0</asrwt>
<pdfrwt beam="1">  1        1 0.15028278E+00 0.12344998E+04</pdfrwt>
<pdfrwt beam="2">  1       -1 0.60004822E-01 0.12344998E+04</pdfrwt>
<totfact> 0.43871187E+01</totfact>
</mgrwt>
</event>
<event>
12    1  0.4672461E-008  0.1314815E+04  0.7818608E-02  0.9017899E-01
          2   -1    0    0  501    0  0.00000000000E+00  0.00000000000E+00  0.23915838020E+04  0.23915838020E+04  0.00000000000E+00 0. -1.
         -2   -1    0    0    0  501 -0.00000000000E+00 -0.00000000000E+00 -0.18071059859E+03  0.18071059859E+03  0.00000000000E+00 0.  1.
         23    2    1    2    0    0  0.34202859294E+03  0.54499727006E+02  0.55111093919E+03  0.65731344018E+03  0.91563708507E+02 0.  0.
        254    2    1    2    0    0 -0.34202859294E+03 -0.54499727006E+02  0.16597622642E+04  0.19149809604E+04  0.89016151701E+03 0.  0.
         23    2    4    4    0    0 -0.39323018472E+03 -0.46410491878E+02  0.17376574489E+04  0.17844698764E+04  0.89974540530E+02 0.  0.
         23    2    4    4    0    0  0.51201591776E+02 -0.80892351277E+01 -0.77895184708E+02  0.13051108403E+03  0.90985957867E+02 0.  0.
         13    1    3    3    0    0  0.32391492543E+03  0.32657001005E+02  0.47301221960E+03  0.57421939929E+03  0.00000000000E+00 0.  1.
        -13    1    3    3    0    0  0.18113667511E+02  0.21842726001E+02  0.78098719596E+02  0.83094040895E+02  0.00000000000E+00 0. -1.
          4    1    5    5  502    0 -0.11469979111E+03 -0.45651290509E+02  0.42385501549E+03  0.44146705037E+03  0.00000000000E+00 0. -1.
          1    1    6    6  503    0  0.51109847626E+01 -0.43527079157E+02 -0.19044690483E+02  0.47785238524E+02  0.00000000000E+00 0. -1.
         -4    1    5    5    0  502 -0.27853039361E+03 -0.75920136905E+00  0.13138024334E+04  0.13430028260E+04  0.00000000000E+00 0.  1.
         -1    1    6    6    0  503  0.46090607014E+02  0.35437844030E+02 -0.58850494225E+02  0.82725845507E+02  0.00000000000E+00 0.  1.
<mgrwt>
<rscale>  0 0.13148149E+04</rscale>
<asrwt>0</asrwt>
<pdfrwt beam="1">  1        2 0.36793595E+00 0.13148149E+04</pdfrwt>
<pdfrwt beam="2">  1       -2 0.27801632E-01 0.13148149E+04</pdfrwt>
<totfact> 0.46656438E+01</totfact>
</mgrwt>
</event>
<event>
12    1  0.4672461E-008  0.1697632E+04  0.7818608E-02  0.8762716E-01
          1   -1    0    0  501    0  0.00000000000E+00  0.00000000000E+00  0.85159469578E+03  0.85159469578E+03  0.00000000000E+00 0. -1.
         -1   -1    0    0    0  501 -0.00000000000E+00 -0.00000000000E+00 -0.84604624953E+03  0.84604624953E+03  0.00000000000E+00 0.  1.
         23    2    1    2    0    0 -0.27267284021E+03 -0.18188416397E+02  0.54729956875E+03  0.61883681152E+03  0.93492700536E+02 0.  0.
        254    2    1    2    0    0  0.27267284021E+03  0.18188416397E+02 -0.54175112251E+03  0.10788041338E+04  0.89198810758E+03 0.  0.
         23    2    4    4    0    0  0.42341036017E+03 -0.92338145367E+01 -0.70986210365E+03  0.83165544271E+03  0.91569496856E+02 0.  0.
         23    2    4    4    0    0 -0.15073751996E+03  0.27422230934E+02  0.16811098114E+03  0.24714869108E+03  0.96681926175E+02 0.  0.
         13    1    3    3    0    0 -0.14564661003E+03  0.35761211282E+02  0.30862853914E+03  0.34313754446E+03  0.00000000000E+00 0.  1.
        -13    1    3    3    0    0 -0.12702623018E+03 -0.53949627679E+02  0.23867102961E+03  0.27569926706E+03  0.00000000000E+00 0. -1.
          2    1    5    5  502    0  0.40746446726E+03 -0.25262661911E+02 -0.68913829615E+03  0.80098507189E+03  0.00000000000E+00 0. -1.
          1    1    6    6  503    0 -0.54910793400E+02 -0.36527643943E+02  0.62453672578E+02  0.90829098984E+02  0.00000000000E+00 0. -1.
         -2    1    5    5    0  502  0.15945892906E+02  0.16028847375E+02 -0.20723807500E+02  0.30670370817E+02  0.00000000000E+00 0.  1.
         -1    1    6    6    0  503 -0.95826726556E+02  0.63949874877E+02  0.10565730857E+03  0.15631959210E+03  0.00000000000E+00 0.  1.
<mgrwt>
<rscale>  0 0.16976319E+04</rscale>
<asrwt>0</asrwt>
<pdfrwt beam="1">  1        1 0.13101457E+00 0.16976319E+04</pdfrwt>
<pdfrwt beam="2">  1       -1 0.13016096E+00 0.16976319E+04</pdfrwt>
<totfact> 0.96091733E+00</totfact>
</mgrwt>
</event>
<event>
12    1  0.4672461E-008  0.1298532E+04  0.7818608E-02  0.9030730E-01
         -2   -1    0    0    0  501 -0.00000000000E+00  0.00000000000E+00  0.10060273170E+04  0.10060273170E+04  0.00000000000E+00 0.  1.
          2   -1    0    0  501    0  0.00000000000E+00 -0.00000000000E+00 -0.41902070775E+03  0.41902070775E+03  0.00000000000E+00 0. -1.
         23    2    1    2    0    0 -0.13009542876E+03 -0.25231656794E+03 -0.32970490124E+02  0.30034904642E+03  0.92379789051E+02 0.  0.
        254    2    1    2    0    0  0.13009542876E+03  0.25231656794E+03  0.61997709939E+03  0.11246989783E+04  0.89442032461E+03 0.  0.
         23    2    4    4    0    0  0.24358246987E+03  0.48090043120E+03  0.12558046655E+03  0.56106333540E+03  0.91782179075E+02 0.  0.
         23    2    4    4    0    0 -0.11348704112E+03 -0.22858386326E+03  0.49439663284E+03  0.56363564294E+03  0.90151075361E+02 0.  0.
         13    1    3    3    0    0 -0.13787241149E+03 -0.25162261917E+03 -0.40183164859E+02  0.28971957315E+03  0.00000000000E+00 0. -1.
        -13    1    3    3    0    0  0.77769827282E+01 -0.69394877322E+00  0.72126747345E+01  0.10629473274E+02  0.00000000000E+00 0.  1.
          3    1    5    5  502    0  0.14483040140E+03  0.18558670777E+03  0.51139939145E+02  0.24090156630E+03  0.00000000000E+00 0. -1.
          3    1    6    6  503    0 -0.10223438495E+03 -0.10962724643E+03  0.30197021363E+03  0.33712907401E+03  0.00000000000E+00 0. -1.
         -3    1    5    5    0  502  0.98752068475E+02  0.29531372343E+03  0.74440527404E+02  0.32016176910E+03  0.00000000000E+00 0.  1.
         -3    1    6    6    0  503 -0.11252656171E+02 -0.11895661683E+03  0.19242641921E+03  0.22650656893E+03  0.00000000000E+00 0.  1.
<mgrwt>
<rscale>  0 0.12985319E+04</rscale>
<asrwt>0</asrwt>
<pdfrwt beam="1">  1        2 0.64464725E-01 0.12985319E+04</pdfrwt>
<pdfrwt beam="2">  1       -2 0.15477343E+00 0.12985319E+04</pdfrwt>
<totfact> 0.20360039E+01</totfact>
</mgrwt>
</event>
<event>
12    1  0.4672461E-008  0.1865517E+04  0.7818608E-02  0.8672214E-01
         -1   -1    0    0    0  501 -0.00000000000E+00  0.00000000000E+00  0.77858583002E+03  0.77858583002E+03  0.00000000000E+00 0.  1.
          1   -1    0    0  501    0  0.00000000000E+00 -0.00000000000E+00 -0.11174595522E+04  0.11174595522E+04  0.00000000000E+00 0. -1.
         23    2    1    2    0    0 -0.26079820551E+03 -0.27543434948E+02  0.54291696339E+03  0.60915305229E+03  0.86800156495E+02 0.  0.
        254    2    1    2    0    0  0.26079820551E+03  0.27543434948E+02 -0.88179068559E+03  0.12868923300E+04  0.89986816307E+03 0.  0.
         23    2    4    4    0    0  0.20697269399E+03 -0.41688008993E+03 -0.36556224508E+03  0.59771535187E+03  0.83673062499E+02 0.  0.
         23    2    4    4    0    0  0.53825511524E+02  0.44442352488E+03 -0.51622844051E+03  0.68917697810E+03  0.89797823946E+02 0.  0.
         13    1    3    3    0    0 -0.88558217632E+02 -0.51334177580E+02  0.20275547198E+03  0.22712889978E+03  0.00000000000E+00 0. -1.
        -13    1    3    3    0    0 -0.17223998788E+03  0.23790742632E+02  0.34016149141E+03  0.38202415250E+03  0.00000000000E+00 0.  1.
          2    1    5    5  502    0  0.49314806900E+02 -0.18733506325E+03 -0.13404053383E+03  0.23557003377E+03  0.00000000000E+00 0.  1.
          4    1    6    6  503    0  0.76272657836E+02  0.36656780088E+03 -0.40488894277E+03  0.55147486521E+03  0.00000000000E+00 0.  1.
         -2    1    5    5    0  502  0.15765788709E+03 -0.22954502669E+03 -0.23152171125E+03  0.36214531810E+03  0.00000000000E+00 0. -1.
         -4    1    6    6    0  503 -0.22447146312E+02  0.77855724003E+02 -0.11133949774E+03  0.13770211289E+03  0.00000000000E+00 0. -1.
<mgrwt>
<rscale>  0 0.18655167E+04</rscale>
<asrwt>0</asrwt>
<pdfrwt beam="1">  1        1 0.17191685E+00 0.18655167E+04</pdfrwt>
<pdfrwt beam="2">  1       -1 0.11978244E+00 0.18655167E+04</pdfrwt>
<totfact> 0.71788551E+00</totfact>
</mgrwt>
</event>
<event>
12    1  0.4672461E-008  0.2262985E+04  0.7818608E-02  0.8492660E-01
         -1   -1    0    0    0  501 -0.00000000000E+00  0.00000000000E+00  0.46903692822E+03  0.46903692822E+03  0.00000000000E+00 0.  1.
          1   -1    0    0  501    0  0.00000000000E+00 -0.00000000000E+00 -0.27295829598E+04  0.27295829598E+04  0.00000000000E+00 0. -1.
         23    2    1    2    0    0 -0.11352183089E+03  0.94188560054E+03 -0.11028352262E+04  0.14576871391E+04  0.92577365937E+02 0.  0.
        254    2    1    2    0    0  0.11352183089E+03 -0.94188560054E+03 -0.11577108054E+04  0.17409327490E+04  0.88911013766E+03 0.  0.
         23    2    4    4    0    0  0.44055304727E+03 -0.76997608308E+03 -0.95834285872E+03  0.13090678168E+04  0.91034927994E+02 0.  0.
         23    2    4    4    0    0 -0.32703121638E+03 -0.17190951746E+03 -0.19936794667E+03  0.43186493217E+03  0.10127903436E+03 0.  0.
         13    1    3    3    0    0 -0.22087301999E+02  0.16116167590E+03 -0.24588551750E+03  0.29482303574E+03  0.00000000000E+00 0.  1.
        -13    1    3    3    0    0 -0.91434528895E+02  0.78072392464E+03 -0.85694970871E+03  0.11628641033E+04  0.00000000000E+00 0. -1.
          1    1    5    5  502    0  0.10353673951E+03 -0.24807478552E+03 -0.25315984711E+03  0.36925717844E+03  0.00000000000E+00 0. -1.
          3    1    6    6  503    0 -0.23065106729E+02 -0.46005685960E+02 -0.10583142711E+02  0.52540700402E+02  0.00000000000E+00 0. -1.
         -1    1    5    5    0  502  0.33701630776E+03 -0.52190129756E+03 -0.70518301161E+03  0.93981063835E+03  0.00000000000E+00 0.  1.
         -3    1    6    6    0  503 -0.30396610965E+03 -0.12590383150E+03 -0.18878480395E+03  0.37932423177E+03  0.00000000000E+00 0.  1.
<mgrwt>
<rscale>  0 0.22629849E+04</rscale>
<asrwt>0</asrwt>
<pdfrwt beam="1">  1        1 0.41993584E+00 0.22629849E+04</pdfrwt>
<pdfrwt beam="2">  1       -1 0.72159527E-01 0.22629849E+04</pdfrwt>
<totfact> 0.16435484E+00</totfact>
</mgrwt>
</event>
<event>
12    1  0.4672461E-008  0.2676351E+04  0.7818608E-02  0.8342719E-01
          2   -1    0    0  501    0  0.00000000000E+00  0.00000000000E+00  0.33317760591E+04  0.33317760591E+04  0.00000000000E+00 0. -1.
         -2   -1    0    0    0  501 -0.00000000000E+00 -0.00000000000E+00 -0.53746507442E+03  0.53746507442E+03  0.00000000000E+00 0.  1.
         23    2    1    2    0    0 -0.53040179895E+03  0.19097863725E+03  0.27462040575E+04  0.28049240773E+04  0.90351787488E+02 0.  0.
        254    2    1    2    0    0  0.53040179895E+03 -0.19097863725E+03  0.48106927131E+02  0.10643170562E+04  0.90147524175E+03 0.  0.
         23    2    4    4    0    0 -0.18048680555E+03  0.11326502946E+03  0.15412131223E+03  0.27841894664E+03  0.91429082295E+02 0.  0.
         23    2    4    4    0    0  0.71088860450E+03 -0.30424366671E+03 -0.10601438510E+03  0.78589810957E+03  0.92032451015E+02 0.  0.
         11    1    3    3    0    0 -0.22292194374E+03  0.60535776500E+02  0.92961520376E+03  0.95788475314E+03  0.00000000000E+00 0. -1.
        -11    1    3    3    0    0 -0.30747985521E+03  0.13044286075E+03  0.18165888537E+04  0.18470393241E+04  0.00000000000E+00 0.  1.
          3    1    5    5  502    0 -0.65714243369E+01 -0.13547434600E+02  0.28123186919E+01  0.15317497788E+02  0.00000000000E+00 0. -1.
          3    1    6    6  503    0  0.12076848116E+03 -0.16299640294E+02 -0.23536788951E+02  0.12411561042E+03  0.00000000000E+00 0. -1.
         -3    1    5    5    0  502 -0.17391538121E+03  0.12681246406E+03  0.15130899354E+03  0.26310144885E+03  0.00000000000E+00 0.  1.
         -3    1    6    6    0  503  0.59012012334E+03 -0.28794402642E+03 -0.82477596147E+02  0.66178249915E+03  0.00000000000E+00 0.  1.
<mgrwt>
<rscale>  0 0.26763507E+04</rscale>
<asrwt>0</asrwt>
<pdfrwt beam="1">  1        2 0.51258092E+00 0.26763507E+04</pdfrwt>
<pdfrwt beam="2">  1       -2 0.82686937E-01 0.26763507E+04</pdfrwt>
<totfact> 0.11959935E+00</totfact>
</mgrwt>
</event>
<event>
12    1  0.4672461E-008  0.2069489E+04  0.7818608E-02  0.8574804E-01
          2   -1    0    0  501    0  0.00000000000E+00  0.00000000000E+00  0.17526366324E+04  0.17526366324E+04  0.00000000000E+00 0. -1.
         -2   -1    0    0    0  501 -0.00000000000E+00 -0.00000000000E+00 -0.61090622574E+03  0.61090622574E+03  0.00000000000E+00 0.  1.
         23    2    1    2    0    0  0.67190987376E+03  0.45828619851E+03  0.21428081028E+03  0.84597049123E+03  0.90888328027E+02 0.  0.
        254    2    1    2    0    0 -0.67190987376E+03 -0.45828619851E+03  0.92744959641E+03  0.15175723669E+04  0.88395362819E+03 0.  0.
         23    2    4    4    0    0 -0.39668623579E+03  0.20924685748E+03  0.23788730949E+03  0.51503462130E+03  0.86752937052E+02 0.  0.
         23    2    4    4    0    0 -0.27522363797E+03 -0.66753305600E+03  0.68956228692E+03  0.10025377456E+04  0.90759859717E+02 0.  0.
         11    1    3    3    0    0  0.59402429942E+03  0.36958978050E+03  0.19576190496E+03  0.72648757566E+03  0.00000000000E+00 0.  1.
        -11    1    3    3    0    0  0.77885574337E+02  0.88696418018E+02  0.18518905319E+02  0.11948291557E+03  0.00000000000E+00 0. -1.
          2    1    5    5  502    0 -0.96643275622E+02  0.77323575668E+02  0.31539368985E+02  0.12772466431E+03  0.00000000000E+00 0.  1.
          4    1    6    6  503    0 -0.24259268112E+03 -0.63932067287E+03  0.65906368301E+03  0.94970893960E+03  0.00000000000E+00 0.  1.
         -2    1    5    5    0  502 -0.30004296017E+03  0.13192328181E+03  0.20634794051E+03  0.38730995699E+03  0.00000000000E+00 0. -1.
         -4    1    6    6    0  503 -0.32630956854E+02 -0.28212383132E+02  0.30498603904E+02  0.52828806037E+02  0.00000000000E+00 0. -1.
<mgrwt>
<rscale>  0 0.20694894E+04</rscale>
<asrwt>0</asrwt>
<pdfrwt beam="1">  1        2 0.26963640E+00 0.20694894E+04</pdfrwt>
<pdfrwt beam="2">  1       -2 0.93985574E-01 0.20694894E+04</pdfrwt>
<totfact> 0.80940380E+00</totfact>
</mgrwt>
</event>
<event>
12    1  0.4672461E-008  0.2345862E+04  0.7818608E-02  0.8460055E-01
         -1   -1    0    0    0  501 -0.00000000000E+00  0.00000000000E+00  0.91168818611E+03  0.91168818611E+03  0.00000000000E+00 0.  1.
          1   -1    0    0  501    0  0.00000000000E+00 -0.00000000000E+00 -0.15090322948E+04  0.15090322948E+04  0.00000000000E+00 0. -1.
         23    2    1    2    0    0 -0.36059099052E+03 -0.89391344335E+03 -0.52264351525E+03  0.11003144470E+04  0.91807034783E+02 0.  0.
        254    2    1    2    0    0  0.36059099052E+03  0.89391344335E+03 -0.74700593423E+02  0.13204060339E+04  0.89932464048E+03 0.  0.
         23    2    4    4    0    0  0.89557641771E+02 -0.17052838624E+03 -0.10913464141E+02  0.21630738798E+03  0.97822700221E+02 0.  0.
         23    2    4    4    0    0  0.27103334875E+03  0.10644418296E+04 -0.63787129282E+02  0.11040986459E+04  0.92030088961E+02 0.  0.
         11    1    3    3    0    0 -0.33961638844E+03 -0.86951556141E+03 -0.51865182424E+03  0.10678934018E+04  0.00000000000E+00 0.  1.
        -11    1    3    3    0    0 -0.20974602079E+02 -0.24397881939E+02 -0.39916910113E+01  0.32421045212E+02  0.00000000000E+00 0. -1.
          2    1    5    5  502    0  0.98522569413E+02 -0.85366888541E+02 -0.85714724394E+01  0.13064330248E+03  0.00000000000E+00 0. -1.
          4    1    6    6  503    0  0.14088311674E+03  0.72745174908E+03 -0.47091730643E+02  0.74246328590E+03  0.00000000000E+00 0. -1.
         -2    1    5    5    0  502 -0.89649276422E+01 -0.85161497704E+02 -0.23419917020E+01  0.85664085496E+02  0.00000000000E+00 0.  1.
         -4    1    6    6    0  503  0.13015023201E+03  0.33699008052E+03 -0.16695398639E+02  0.36163535999E+03  0.00000000000E+00 0.  1.
<mgrwt>
<rscale>  0 0.23458618E+04</rscale>
<asrwt>0</asrwt>
<pdfrwt beam="1">  1        1 0.23215881E+00 0.23458618E+04</pdfrwt>
<pdfrwt beam="2">  1       -1 0.14025972E+00 0.23458618E+04</pdfrwt>
<totfact> 0.24215969E+00</totfact>
</mgrwt>
</event>
<event>
12    1  0.4672461E-008  0.1377662E+04  0.7818608E-02  0.8970149E-01
         -2   -1    0    0    0  501 -0.00000000000E+00  0.00000000000E+00  0.53553496831E+03  0.53553496831E+03  0.00000000000E+00 0.  1.
          2   -1    0    0  501    0  0.00000000000E+00 -0.00000000000E+00 -0.88600725196E+03  0.88600725196E+03  0.00000000000E+00 0. -1.
         23    2    1    2    0    0  0.16291650426E+03 -0.38658746486E+03 -0.60178659049E+02  0.43387537708E+03  0.92923175192E+02 0.  0.
        254    2    1    2    0    0 -0.16291650426E+03  0.38658746486E+03 -0.29029362460E+03  0.98766684319E+03  0.84570902165E+03 0.  0.
         23    2    4    4    0    0  0.26013691903E+03  0.16203069846E+03 -0.37474225826E+03  0.49258483207E+03  0.91010399230E+02 0.  0.
         23    2    4    4    0    0 -0.42305342330E+03  0.22455676640E+03  0.84448633661E+02  0.49508201112E+03  0.92599598864E+02 0.  0.
         13    1    3    3    0    0  0.17438744535E+03 -0.37001168438E+03 -0.52947567738E+02  0.41245978301E+03  0.00000000000E+00 0.  1.
        -13    1    3    3    0    0 -0.11470941086E+02 -0.16575780476E+02 -0.72310913107E+01  0.21415594069E+02  0.00000000000E+00 0. -1.
          2    1    5    5  502    0  0.35716157454E+00  0.24219191914E+02 -0.17533999801E+02  0.29902139897E+02  0.00000000000E+00 0. -1.
          4    1    6    6  503    0 -0.12633144961E+03  0.89009579690E+02 -0.11728329700E+02  0.15498352865E+03  0.00000000000E+00 0. -1.
         -2    1    5    5    0  502  0.25977975746E+03  0.13781150655E+03 -0.35720825846E+03  0.46268269217E+03  0.00000000000E+00 0.  1.
         -4    1    6    6    0  503 -0.29672197369E+03  0.13554718671E+03  0.96176963361E+02  0.34009848247E+03  0.00000000000E+00 0.  1.
<mgrwt>
<rscale>  0 0.13776616E+04</rscale>
<asrwt>0</asrwt>
<pdfrwt beam="1">  1        2 0.13630881E+00 0.13776616E+04</pdfrwt>
<pdfrwt beam="2">  1       -2 0.82389996E-01 0.13776616E+04</pdfrwt>
<totfact> 0.37803111E+01</totfact>
</mgrwt>
</event>
<event>
12    1  0.4672461E-008  0.1857625E+04  0.7818608E-02  0.8676241E-01
          1   -1    0    0  501    0  0.00000000000E+00  0.00000000000E+00  0.21190719908E+04  0.21190719908E+04  0.00000000000E+00 0. -1.
         -1   -1    0    0    0  501 -0.00000000000E+00 -0.00000000000E+00 -0.40710886353E+03  0.40710886353E+03  0.00000000000E+00 0.  1.
         23    2    1    2    0    0  0.62992537579E+02 -0.34301685413E+03 -0.17306128921E+03  0.39947432096E+03  0.89447757226E+02 0.  0.
        254    2    1    2    0    0 -0.62992537579E+02  0.34301685413E+03  0.18850244165E+04  0.21267065334E+04  0.92083386469E+03 0.  0.
         23    2    4    4    0    0 -0.67144536336E+02  0.46412243806E+03  0.19134145649E+04  0.19721258870E+04  0.90593547363E+02 0.  0.
         23    2    4    4    0    0  0.41519987573E+01 -0.12110558392E+03 -0.28390148418E+02  0.15458064635E+03  0.91680827594E+02 0.  0.
         11    1    3    3    0    0 -0.18606021055E+02 -0.11371210640E+03 -0.72446552414E+02  0.13610705388E+03  0.00000000000E+00 0.  1.
        -11    1    3    3    0    0  0.81598558634E+02 -0.22930474774E+03 -0.10061473680E+03  0.26336726708E+03  0.00000000000E+00 0. -1.
          1    1    5    5  502    0 -0.10786234115E+02  0.34869901859E+03  0.13663653391E+04  0.14101991307E+04  0.00000000000E+00 0. -1.
          3    1    6    6  503    0  0.39143697272E+02 -0.80501539075E+02 -0.42591304418E+02  0.99129945231E+02  0.00000000000E+00 0. -1.
         -1    1    5    5    0  502 -0.56358302222E+02  0.11542341947E+03  0.54704922583E+03  0.56192675632E+03  0.00000000000E+00 0.  1.
         -3    1    6    6    0  503 -0.34991698515E+02 -0.40604044848E+02  0.14201156000E+02  0.55450701120E+02  0.00000000000E+00 0.  1.
<mgrwt>
<rscale>  0 0.18576254E+04</rscale>
<asrwt>0</asrwt>
<pdfrwt beam="1">  1        1 0.32601107E+00 0.18576254E+04</pdfrwt>
<pdfrwt beam="2">  1       -1 0.62632134E-01 0.18576254E+04</pdfrwt>
<totfact> 0.60061882E+00</totfact>
</mgrwt>
</event>
<event>
12    1  0.4672461E-008  0.1816139E+04  0.7818608E-02  0.8697764E-01
         -2   -1    0    0    0  501 -0.00000000000E+00  0.00000000000E+00  0.37497824352E+03  0.37497824352E+03  0.00000000000E+00 0.  1.
          2   -1    0    0  501    0  0.00000000000E+00 -0.00000000000E+00 -0.21990344842E+04  0.21990344842E+04  0.00000000000E+00 0. -1.
         23    2    1    2    0    0  0.61662793266E+03 -0.28373720559E+03 -0.59887077877E+03  0.90963642032E+03  0.89751871016E+02 0.  0.
        254    2    1    2    0    0 -0.61662793266E+03  0.28373720559E+03 -0.12251854619E+04  0.16643763074E+04  0.89907300449E+03 0.  0.
         23    2    4    4    0    0 -0.23294860038E+03 -0.24458240596E+03 -0.81810684895E+03  0.88972720338E+03  0.90719768558E+02 0.  0.
         23    2    4    4    0    0 -0.38367933227E+03  0.52831961155E+03 -0.40707861296E+03  0.77464910402E+03  0.89648174942E+02 0.  0.
         13    1    3    3    0    0  0.37565899047E+03 -0.15384759920E+03 -0.41063497437E+03  0.57741652477E+03  0.00000000000E+00 0. -1.
        -13    1    3    3    0    0  0.24096894219E+03 -0.12988960638E+03 -0.18823580440E+03  0.33221989556E+03  0.00000000000E+00 0.  1.
          4    1    5    5  502    0 -0.21920466334E+02 -0.77133912972E+02 -0.19905877442E+03  0.21460322236E+03  0.00000000000E+00 0. -1.
          3    1    6    6  503    0 -0.22270790940E+03  0.23509080649E+03 -0.21844615312E+03  0.39062158417E+03  0.00000000000E+00 0. -1.
         -4    1    5    5    0  502 -0.21102813405E+03 -0.16744849299E+03 -0.61904807453E+03  0.67512398102E+03  0.00000000000E+00 0.  1.
         -3    1    6    6    0  503 -0.16097142287E+03  0.29322880506E+03 -0.18863245984E+03  0.38402751985E+03  0.00000000000E+00 0.  1.
<mgrwt>
<rscale>  0 0.18161389E+04</rscale>
<asrwt>0</asrwt>
<pdfrwt beam="1">  1        2 0.33831300E+00 0.18161389E+04</pdfrwt>
<pdfrwt beam="2">  1       -2 0.57688960E-01 0.18161389E+04</pdfrwt>
<totfact> 0.13719352E+01</totfact>
</mgrwt>
</event>
<event>
12    1  0.4672461E-008  0.2099275E+04  0.7818608E-02  0.8561563E-01
         -1   -1    0    0    0  501 -0.00000000000E+00  0.00000000000E+00  0.77415630898E+03  0.77415630898E+03  0.00000000000E+00 0.  1.
          1   -1    0    0  501    0  0.00000000000E+00 -0.00000000000E+00 -0.14231478654E+04  0.14231478654E+04  0.00000000000E+00 0. -1.
         23    2    1    2    0    0  0.37258971967E+03 -0.31444216279E+03  0.46422672481E+03  0.67950602145E+03  0.92330971050E+02 0.  0.
        254    2    1    2    0    0 -0.37258971967E+03  0.31444216279E+03 -0.11132182812E+04  0.15177981529E+04  0.90926306338E+03 0.  0.
         23    2    4    4    0    0 -0.20819314740E+03  0.42630723157E+03 -0.11568612434E+03  0.49665131479E+03  0.90537322750E+02 0.  0.
         23    2    4    4    0    0 -0.16439657227E+03 -0.11186506878E+03 -0.99753215689E+03  0.10211468381E+04  0.90168921598E+02 0.  0.
         13    1    3    3    0    0  0.44365594112E+02 -0.11869004923E+02  0.71250552510E+02  0.84769218775E+02  0.00000000000E+00 0. -1.
        -13    1    3    3    0    0  0.32822412556E+03 -0.30257315787E+03  0.39297617230E+03  0.59473680268E+03  0.00000000000E+00 0.  1.
          4    1    5    5  502    0 -0.92964489762E+02  0.13896167407E+03 -0.30784625948E+01  0.16721907830E+03  0.00000000000E+00 0. -1.
          4    1    6    6  503    0 -0.29428962810E+02 -0.10020268660E+02 -0.36777137559E+03  0.36908299113E+03  0.00000000000E+00 0. -1.
         -4    1    5    5    0  502 -0.11522865764E+03  0.28734555749E+03 -0.11260766175E+03  0.32943223649E+03  0.00000000000E+00 0.  1.
         -4    1    6    6    0  503 -0.13496760946E+03 -0.10184480012E+03 -0.62976078130E+03  0.65206384701E+03  0.00000000000E+00 0.  1.
<mgrwt>
<rscale>  0 0.20992750E+04</rscale>
<asrwt>0</asrwt>
<pdfrwt beam="1">  1        1 0.21894583E+00 0.20992750E+04</pdfrwt>
<pdfrwt beam="2">  1       -1 0.11910097E+00 0.20992750E+04</pdfrwt>
<totfact> 0.42923765E+00</totfact>
</mgrwt>
</event>
<event>
12    1  0.4672461E-008  0.1701199E+04  0.7818608E-02  0.8760681E-01
          2   -1    0    0  501    0  0.00000000000E+00  0.00000000000E+00  0.18136537987E+04  0.18136537987E+04  0.00000000000E+00 0. -1.
         -2   -1    0    0    0  501 -0.00000000000E+00 -0.00000000000E+00 -0.39892928193E+03  0.39892928193E+03  0.00000000000E+00 0.  1.
         23    2    1    2    0    0  0.34213783939E+03  0.42188763844E+03  0.86350902766E+03  0.10241471904E+04  0.90455215725E+02 0.  0.
        254    2    1    2    0    0 -0.34213783939E+03 -0.42188763844E+03  0.55121548910E+03  0.11884358903E+04  0.90193894984E+03 0.  0.
         23    2    4    4    0    0 -0.48524561960E+03 -0.18588477902E+03  0.68823919390E+03  0.86717880171E+03  0.91156040380E+02 0.  0.
         23    2    4    4    0    0  0.14310778021E+03 -0.23600285943E+03 -0.13702370481E+03  0.32125708855E+03  0.90848416894E+02 0.  0.
         11    1    3    3    0    0  0.10555308324E+03  0.16023723527E+03  0.37929831161E+03  0.42507015202E+03  0.00000000000E+00 0. -1.
        -11    1    3    3    0    0  0.23658475616E+03  0.26165040318E+03  0.48421071605E+03  0.59907703834E+03  0.00000000000E+00 0.  1.
          2    1    5    5  502    0 -0.43666559079E+03 -0.14635087230E+03  0.63817181914E+03  0.78699344771E+03  0.00000000000E+00 0. -1.
          3    1    6    6  503    0  0.11328076401E+02 -0.59337501570E+02 -0.66514849202E+02  0.89852599138E+02  0.00000000000E+00 0. -1.
         -2    1    5    5    0  502 -0.48580028809E+02 -0.39533906719E+02  0.50067374770E+02  0.80185353998E+02  0.00000000000E+00 0.  1.
         -3    1    6    6    0  503  0.13177970381E+03 -0.17666535786E+03 -0.70508855607E+02  0.23140448941E+03  0.00000000000E+00 0.  1.
<mgrwt>
<rscale>  0 0.17011991E+04</rscale>
<asrwt>0</asrwt>
<pdfrwt beam="1">  1        2 0.27902366E+00 0.17011991E+04</pdfrwt>
<pdfrwt beam="2">  1       -2 0.61373737E-01 0.17011991E+04</pdfrwt>
<totfact> 0.19913759E+01</totfact>
</mgrwt>
</event>
<event>
12    1  0.4672461E-008  0.2240864E+04  0.7818608E-02  0.8501609E-01
          2   -1    0    0  501    0  0.00000000000E+00  0.00000000000E+00  0.20426732094E+04  0.20426732094E+04  0.00000000000E+00 0.  1.
         -2   -1    0    0    0  501 -0.00000000000E+00 -0.00000000000E+00 -0.61457124847E+03  0.61457124847E+03  0.00000000000E+00 0. -1.
         23    2    1    2    0    0  0.37245040569E+03  0.82267757279E+03  0.29387776662E+03  0.95403207550E+03  0.91078899326E+02 0.  0.
        254    2    1    2    0    0 -0.37245040569E+03 -0.82267757279E+03  0.11342241943E+04  0.17032123824E+04  0.89384014400E+03 0.  0.
         23    2    4    4    0    0 -0.17307650945E+01  0.69974968435E+02  0.56771607925E+03  0.57917316748E+03  0.90777307389E+02 0.  0.
         23    2    4    4    0    0 -0.37071964059E+03 -0.89265254122E+03  0.56650811506E+03  0.11240392149E+04  0.90945593079E+02 0.  0.
         13    1    3    3    0    0  0.24557445479E+03  0.48948627898E+03  0.21853377597E+03  0.58962754464E+03  0.00000000000E+00 0.  1.
        -13    1    3    3    0    0  0.12687595090E+03  0.33319129381E+03  0.75343990649E+02  0.36440453086E+03  0.00000000000E+00 0. -1.
          2    1    5    5  502    0  0.15686594497E+02 -0.95771922671E+01  0.26679874990E+03  0.26743104682E+03  0.00000000000E+00 0. -1.
          3    1    6    6  503    0 -0.33894794650E+03 -0.82548905157E+03  0.49286960623E+03  0.10194303966E+04  0.00000000000E+00 0. -1.
         -2    1    5    5    0  502 -0.17417359592E+02  0.79552160702E+02  0.30091732935E+03  0.31174212066E+03  0.00000000000E+00 0.  1.
         -3    1    6    6    0  503 -0.31771694090E+02 -0.67163489658E+02  0.73638508826E+02  0.10460881832E+03  0.00000000000E+00 0.  1.
<mgrwt>
<rscale>  0 0.22408643E+04</rscale>
<asrwt>0</asrwt>
<pdfrwt beam="1">  1        2 0.31425741E+00 0.22408643E+04</pdfrwt>
<pdfrwt beam="2">  1       -2 0.94549424E-01 0.22408643E+04</pdfrwt>
<totfact> 0.54300239E+00</totfact>
</mgrwt>
</event>
<event>
12    1  0.4672461E-008  0.1373372E+04  0.7818608E-02  0.8973322E-01
          1   -1    0    0  501    0  0.00000000000E+00  0.00000000000E+00  0.96375358525E+03  0.96375358525E+03  0.00000000000E+00 0. -1.
         -1   -1    0    0    0  501 -0.00000000000E+00 -0.00000000000E+00 -0.48927185771E+03  0.48927185771E+03  0.00000000000E+00 0.  1.
         23    2    1    2    0    0 -0.29160414775E+03  0.21588655626E+03 -0.11774011483E+03  0.39317822466E+03  0.95322597285E+02 0.  0.
        254    2    1    2    0    0  0.29160414775E+03 -0.21588655626E+03  0.59222184237E+03  0.10598472183E+04  0.80056819284E+03 0.  0.
         23    2    4    4    0    0  0.14190775489E+03 -0.50347866660E+03  0.27873829643E+03  0.59969238823E+03  0.91144632232E+02 0.  0.
         23    2    4    4    0    0  0.14969639285E+03  0.28759211034E+03  0.31348354594E+03  0.46015483006E+03  0.91390930023E+02 0.  0.
         13    1    3    3    0    0 -0.37907573437E+02  0.63860823140E+02 -0.50686308148E+02  0.89912683697E+02  0.00000000000E+00 0. -1.
        -13    1    3    3    0    0 -0.25369657431E+03  0.15202573312E+03 -0.67053806680E+02  0.30326554097E+03  0.00000000000E+00 0.  1.
          1    1    5    5  502    0  0.14878488110E+02 -0.15152898130E+03  0.11719042122E+03  0.19213535960E+03  0.00000000000E+00 0. -1.
          3    1    6    6  503    0 -0.48974341205E+01  0.62251825513E+02  0.44236038354E+02  0.76525170564E+02  0.00000000000E+00 0. -1.
         -1    1    5    5    0  502  0.12702926678E+03 -0.35194968530E+03  0.16154787520E+03  0.40755702862E+03  0.00000000000E+00 0.  1.
         -3    1    6    6    0  503  0.15459382698E+03  0.22534028483E+03  0.26924750759E+03  0.38362965950E+03  0.00000000000E+00 0.  1.
<mgrwt>
<rscale>  0 0.13733718E+04</rscale>
<asrwt>0</asrwt>
<pdfrwt beam="1">  1        1 0.14826978E+00 0.13733718E+04</pdfrwt>
<pdfrwt beam="2">  1       -1 0.75272593E-01 0.13733718E+04</pdfrwt>
<totfact> 0.28024853E+01</totfact>
</mgrwt>
</event>
<event>
12    1  0.4672461E-008  0.2574871E+04  0.7818608E-02  0.8376787E-01
         -2   -1    0    0    0  501 -0.00000000000E+00  0.00000000000E+00  0.17462867919E+04  0.17462867919E+04  0.00000000000E+00 0. -1.
          2   -1    0    0  501    0  0.00000000000E+00 -0.00000000000E+00 -0.94915138036E+03  0.94915138036E+03  0.00000000000E+00 0.  1.
         23    2    1    2    0    0  0.61136173281E+03 -0.74398585367E+03  0.96755218337E+03  0.13674626138E+04  0.80738180500E+02 0.  0.
        254    2    1    2    0    0 -0.61136173281E+03  0.74398585367E+03 -0.17041677187E+03  0.13279755584E+04  0.89844259070E+03 0.  0.
         23    2    4    4    0    0  0.12376383869E+03  0.33208870399E+03 -0.29701420855E+03  0.47129009605E+03  0.91085231877E+02 0.  0.
         23    2    4    4    0    0 -0.73512557150E+03  0.41189714968E+03  0.12659743668E+03  0.85668546236E+03  0.88397978827E+02 0.  0.
         11    1    3    3    0    0  0.52804455915E+03 -0.64900048733E+03  0.87647160267E+03  0.12117075387E+04  0.00000000000E+00 0. -1.
        -11    1    3    3    0    0  0.83317173664E+02 -0.94985366337E+02  0.91080580700E+02  0.15575507512E+03  0.00000000000E+00 0.  1.
          3    1    5    5  502    0  0.95848381918E+01  0.74868094451E+02 -0.24011939373E+02  0.79206527019E+02  0.00000000000E+00 0. -1.
          3    1    6    6  503    0 -0.29666866807E+02  0.25581336818E+01 -0.59589642698E+01  0.30367355651E+02  0.00000000000E+00 0. -1.
         -3    1    5    5    0  502  0.11417900050E+03  0.25722060954E+03 -0.27300226918E+03  0.39208356903E+03  0.00000000000E+00 0.  1.
         -3    1    6    6    0  503 -0.70545870470E+03  0.40933901600E+03  0.13255640095E+03  0.82631810671E+03  0.00000000000E+00 0.  1.
<mgrwt>
<rscale>  0 0.25748713E+04</rscale>
<asrwt>0</asrwt>
<pdfrwt beam="1">  1        2 0.14602329E+00 0.25748713E+04</pdfrwt>
<pdfrwt beam="2">  1       -2 0.26865951E+00 0.25748713E+04</pdfrwt>
<totfact> 0.11900655E+00</totfact>
</mgrwt>
</event>
<event>
12    1  0.4672461E-008  0.2440667E+04  0.7818608E-02  0.8424433E-01
         -2   -1    0    0    0  501 -0.00000000000E+00  0.00000000000E+00  0.10184613859E+04  0.10184613859E+04  0.00000000000E+00 0. -1.
          2   -1    0    0  501    0  0.00000000000E+00 -0.00000000000E+00 -0.14622196444E+04  0.14622196444E+04  0.00000000000E+00 0.  1.
         23    2    1    2    0    0 -0.20557011542E+03 -0.13086419489E+03  0.84842232723E+03  0.88744943188E+03  0.91441450846E+02 0.  0.
        254    2    1    2    0    0  0.20557011542E+03  0.13086419489E+03 -0.12921805857E+04  0.15932315985E+04  0.89959532592E+03 0.  0.
         23    2    4    4    0    0  0.46431031962E+03 -0.53298825585E+02 -0.11277525097E+04  0.12241365090E+04  0.90882516799E+02 0.  0.
         23    2    4    4    0    0 -0.25874020421E+03  0.18416302047E+03 -0.16442807601E+03  0.36909508945E+03  0.91280236049E+02 0.  0.
         13    1    3    3    0    0  0.17400235121E+01 -0.10542786804E+01 -0.18161021602E+01  0.27271619708E+01  0.00000000000E+00 0.  1.
        -13    1    3    3    0    0 -0.20731013893E+03 -0.12980991621E+03  0.85023842939E+03  0.88472226991E+03  0.00000000000E+00 0. -1.
          3    1    6    6  502    0 -0.15479414460E+03  0.62230547587E+02 -0.57497913395E+02  0.17646494921E+03  0.00000000000E+00 0. -1.
          3    1    5    5  503    0  0.22489354498E+03 -0.90859935502E+01 -0.43380098420E+03  0.48871561848E+03  0.00000000000E+00 0. -1.
         -3    1    5    5    0  503  0.23941677464E+03 -0.44212832035E+02 -0.69395152551E+03  0.73542089055E+03  0.00000000000E+00 0.  1.
         -3    1    6    6    0  502 -0.10394605961E+03  0.12193247288E+03 -0.10693016262E+03  0.19263014024E+03  0.00000000000E+00 0.  1.
<mgrwt>
<rscale>  0 0.24406673E+04</rscale>
<asrwt>0</asrwt>
<pdfrwt beam="1">  1        2 0.22495687E+00 0.24406673E+04</pdfrwt>
<pdfrwt beam="2">  1       -2 0.15668637E+00 0.24406673E+04</pdfrwt>
<totfact> 0.31870205E+00</totfact>
</mgrwt>
</event>
<event>
12    1  0.4672461E-008  0.1137826E+04  0.7818608E-02  0.9169089E-01
          3   -1    0    0  501    0  0.00000000000E+00  0.00000000000E+00  0.10674292000E+04  0.10674292000E+04  0.00000000000E+00 0. -1.
         -3   -1    0    0    0  501 -0.00000000000E+00 -0.00000000000E+00 -0.30321638772E+03  0.30321638772E+03  0.00000000000E+00 0.  1.
         23    2    1    2    0    0 -0.78461929816E+02 -0.91121396829E+02  0.32851769253E+03  0.36100536394E+03  0.89115739875E+02 0.  0.
        254    2    1    2    0    0  0.78461929816E+02  0.91121396829E+02  0.43569511975E+03  0.10096402238E+04  0.90281989384E+03 0.  0.
         23    2    4    4    0    0  0.53420049494E+02  0.46655666039E+03  0.39480660372E+03  0.62038060662E+03  0.92038164321E+02 0.  0.
         23    2    4    4    0    0  0.25041880322E+02 -0.37543526356E+03  0.40888516034E+02  0.38925961716E+03  0.90952987375E+02 0.  0.
         13    1    3    3    0    0 -0.16802723063E+02 -0.64622317595E+02  0.83236446236E+02  0.10670839431E+03  0.00000000000E+00 0.  1.
        -13    1    3    3    0    0 -0.61659206752E+02 -0.26499079234E+02  0.24528124630E+03  0.25429696963E+03  0.00000000000E+00 0. -1.
          1    1    6    6  502    0 -0.93817866309E+01 -0.32335809731E+03  0.22949920115E+02  0.32430722448E+03  0.00000000000E+00 0. -1.
          1    1    5    5  503    0  0.51586895465E+02  0.38879258926E+03  0.36879988818E+03  0.53836255698E+03  0.00000000000E+00 0. -1.
         -1    1    5    5    0  503  0.18331540282E+01  0.77764071133E+02  0.26006715539E+02  0.82018049636E+02  0.00000000000E+00 0.  1.
         -1    1    6    6    0  502  0.34423666953E+02 -0.52077166248E+02  0.17938595919E+02  0.64952392677E+02  0.00000000000E+00 0.  1.
<mgrwt>
<rscale>  0 0.11378260E+04</rscale>
<asrwt>0</asrwt>
<pdfrwt beam="1">  1        3 0.16421988E+00 0.11378260E+04</pdfrwt>
<pdfrwt beam="2">  1       -3 0.46648676E-01 0.11378260E+04</pdfrwt>
<totfact> 0.30261655E+00</totfact>
</mgrwt>
</event>
<event>
12    1  0.4672461E-008  0.1453322E+04  0.7818608E-02  0.8916101E-01
          2   -1    0    0  501    0  0.00000000000E+00  0.00000000000E+00  0.27172170363E+03  0.27172170363E+03  0.00000000000E+00 0. -1.
         -2   -1    0    0    0  501 -0.00000000000E+00 -0.00000000000E+00 -0.19432972312E+04  0.19432972312E+04  0.00000000000E+00 0.  1.
         23    2    1    2    0    0 -0.26955173916E+03 -0.27075611004E+03 -0.18117786345E+03  0.43330659742E+03  0.94668780245E+02 0.  0.
        254    2    1    2    0    0  0.26955173916E+03  0.27075611004E+03 -0.14903976641E+04  0.17817123374E+04  0.89846905614E+03 0.  0.
         23    2    4    4    0    0  0.42063890229E+03 -0.11635124281E+03 -0.35610591778E+03  0.57014319932E+03  0.88188124129E+02 0.  0.
         23    2    4    4    0    0 -0.15108716312E+03  0.38710735285E+03 -0.11342917463E+04  0.12115691380E+04  0.92750078496E+02 0.  0.
         13    1    3    3    0    0 -0.18112959328E+03 -0.18909668709E+03 -0.17051277066E+03  0.31247414547E+03  0.00000000000E+00 0.  1.
        -13    1    3    3    0    0 -0.88422145881E+02 -0.81659422953E+02 -0.10665092785E+02  0.12083245195E+03  0.00000000000E+00 0. -1.
          1    1    5    5  502    0  0.23981850297E+03 -0.46070898483E+02 -0.14759576024E+03  0.28534181344E+03  0.00000000000E+00 0. -1.
          3    1    6    6  503    0 -0.56456401253E+02  0.49278202013E+02 -0.19826698735E+03  0.21195628019E+03  0.00000000000E+00 0. -1.
         -1    1    5    5    0  502  0.18082039932E+03 -0.70280344322E+02 -0.20851015753E+03  0.28480138588E+03  0.00000000000E+00 0.  1.
         -3    1    6    6    0  503 -0.94630761872E+02  0.33782915084E+03 -0.93602475894E+03  0.99961285786E+03  0.00000000000E+00 0.  1.
<mgrwt>
<rscale>  0 0.14533218E+04</rscale>
<asrwt>0</asrwt>
<pdfrwt beam="1">  1        2 0.41803337E-01 0.14533218E+04</pdfrwt>
<pdfrwt beam="2">  1       -2 0.29896882E+00 0.14533218E+04</pdfrwt>
<totfact> 0.38498197E+00</totfact>
</mgrwt>
</event>
<event>
12    1  0.4672461E-008  0.2770806E+04  0.7818608E-02  0.8312390E-01
         -1   -1    0    0    0  501 -0.00000000000E+00  0.00000000000E+00  0.75248922438E+03  0.75248922438E+03  0.00000000000E+00 0.  1.
          1   -1    0    0  501    0  0.00000000000E+00 -0.00000000000E+00 -0.25506556900E+04  0.25506556900E+04  0.00000000000E+00 0. -1.
         23    2    1    2    0    0  0.13742623004E+03 -0.71986336149E+03 -0.19901651775E+04  0.21227343805E+04  0.90302759304E+02 0.  0.
        254    2    1    2    0    0 -0.13742623004E+03  0.71986336149E+03  0.19199871183E+03  0.11804105340E+04  0.90521615949E+03 0.  0.
         23    2    4    4    0    0 -0.23621525737E+03 -0.40438710349E+02  0.30684512444E+03  0.39996364169E+03  0.91564442702E+02 0.  0.
         23    2    4    4    0    0  0.98789027331E+02  0.76030207184E+03 -0.11484641261E+03  0.78044689227E+03  0.89939650810E+02 0.  0.
         13    1    3    3    0    0  0.20315213165E+02 -0.12762181767E+03 -0.45919207370E+03  0.47702976509E+03  0.00000000000E+00 0. -1.
        -13    1    3    3    0    0  0.11711101688E+03 -0.59224154382E+03 -0.15309731038E+04  0.16457046154E+04  0.00000000000E+00 0.  1.
          2    1    5    5  502    0 -0.19846279349E+03 -0.55104216673E+02  0.20608066261E+03  0.29136436741E+03  0.00000000000E+00 0.  1.
          3    1    6    6  503    0  0.15244766614E+02  0.22307146477E+03 -0.72760540393E+02  0.23513268072E+03  0.00000000000E+00 0. -1.
         -2    1    5    5    0  502 -0.37752463885E+02  0.14665506324E+02  0.10076446184E+03  0.10859927428E+03  0.00000000000E+00 0. -1.
         -3    1    6    6    0  503  0.83544260717E+02  0.53723060707E+03 -0.42085872218E+02  0.54531421154E+03  0.00000000000E+00 0.  1.
<mgrwt>
<rscale>  0 0.27708056E+04</rscale>
<asrwt>0</asrwt>
<pdfrwt beam="1">  1        1 0.39240857E+00 0.27708056E+04</pdfrwt>
<pdfrwt beam="2">  1       -1 0.11576757E+00 0.27708056E+04</pdfrwt>
<totfact> 0.73199469E-01</totfact>
</mgrwt>
</event>
<event>
12    1  0.4672461E-008  0.4533522E+04  0.7818608E-02  0.7904794E-01
         -2   -1    0    0    0  501 -0.00000000000E+00  0.00000000000E+00  0.22088425086E+04  0.22088425086E+04  0.00000000000E+00 0.  1.
          2   -1    0    0  501    0  0.00000000000E+00 -0.00000000000E+00 -0.23261986960E+04  0.23261986960E+04  0.00000000000E+00 0. -1.
         23    2    1    2    0    0  0.13033710925E+04 -0.13284685642E+04 -0.11805814345E+04  0.22058575394E+04  0.91815193650E+02 0.  0.
        254    2    1    2    0    0 -0.13033710925E+04  0.13284685642E+04  0.10632252471E+04  0.23291836653E+04  0.91161597705E+03 0.  0.
         23    2    4    4    0    0 -0.78891623792E+03  0.31960636756E+03  0.78013662740E+03  0.11580668849E+04  0.89267529355E+02 0.  0.
         23    2    4    4    0    0 -0.51445485457E+03  0.10088621966E+04  0.28308861974E+03  0.11711167804E+04  0.94385473007E+02 0.  0.
         13    1    3    3    0    0  0.55336057721E+02 -0.32669070707E+02 -0.40788370888E+02  0.76112013931E+02  0.00000000000E+00 0.  1.
        -13    1    3    3    0    0  0.12480350348E+04 -0.12957994935E+04 -0.11397930636E+04  0.21297455254E+04  0.00000000000E+00 0. -1.
          2    1    5    5  502    0 -0.58161292924E+02  0.23884136589E+02  0.29198887093E+02  0.69323610572E+02  0.00000000000E+00 0. -1.
          4    1    6    6  503    0 -0.87011297373E+01  0.31529793217E+01 -0.27924561656E+01  0.96668893004E+01  0.00000000000E+00 0. -1.
         -2    1    5    5    0  502 -0.73075494500E+03  0.29572223097E+03  0.75093774031E+03  0.10887432743E+04  0.00000000000E+00 0.  1.
         -4    1    6    6    0  503 -0.50575372483E+03  0.10057092173E+04  0.28588107590E+03  0.11614498911E+04  0.00000000000E+00 0.  1.
<mgrwt>
<rscale>  0 0.45335225E+04</rscale>
<asrwt>0</asrwt>
<pdfrwt beam="1">  1        2 0.35787672E+00 0.45335225E+04</pdfrwt>
<pdfrwt beam="2">  1       -2 0.33982192E+00 0.45335225E+04</pdfrwt>
<totfact> 0.59676888E-02</totfact>
</mgrwt>
</event>
<event>
12    1  0.4672461E-008  0.1641940E+04  0.7818608E-02  0.8795189E-01
          2   -1    0    0  501    0  0.00000000000E+00  0.00000000000E+00  0.27211104250E+04  0.27211104250E+04  0.00000000000E+00 0. -1.
         -2   -1    0    0    0  501 -0.00000000000E+00 -0.00000000000E+00 -0.24768983182E+03  0.24768983182E+03  0.00000000000E+00 0.  1.
         23    2    1    2    0    0 -0.40258973088E+03 -0.26280220144E+03  0.30119282790E+03  0.57469220032E+03  0.91708871111E+02 0.  0.
        254    2    1    2    0    0  0.40258973088E+03  0.26280220144E+03  0.21722277653E+04  0.23941080565E+04  0.88432823852E+03 0.  0.
         23    2    4    4    0    0 -0.22098462949E+03 -0.29060035474E+02  0.23690111586E+03  0.33787908187E+03  0.91440927028E+02 0.  0.
         23    2    4    4    0    0  0.62357436037E+03  0.29186223691E+03  0.19353266494E+04  0.20562289747E+04  0.92519229890E+02 0.  0.
         13    1    3    3    0    0 -0.12433707570E+02 -0.27606004862E+01 -0.60697824174E+01  0.14108871591E+02  0.00000000000E+00 0. -1.
        -13    1    3    3    0    0 -0.39015602331E+03 -0.26004160095E+03  0.30726261032E+03  0.56058332873E+03  0.00000000000E+00 0.  1.
          1    1    5    5  502    0 -0.22159420227E+03 -0.18822936626E+02  0.23996890159E+03  0.32717482659E+03  0.00000000000E+00 0. -1.
          3    1    6    6  503    0  0.33985232333E+03  0.11971061651E+03  0.92006449231E+03  0.98810369061E+03  0.00000000000E+00 0. -1.
         -1    1    5    5    0  502  0.60957278127E+00 -0.10237098848E+02 -0.30677857290E+01  0.10704255279E+02  0.00000000000E+00 0.  1.
         -3    1    6    6    0  503  0.28372203704E+03  0.17215162040E+03  0.10152621571E+04  0.10681252840E+04  0.00000000000E+00 0.  1.
<mgrwt>
<rscale>  0 0.16419396E+04</rscale>
<asrwt>0</asrwt>
<pdfrwt beam="1">  1        2 0.41863235E+00 0.16419396E+04</pdfrwt>
<pdfrwt beam="2">  1       -2 0.38106130E-01 0.16419396E+04</pdfrwt>
<totfact> 0.16083213E+01</totfact>
</mgrwt>
</event>
<event>
12    1  0.4672461E-008  0.1764409E+04  0.7818608E-02  0.8725459E-01
          1   -1    0    0  501    0  0.00000000000E+00  0.00000000000E+00  0.19425182794E+04  0.19425182794E+04  0.00000000000E+00 0. -1.
         -1   -1    0    0    0  501 -0.00000000000E+00 -0.00000000000E+00 -0.40065751151E+03  0.40065751151E+03  0.00000000000E+00 0.  1.
         23    2    1    2    0    0 -0.24225064317E+03  0.38852449736E+03 -0.22645365501E+02  0.46730071214E+03  0.90666883823E+02 0.  0.
        254    2    1    2    0    0  0.24225064317E+03 -0.38852449736E+03  0.15645061334E+04  0.18758750788E+04  0.92821937635E+03 0.  0.
         23    2    4    4    0    0 -0.12867418622E+02 -0.38659159084E+03  0.13358984072E+03  0.41952506884E+03  0.92392690551E+02 0.  0.
         23    2    4    4    0    0  0.25511806179E+03 -0.19329065149E+01  0.14309162927E+04  0.14563500100E+04  0.91350715638E+02 0.  0.
         13    1    3    3    0    0 -0.47990131926E+01 -0.51279898038E+01 -0.60540849750E+00  0.70493493671E+01  0.00000000000E+00 0. -1.
        -13    1    3    3    0    0 -0.23745162998E+03  0.39365248716E+03 -0.22039957004E+02  0.46025136277E+03  0.00000000000E+00 0.  1.
          4    1    5    5  502    0  0.33321157679E+02 -0.10832759510E+03  0.18309866973E+02  0.11480600436E+03  0.00000000000E+00 0. -1.
          4    1    6    6  503    0  0.75574171762E+02  0.18501588911E+02  0.65835987874E+03  0.66294154657E+03  0.00000000000E+00 0. -1.
         -4    1    5    5    0  502 -0.46188576301E+02 -0.27826399575E+03  0.11527997375E+03  0.30471906448E+03  0.00000000000E+00 0.  1.
         -4    1    6    6    0  503  0.17954389003E+03 -0.20434495426E+02  0.77255641397E+03  0.79340846341E+03  0.00000000000E+00 0.  1.
<mgrwt>
<rscale>  0 0.17644087E+04</rscale>
<asrwt>0</asrwt>
<pdfrwt beam="1">  1        1 0.29884896E+00 0.17644087E+04</pdfrwt>
<pdfrwt beam="2">  1       -1 0.61639618E-01 0.17644087E+04</pdfrwt>
<totfact> 0.82377674E+00</totfact>
</mgrwt>
</event>
<event>
12    1  0.4672461E-008  0.2084775E+04  0.7818608E-02  0.8567980E-01
         -1   -1    0    0    0  501 -0.00000000000E+00  0.00000000000E+00  0.42959359422E+03  0.42959359422E+03  0.00000000000E+00 0.  1.
          1   -1    0    0  501    0  0.00000000000E+00 -0.00000000000E+00 -0.25293014926E+04  0.25293014926E+04  0.00000000000E+00 0. -1.
         23    2    1    2    0    0 -0.59003159444E+03  0.19535977667E+03 -0.68320415624E+02  0.63181769406E+03  0.90681831471E+02 0.  0.
        254    2    1    2    0    0  0.59003159444E+03 -0.19535977667E+03 -0.20313874828E+04  0.23270773928E+04  0.94997440073E+03 0.  0.
         23    2    4    4    0    0  0.58525802538E+03  0.27521791682E+03 -0.10825858656E+04  0.12643135368E+04  0.90690159484E+02 0.  0.
         23    2    4    4    0    0  0.47735690634E+01 -0.47057769349E+03 -0.94880161718E+03  0.10627638559E+04  0.88183627560E+02 0.  0.
         11    1    3    3    0    0 -0.19794138522E+03  0.58664485258E+02 -0.65431465888E+02  0.21657236791E+03  0.00000000000E+00 0. -1.
        -11    1    3    3    0    0 -0.39209020922E+03  0.13669529141E+03 -0.28889497365E+01  0.41524532615E+03  0.00000000000E+00 0.  1.
          4    1    5    5  502    0  0.17577632776E+03  0.12805004780E+03 -0.38363105907E+03  0.44098403783E+03  0.00000000000E+00 0. -1.
          3    1    6    6  503    0  0.31113297206E+02 -0.14938892044E+03 -0.24412032693E+03  0.28788855627E+03  0.00000000000E+00 0. -1.
         -4    1    5    5    0  502  0.40948169762E+03  0.14716786902E+03 -0.69895480651E+03  0.82332949899E+03  0.00000000000E+00 0.  1.
         -3    1    6    6    0  503 -0.26339728142E+02 -0.32118877305E+03 -0.70468129026E+03  0.77487529968E+03  0.00000000000E+00 0.  1.
<mgrwt>
<rscale>  0 0.20847750E+04</rscale>
<asrwt>0</asrwt>
<pdfrwt beam="1">  1        1 0.38912331E+00 0.20847750E+04</pdfrwt>
<pdfrwt beam="2">  1       -1 0.66091322E-01 0.20847750E+04</pdfrwt>
<totfact> 0.27628366E+00</totfact>
</mgrwt>
</event>
<event>
12    1  0.4672461E-008  0.2160815E+04  0.7818608E-02  0.8534917E-01
          1   -1    0    0  501    0  0.00000000000E+00  0.00000000000E+00  0.15660699581E+04  0.15660699581E+04  0.00000000000E+00 0. -1.
         -1   -1    0    0    0  501 -0.00000000000E+00 -0.00000000000E+00 -0.74535647946E+03  0.74535647946E+03  0.00000000000E+00 0.  1.
         23    2    1    2    0    0  0.72828735472E+02 -0.29890222423E+02  0.12834033385E+04  0.12890701919E+04  0.91544416438E+02 0.  0.
        254    2    1    2    0    0 -0.72828735472E+02  0.29890222423E+02 -0.46268985990E+03  0.10223562457E+04  0.90825818822E+03 0.  0.
         23    2    4    4    0    0  0.26000264316E+03  0.62445091024E+02 -0.58828873487E+03  0.65276933337E+03  0.92322278802E+02 0.  0.
         23    2    4    4    0    0 -0.33283137863E+03 -0.32554868601E+02  0.12559887498E+03  0.36958691229E+03  0.94777962990E+02 0.  0.
         11    1    3    3    0    0  0.72340992552E+01 -0.35825397431E+01  0.84249039653E+03  0.84252907073E+03  0.00000000000E+00 0. -1.
        -11    1    3    3    0    0  0.65594636216E+02 -0.26307682680E+02  0.44091294198E+03  0.44654112115E+03  0.00000000000E+00 0.  1.
          4    1    5    5  502    0  0.64777092620E+02 -0.13348218195E+02 -0.21264289833E+03  0.22269092677E+03  0.00000000000E+00 0. -1.
          3    1    6    6  503    0 -0.23892645474E+02 -0.30286043197E+02  0.11666111216E+02  0.40301378031E+02  0.00000000000E+00 0. -1.
         -4    1    5    5    0  502  0.19522555054E+03  0.75793309219E+02 -0.37564583655E+03  0.43007840660E+03  0.00000000000E+00 0.  1.
         -3    1    6    6    0  503 -0.30893873316E+03 -0.22688254041E+01  0.11393276376E+03  0.32928553426E+03  0.00000000000E+00 0.  1.
<mgrwt>
<rscale>  0 0.21608150E+04</rscale>
<asrwt>0</asrwt>
<pdfrwt beam="1">  1        1 0.24093384E+00 0.21608150E+04</pdfrwt>
<pdfrwt beam="2">  1       -1 0.11467023E+00 0.21608150E+04</pdfrwt>
<totfact> 0.37230581E+00</totfact>
</mgrwt>
</event>
<event>
12    1  0.4672461E-008  0.1441866E+04  0.7818608E-02  0.8924059E-01
          1   -1    0    0  501    0  0.00000000000E+00  0.00000000000E+00  0.17765614323E+04  0.17765614323E+04  0.00000000000E+00 0. -1.
         -1   -1    0    0    0  501 -0.00000000000E+00 -0.00000000000E+00 -0.29255650183E+03  0.29255650183E+03  0.00000000000E+00 0.  1.
         23    2    1    2    0    0 -0.32620095104E+03  0.19542166398E+03  0.77496864279E+03  0.86817754640E+03  0.92515769245E+02 0.  0.
        254    2    1    2    0    0  0.32620095104E+03 -0.19542166398E+03  0.70903628765E+03  0.12009403877E+04  0.89158772444E+03 0.  0.
         23    2    4    4    0    0 -0.98179763955E+02 -0.12989361511E+03 -0.14791463965E+03  0.23783353828E+03  0.90412576625E+02 0.  0.
         23    2    4    4    0    0  0.42438071500E+03 -0.65528048869E+02  0.85695092730E+03  0.96310684941E+03  0.93898855810E+02 0.  0.
         13    1    3    3    0    0 -0.32339539604E+03  0.17898144726E+03  0.70238513083E+03  0.79370259710E+03  0.00000000000E+00 0. -1.
        -13    1    3    3    0    0 -0.28055550072E+01  0.16440216720E+02  0.72583511958E+02  0.74474949297E+02  0.00000000000E+00 0.  1.
          4    1    5    5  502    0 -0.55856805933E+02 -0.53435776352E+02 -0.14967580194E+02  0.78736226860E+02  0.00000000000E+00 0. -1.
          3    1    6    6  503    0  0.23465043173E+03  0.80791516973E+01  0.42255504996E+03  0.48340342163E+03  0.00000000000E+00 0. -1.
         -4    1    5    5    0  502 -0.42322958022E+02 -0.76457838760E+02 -0.13294705946E+03  0.15909731142E+03  0.00000000000E+00 0.  1.
         -3    1    6    6    0  503  0.18973028327E+03 -0.73607200567E+02  0.43439587735E+03  0.47970342778E+03  0.00000000000E+00 0.  1.
<mgrwt>
<rscale>  0 0.14418663E+04</rscale>
<asrwt>0</asrwt>
<pdfrwt beam="1">  1        1 0.27331714E+00 0.14418663E+04</pdfrwt>
<pdfrwt beam="2">  1       -1 0.45008694E-01 0.14418663E+04</pdfrwt>
<totfact> 0.20113373E+01</totfact>
</mgrwt>
</event>
<event>
12    1  0.4672461E-008  0.2248493E+04  0.7818608E-02  0.8498511E-01
          2   -1    0    0  501    0  0.00000000000E+00  0.00000000000E+00  0.27527938299E+04  0.27527938299E+04  0.00000000000E+00 0.  1.
         -2   -1    0    0    0  501 -0.00000000000E+00 -0.00000000000E+00 -0.45914451120E+03  0.45914451120E+03  0.00000000000E+00 0. -1.
         23    2    1    2    0    0  0.20578880698E+03  0.40477741103E+03  0.21632294470E+04  0.22123152291E+04  0.92645814715E+02 0.  0.
        254    2    1    2    0    0 -0.20578880698E+03 -0.40477741103E+03  0.13041987168E+03  0.99962311199E+03  0.88093316292E+03 0.  0.
         23    2    4    4    0    0 -0.48703233938E+03 -0.43167965012E+02 -0.48010828118E+02  0.49974479827E+03  0.91519675321E+02 0.  0.
         23    2    4    4    0    0  0.28124353240E+03 -0.36160944602E+03  0.17843069980E+03  0.49987831372E+03  0.90451633089E+02 0.  0.
         13    1    3    3    0    0  0.38805118763E+02  0.17342916317E+03  0.87575597086E+03  0.89360619535E+03  0.00000000000E+00 0. -1.
        -13    1    3    3    0    0  0.16698368822E+03  0.23134824787E+03  0.12874734762E+04  0.13187090338E+04  0.00000000000E+00 0.  1.
          2    1    6    6  502    0  0.15022083969E+03 -0.12716665445E+03  0.95713878502E+02  0.21885795672E+03  0.00000000000E+00 0. -1.
          2    1    5    5  503    0 -0.30026409023E+03 -0.69916658083E+02 -0.19315929970E+02  0.30890122711E+03  0.00000000000E+00 0. -1.
         -2    1    5    5    0  503 -0.18676824915E+03  0.26748693071E+02 -0.28694898148E+02  0.19084357116E+03  0.00000000000E+00 0.  1.
         -2    1    6    6    0  502  0.13102269272E+03 -0.23444279157E+03  0.82716821294E+02  0.28102035700E+03  0.00000000000E+00 0.  1.
<mgrwt>
<rscale>  0 0.22484930E+04</rscale>
<asrwt>0</asrwt>
<pdfrwt beam="1">  1        2 0.42350673E+00 0.22484930E+04</pdfrwt>
<pdfrwt beam="2">  1       -2 0.70637619E-01 0.22484930E+04</pdfrwt>
<totfact> 0.40983285E+00</totfact>
</mgrwt>
</event>
<event>
12    1  0.4672461E-008  0.1384094E+04  0.7818608E-02  0.8965413E-01
          2   -1    0    0  501    0  0.00000000000E+00  0.00000000000E+00  0.15289743095E+04  0.15289743095E+04  0.00000000000E+00 0. -1.
         -2   -1    0    0    0  501 -0.00000000000E+00 -0.00000000000E+00 -0.31323554888E+03  0.31323554888E+03  0.00000000000E+00 0.  1.
         23    2    1    2    0    0 -0.17238465831E+03  0.45010710832E+02  0.82895901033E+03  0.85281509009E+03  0.91531975658E+02 0.  0.
        254    2    1    2    0    0  0.17238465831E+03 -0.45010710832E+02  0.38677975028E+03  0.98939476827E+03  0.89306270650E+03 0.  0.
         23    2    4    4    0    0  0.35673606510E+03  0.17839741920E+03  0.51697888320E+03  0.65908295850E+03  0.89648877265E+02 0.  0.
         23    2    4    4    0    0 -0.18435140680E+03 -0.22340813004E+03 -0.13019913292E+03  0.33031180977E+03  0.90870477626E+02 0.  0.
         13    1    3    3    0    0 -0.51303859219E+02 -0.46647946725E+01  0.10312252768E+03  0.11527403002E+03  0.00000000000E+00 0.  1.
        -13    1    3    3    0    0 -0.12108079909E+03  0.49675505504E+02  0.72583648264E+03  0.73754106007E+03  0.00000000000E+00 0. -1.
          4    1    6    6  502    0 -0.39829017911E+01 -0.60115805933E+02 -0.27222984664E+02  0.66112514123E+02  0.00000000000E+00 0. -1.
          4    1    5    5  503    0  0.21157381824E+03  0.15315558776E+03  0.31878482402E+03  0.41212119413E+03  0.00000000000E+00 0. -1.
         -4    1    5    5    0  503  0.14516224686E+03  0.25241831444E+02  0.19819405918E+03  0.24696176438E+03  0.00000000000E+00 0.  1.
         -4    1    6    6    0  502 -0.18036850501E+03 -0.16329232410E+03 -0.10297614826E+03  0.26419929564E+03  0.00000000000E+00 0.  1.
<mgrwt>
<rscale>  0 0.13840941E+04</rscale>
<asrwt>0</asrwt>
<pdfrwt beam="1">  1        2 0.23522681E+00 0.13840941E+04</pdfrwt>
<pdfrwt beam="2">  1       -2 0.48190085E-01 0.13840941E+04</pdfrwt>
<totfact> 0.48580250E+01</totfact>
</mgrwt>
</event>
<event>
12    1  0.4672461E-008  0.2422581E+04  0.7818608E-02  0.8431098E-01
         -1   -1    0    0    0  501 -0.00000000000E+00  0.00000000000E+00  0.12938000495E+04  0.12938000495E+04  0.00000000000E+00 0.  1.
          1   -1    0    0  501    0  0.00000000000E+00 -0.00000000000E+00 -0.11340425315E+04  0.11340425315E+04  0.00000000000E+00 0. -1.
         23    2    1    2    0    0  0.86552568239E+03  0.57795315109E+03  0.37522191612E+02  0.10456374325E+04  0.93729257591E+02 0.  0.
        254    2    1    2    0    0 -0.86552568239E+03 -0.57795315109E+03  0.12223532633E+03  0.13822051485E+04  0.90132405143E+03 0.  0.
         23    2    4    4    0    0 -0.41036134185E+03 -0.16304448849E+03  0.48408225371E+03  0.66204290910E+03  0.94790553446E+02 0.  0.
         23    2    4    4    0    0 -0.45516434054E+03 -0.41490866260E+03 -0.36184692737E+03  0.72016223935E+03  0.91524187752E+02 0.  0.
         13    1    3    3    0    0  0.52573945355E+03  0.37551345133E+03  0.63968969653E+02  0.64923366689E+03  0.00000000000E+00 0.  1.
        -13    1    3    3    0    0  0.33978622884E+03  0.20243969976E+03 -0.26446778041E+02  0.39640376564E+03  0.00000000000E+00 0. -1.
          2    1    5    5  502    0 -0.37305553161E+02 -0.47785143777E+02  0.76612071377E+02  0.97696129622E+02  0.00000000000E+00 0. -1.
          1    1    6    6  503    0 -0.16895522211E+03 -0.97840808941E+02 -0.10360561263E+03  0.22102672676E+03  0.00000000000E+00 0. -1.
         -2    1    5    5    0  502 -0.37305578869E+03 -0.11525934471E+03  0.40747018233E+03  0.56434677948E+03  0.00000000000E+00 0.  1.
         -1    1    6    6    0  503 -0.28620911843E+03 -0.31706785366E+03 -0.25824131474E+03  0.49913551259E+03  0.00000000000E+00 0.  1.
<mgrwt>
<rscale>  0 0.24225807E+04</rscale>
<asrwt>0</asrwt>
<pdfrwt beam="1">  1        1 0.17446808E+00 0.24225807E+04</pdfrwt>
<pdfrwt beam="2">  1       -1 0.19904616E+00 0.24225807E+04</pdfrwt>
<totfact> 0.16338322E+00</totfact>
</mgrwt>
</event>
<event>
12    1  0.4672461E-008  0.1348724E+04  0.7818608E-02  0.8991794E-01
          2   -1    0    0  501    0  0.00000000000E+00  0.00000000000E+00  0.21373128013E+04  0.21373128013E+04  0.00000000000E+00 0. -1.
         -2   -1    0    0    0  501 -0.00000000000E+00 -0.00000000000E+00 -0.21277392924E+03  0.21277392924E+03  0.00000000000E+00 0.  1.
         23    2    1    2    0    0  0.32551968606E+03  0.12062785785E+03  0.78443880749E+03  0.86257041801E+03  0.90384385990E+02 0.  0.
        254    2    1    2    0    0 -0.32551968606E+03 -0.12062785785E+03  0.11401000645E+04  0.14875163125E+04  0.89014744659E+03 0.  0.
         23    2    4    4    0    0 -0.32275987861E+03 -0.42764063701E+03  0.38168703648E+03  0.66413658783E+03  0.91334329928E+02 0.  0.
         23    2    4    4    0    0 -0.27598074510E+01  0.30701277916E+03  0.75841302807E+03  0.82337972467E+03  0.92192118676E+02 0.  0.
         11    1    3    3    0    0  0.31314279694E+02  0.23282479702E+02  0.38477981558E+02  0.54801578797E+02  0.00000000000E+00 0.  1.
        -11    1    3    3    0    0  0.29420540637E+03  0.97345378144E+02  0.74596082593E+03  0.80776883922E+03  0.00000000000E+00 0. -1.
          2    1    5    5  502    0 -0.27821328321E+03 -0.41022667381E+03  0.34773405172E+03  0.60548123471E+03  0.00000000000E+00 0. -1.
          4    1    6    6  503    0  0.17896113968E+01  0.29842864776E+03  0.75681961690E+03  0.81353475220E+03  0.00000000000E+00 0. -1.
         -2    1    5    5    0  502 -0.44546595399E+02 -0.17413963193E+02  0.33952984757E+02  0.58655353120E+02  0.00000000000E+00 0.  1.
         -4    1    6    6    0  503 -0.45494188478E+01  0.85841314018E+01  0.15934111698E+01  0.98449724699E+01  0.00000000000E+00 0.  1.
<mgrwt>
<rscale>  0 0.13487245E+04</rscale>
<asrwt>0</asrwt>
<pdfrwt beam="1">  1        2 0.32881734E+00 0.13487245E+04</pdfrwt>
<pdfrwt beam="2">  1       -2 0.32734452E-01 0.13487245E+04</pdfrwt>
<totfact> 0.47674152E+01</totfact>
</mgrwt>
</event>
<event>
12    1  0.4672461E-008  0.1216579E+04  0.7818608E-02  0.9098467E-01
         -2   -1    0    0    0  501 -0.00000000000E+00  0.00000000000E+00  0.25377364677E+03  0.25377364677E+03  0.00000000000E+00 0.  1.
          2   -1    0    0  501    0  0.00000000000E+00 -0.00000000000E+00 -0.14580563393E+04  0.14580563393E+04  0.00000000000E+00 0. -1.
         23    2    1    2    0    0 -0.11209108324E+03 -0.20358940142E+03 -0.52698183117E+03  0.58263619876E+03  0.87988831182E+02 0.  0.
        254    2    1    2    0    0  0.11209108324E+03  0.20358940142E+03 -0.67730086138E+03  0.11291937873E+04  0.87311459568E+03 0.  0.
         23    2    4    4    0    0 -0.13355968748E+03  0.19722097649E+03 -0.79982942643E+03  0.83955571718E+03  0.91609973133E+02 0.  0.
         23    2    4    4    0    0  0.24565077072E+03  0.63684249300E+01  0.12252856506E+03  0.28963807013E+03  0.92152614851E+02 0.  0.
         13    1    3    3    0    0  0.64969167890E+01 -0.65841270744E+02 -0.15884463712E+03  0.17207237315E+03  0.00000000000E+00 0.  1.
        -13    1    3    3    0    0 -0.11858800003E+03 -0.13774813067E+03 -0.36813719405E+03  0.41056382561E+03  0.00000000000E+00 0. -1.
          2    1    5    5  502    0 -0.86207153439E+02  0.11840869519E+03 -0.62602131355E+03  0.64292688342E+03  0.00000000000E+00 0. -1.
          3    1    6    6  503    0  0.18350812258E+03  0.76950856690E+01  0.13278418920E+03  0.22664087517E+03  0.00000000000E+00 0. -1.
         -2    1    5    5    0  502 -0.47352534041E+02  0.78812281302E+02 -0.17380811288E+03  0.19662883376E+03  0.00000000000E+00 0.  1.
         -3    1    6    6    0  503  0.62142648138E+02 -0.13266607390E+01 -0.10255624144E+02  0.62997194960E+02  0.00000000000E+00 0.  1.
<mgrwt>
<rscale>  0 0.12165793E+04</rscale>
<asrwt>0</asrwt>
<pdfrwt beam="1">  1        2 0.22431636E+00 0.12165793E+04</pdfrwt>
<pdfrwt beam="2">  1       -2 0.39042099E-01 0.12165793E+04</pdfrwt>
<totfact> 0.81912377E+01</totfact>
</mgrwt>
</event>
<event>
12    1  0.4672461E-008  0.2097500E+04  0.7818608E-02  0.8562345E-01
         -2   -1    0    0    0  501 -0.00000000000E+00  0.00000000000E+00  0.41580749122E+03  0.41580749122E+03  0.00000000000E+00 0.  1.
          2   -1    0    0  501    0  0.00000000000E+00 -0.00000000000E+00 -0.26451586734E+04  0.26451586734E+04  0.00000000000E+00 0. -1.
         23    2    1    2    0    0 -0.45227944878E+03  0.51598483143E+03 -0.16949712967E+03  0.71257683316E+03  0.90771251699E+02 0.  0.
        254    2    1    2    0    0  0.45227944878E+03 -0.51598483143E+03 -0.20598540525E+04  0.23483893314E+04  0.89506239357E+03 0.  0.
         23    2    4    4    0    0  0.74600191632E+02 -0.53828948464E+03 -0.51256835325E+03  0.75281420442E+03  0.93178064783E+02 0.  0.
         23    2    4    4    0    0  0.37767925715E+03  0.22304653218E+02 -0.15472856992E+04  0.15955751270E+04  0.92886124019E+02 0.  0.
         13    1    3    3    0    0 -0.23396462328E+03  0.26733581835E+03 -0.13440355406E+03  0.37983180497E+03  0.00000000000E+00 0.  1.
        -13    1    3    3    0    0 -0.21831482550E+03  0.24864901307E+03 -0.35093575606E+02  0.33274502819E+03  0.00000000000E+00 0. -1.
          4    1    5    5  502    0 -0.16242398049E+02 -0.20295462440E+03 -0.17672891007E+03  0.26960619933E+03  0.00000000000E+00 0. -1.
          1    1    6    6  503    0  0.15069028875E+03 -0.34710414176E+02 -0.56336235613E+03  0.58419989753E+03  0.00000000000E+00 0. -1.
         -4    1    5    5    0  502  0.90842589681E+02 -0.33533486024E+03 -0.33583944317E+03  0.48320800509E+03  0.00000000000E+00 0.  1.
         -1    1    6    6    0  503  0.22698896840E+03  0.57015067394E+02 -0.98392334311E+03  0.10113752295E+04  0.00000000000E+00 0.  1.
<mgrwt>
<rscale>  0 0.20975002E+04</rscale>
<asrwt>0</asrwt>
<pdfrwt beam="1">  1        2 0.40694748E+00 0.20975002E+04</pdfrwt>
<pdfrwt beam="2">  1       -2 0.63970385E-01 0.20975002E+04</pdfrwt>
<totfact> 0.59645277E+00</totfact>
</mgrwt>
</event>
<event>
12    1  0.4672461E-008  0.4568598E+04  0.7818608E-02  0.7898736E-01
         -2   -1    0    0    0  501 -0.00000000000E+00  0.00000000000E+00  0.14528297194E+04  0.14528297194E+04  0.00000000000E+00 0.  1.
          2   -1    0    0  501    0  0.00000000000E+00 -0.00000000000E+00 -0.35916263984E+04  0.35916263984E+04  0.00000000000E+00 0. -1.
         23    2    1    2    0    0 -0.10707000176E+04  0.18290081453E+04 -0.16854111703E+04  0.27093611639E+04  0.91420896478E+02 0.  0.
        254    2    1    2    0    0  0.10707000176E+04 -0.18290081453E+04 -0.45338550879E+03  0.23350949539E+04  0.86916091759E+03 0.  0.
         23    2    4    4    0    0  0.75081241947E+03 -0.85620728434E+03  0.13527437233E+03  0.11503247635E+04  0.90209216718E+02 0.  0.
         23    2    4    4    0    0  0.31988759811E+03 -0.97280086099E+03 -0.58865988112E+03  0.11847701903E+04  0.92143137066E+02 0.  0.
         11    1    3    3    0    0 -0.22895456745E+03  0.36168137218E+03 -0.29826531611E+03  0.52172388074E+03  0.00000000000E+00 0.  1.
        -11    1    3    3    0    0 -0.84174545013E+03  0.14673267732E+04 -0.13871458542E+04  0.21876372832E+04  0.00000000000E+00 0. -1.
          1    1    5    5  502    0  0.15392368057E+03 -0.21069721339E+03  0.61304506145E+02  0.26803741837E+03  0.00000000000E+00 0. -1.
          3    1    6    6  503    0 -0.21617505221E+01 -0.55320231883E+02 -0.23938997361E+02  0.60316472174E+02  0.00000000000E+00 0. -1.
         -1    1    5    5    0  502  0.59688873890E+03 -0.64551007095E+03  0.73969866188E+02  0.88228734516E+03  0.00000000000E+00 0.  1.
         -3    1    6    6    0  503  0.32204934863E+03 -0.91748062910E+03 -0.56472088376E+03  0.11244537182E+04  0.00000000000E+00 0.  1.
<mgrwt>
<rscale>  0 0.45685978E+04</rscale>
<asrwt>0</asrwt>
<pdfrwt beam="1">  1        2 0.55255790E+00 0.45685978E+04</pdfrwt>
<pdfrwt beam="2">  1       -2 0.22351227E+00 0.45685978E+04</pdfrwt>
<totfact> 0.49423012E-02</totfact>
</mgrwt>
</event>
<event>
12    1  0.4672461E-008  0.2709050E+04  0.7818608E-02  0.8332075E-01
          4   -1    0    0  501    0  0.00000000000E+00  0.00000000000E+00  0.93482063263E+03  0.93482063263E+03  0.00000000000E+00 0. -1.
         -4   -1    0    0    0  501 -0.00000000000E+00 -0.00000000000E+00 -0.19626629647E+04  0.19626629647E+04  0.00000000000E+00 0.  1.
         23    2    1    2    0    0  0.14071210979E+03  0.57182241608E+03  0.66404498473E+03  0.89168219696E+03  0.85794086336E+02 0.  0.
        254    2    1    2    0    0 -0.14071210979E+03 -0.57182241608E+03 -0.16918873168E+04  0.20058014004E+04  0.90220606936E+03 0.  0.
         23    2    4    4    0    0 -0.38092562348E+03 -0.51154878605E+03 -0.59162499233E+03  0.87427182916E+03  0.86859706308E+02 0.  0.
         23    2    4    4    0    0  0.24021351369E+03 -0.60273630036E+02 -0.11002623245E+04  0.11315295712E+04  0.91905088212E+02 0.  0.
         11    1    3    3    0    0  0.74695341488E+02  0.26531975479E+03  0.37375734850E+03  0.46440125094E+03  0.00000000000E+00 0. -1.
        -11    1    3    3    0    0  0.66016768299E+02  0.30650266130E+03  0.29028763623E+03  0.42728094602E+03  0.00000000000E+00 0.  1.
          4    1    5    5  502    0 -0.31330588205E+03 -0.40245435864E+03 -0.42467313426E+03  0.66368468227E+03  0.00000000000E+00 0. -1.
          1    1    6    6  503    0  0.82370191866E+02 -0.44400248491E+02 -0.58380816311E+03  0.59125984295E+03  0.00000000000E+00 0. -1.
         -4    1    5    5    0  502 -0.67619741429E+02 -0.10909442741E+03 -0.16695185807E+03  0.21058714689E+03  0.00000000000E+00 0.  1.
         -1    1    6    6    0  503  0.15784332183E+03 -0.15873381544E+02 -0.51645416135E+03  0.54026972825E+03  0.00000000000E+00 0.  1.
<mgrwt>
<rscale>  0 0.27090499E+04</rscale>
<asrwt>0</asrwt>
<pdfrwt beam="1">  1        4 0.14381856E+00 0.27090499E+04</pdfrwt>
<pdfrwt beam="2">  1       -4 0.30194815E+00 0.27090499E+04</pdfrwt>
<totfact> 0.17460453E-02</totfact>
</mgrwt>
</event>
<event>
12    1  0.4672461E-008  0.1790405E+04  0.7818608E-02  0.8711418E-01
         -2   -1    0    0    0  501 -0.00000000000E+00  0.00000000000E+00  0.27742274431E+03  0.27742274431E+03  0.00000000000E+00 0.  1.
          2   -1    0    0  501    0  0.00000000000E+00 -0.00000000000E+00 -0.28886882314E+04  0.28886882314E+04  0.00000000000E+00 0. -1.
         23    2    1    2    0    0 -0.30190937694E+03  0.49905652989E+03 -0.15520262469E+04  0.16604502105E+04  0.90015214167E+02 0.  0.
        254    2    1    2    0    0  0.30190937694E+03 -0.49905652989E+03 -0.10592392402E+04  0.15056607652E+04  0.89711753960E+03 0.  0.
         23    2    4    4    0    0  0.54928870993E+03 -0.91281845299E+02 -0.42202251071E+03  0.70446903324E+03  0.90128558839E+02 0.  0.
         23    2    4    4    0    0 -0.24737933299E+03 -0.40777468459E+03 -0.63721672951E+03  0.80119173193E+03  0.91576761041E+02 0.  0.
         13    1    3    3    0    0 -0.42173436539E+02  0.10570638753E+03 -0.22404254674E+03  0.25129166692E+03  0.00000000000E+00 0.  1.
        -13    1    3    3    0    0 -0.25973594040E+03  0.39335014237E+03 -0.13279837001E+04  0.14091585436E+04  0.00000000000E+00 0. -1.
          2    1    5    5  502    0  0.40940802436E+03 -0.48127814225E+02 -0.35260029465E+03  0.54245569837E+03  0.00000000000E+00 0. -1.
          4    1    6    6  503    0 -0.22047299569E+03 -0.39405638067E+03 -0.56754695286E+03  0.72525741408E+03  0.00000000000E+00 0. -1.
         -2    1    5    5    0  502  0.13988068557E+03 -0.43154031074E+02 -0.69422216065E+02  0.16201333487E+03  0.00000000000E+00 0.  1.
         -4    1    6    6    0  503 -0.26906337296E+02 -0.13718303923E+02 -0.69669776649E+02  0.75934317851E+02  0.00000000000E+00 0.  1.
<mgrwt>
<rscale>  0 0.17904053E+04</rscale>
<asrwt>0</asrwt>
<pdfrwt beam="1">  1        2 0.44441359E+00 0.17904053E+04</pdfrwt>
<pdfrwt beam="2">  1       -2 0.42680421E-01 0.17904053E+04</pdfrwt>
<totfact> 0.10070100E+01</totfact>
</mgrwt>
</event>
<event>
12    1  0.4672461E-008  0.1362594E+04  0.7818608E-02  0.8981349E-01
         -2   -1    0    0    0  501 -0.00000000000E+00  0.00000000000E+00  0.27249013795E+03  0.27249013795E+03  0.00000000000E+00 0.  1.
          2   -1    0    0  501    0  0.00000000000E+00 -0.00000000000E+00 -0.17034223609E+04  0.17034223609E+04  0.00000000000E+00 0. -1.
         23    2    1    2    0    0 -0.25870344280E+03 -0.21274856482E+03 -0.16151901479E+03  0.38311569361E+03  0.92194465123E+02 0.  0.
        254    2    1    2    0    0  0.25870344280E+03  0.21274856482E+03 -0.12694132081E+04  0.15927968052E+04  0.90188821178E+03 0.  0.
         23    2    4    4    0    0 -0.69315577577E+02  0.15238926265E+03 -0.12299354047E+04  0.12445091431E+04  0.89636882419E+02 0.  0.
         23    2    4    4    0    0  0.32801902038E+03  0.60359302171E+02 -0.39477803416E+02  0.34828766216E+03  0.92228388049E+02 0.  0.
         11    1    3    3    0    0 -0.25188112698E+03 -0.20981561946E+03 -0.13321615085E+03  0.35385482778E+03  0.00000000000E+00 0.  1.
        -11    1    3    3    0    0 -0.68223158243E+01 -0.29329453619E+01 -0.28302863942E+02  0.29260865828E+02  0.00000000000E+00 0. -1.
          4    1    5    5  502    0 -0.40205389558E+02  0.15133013836E+03 -0.11149641522E+04  0.11259051225E+04  0.00000000000E+00 0. -1.
          3    1    6    6  503    0  0.29230277482E+03  0.23273241080E+02 -0.22572832899E+02  0.29409537348E+03  0.00000000000E+00 0. -1.
         -4    1    5    5    0  502 -0.29110188019E+02  0.10591242956E+01 -0.11497125247E+03  0.11860402053E+03  0.00000000000E+00 0.  1.
         -3    1    6    6    0  503  0.35716245557E+02  0.37086061092E+02 -0.16904970518E+02  0.54192288678E+02  0.00000000000E+00 0.  1.
<mgrwt>
<rscale>  0 0.13625943E+04</rscale>
<asrwt>0</asrwt>
<pdfrwt beam="1">  1        2 0.26206498E+00 0.13625943E+04</pdfrwt>
<pdfrwt beam="2">  1       -2 0.41921560E-01 0.13625943E+04</pdfrwt>
<totfact> 0.51376077E+01</totfact>
</mgrwt>
</event>
<event>
12    1  0.4672461E-008  0.1372626E+04  0.7818608E-02  0.8973875E-01
          1   -1    0    0  501    0  0.00000000000E+00  0.00000000000E+00  0.16970731653E+04  0.16970731653E+04  0.00000000000E+00 0. -1.
         -1   -1    0    0    0  501 -0.00000000000E+00 -0.00000000000E+00 -0.27755151587E+03  0.27755151587E+03  0.00000000000E+00 0.  1.
         23    2    1    2    0    0  0.33631478585E+03  0.67973961542E+02  0.67189549730E+03  0.75998086697E+03  0.91647499861E+02 0.  0.
        254    2    1    2    0    0 -0.33631478585E+03 -0.67973961542E+02  0.74762615216E+03  0.12146438142E+04  0.89369269743E+03 0.  0.
         23    2    4    4    0    0 -0.54396902133E+03  0.16351598398E+03  0.26704033970E+03  0.63501250309E+03  0.96387565918E+02 0.  0.
         23    2    4    4    0    0  0.20765423548E+03 -0.23148994552E+03  0.48058581246E+03  0.57963131115E+03  0.91114528719E+02 0.  0.
         13    1    3    3    0    0  0.32031934672E+03  0.85271474176E+02  0.62243007708E+03  0.70519139888E+03  0.00000000000E+00 0. -1.
        -13    1    3    3    0    0  0.15995439137E+02 -0.17297512634E+02  0.49465420218E+02  0.54789468092E+02  0.00000000000E+00 0.  1.
          1    1    5    5  502    0 -0.47195180305E+03  0.10571662733E+03  0.22938897135E+03  0.53528852955E+03  0.00000000000E+00 0. -1.
          3    1    6    6  503    0  0.33762552555E+02 -0.39585750736E+01  0.82619009796E+02  0.89339135049E+02  0.00000000000E+00 0. -1.
         -1    1    5    5    0  502 -0.72017218279E+02  0.57799356652E+02  0.37651368357E+02  0.99723973533E+02  0.00000000000E+00 0.  1.
         -3    1    6    6    0  503  0.17389168292E+03 -0.22753137045E+03  0.39796680266E+03  0.49029217610E+03  0.00000000000E+00 0.  1.
<mgrwt>
<rscale>  0 0.13726256E+04</rscale>
<asrwt>0</asrwt>
<pdfrwt beam="1">  1        1 0.26108817E+00 0.13726256E+04</pdfrwt>
<pdfrwt beam="2">  1       -1 0.42700234E-01 0.13726256E+04</pdfrwt>
<totfact> 0.25267010E+01</totfact>
</mgrwt>
</event>
<event>
12    1  0.4672461E-008  0.1098921E+04  0.7818608E-02  0.9206244E-01
         -2   -1    0    0    0  501 -0.00000000000E+00  0.00000000000E+00  0.28528956440E+03  0.28528956440E+03  0.00000000000E+00 0.  1.
          2   -1    0    0  501    0  0.00000000000E+00 -0.00000000000E+00 -0.10582465011E+04  0.10582465011E+04  0.00000000000E+00 0. -1.
         23    2    1    2    0    0  0.93692454251E+02  0.84965209589E+02  0.15085350044E+01  0.15277903615E+03  0.85684277355E+02 0.  0.
        254    2    1    2    0    0 -0.93692454251E+02 -0.84965209589E+02 -0.77446547176E+03  0.11907570294E+04  0.89560492031E+03 0.  0.
         23    2    4    4    0    0  0.10138904696E+03  0.26966875526E+03 -0.70952979929E+03  0.77121380612E+03  0.91308391006E+02 0.  0.
         23    2    4    4    0    0 -0.19508150121E+03 -0.35463396485E+03 -0.64935672471E+02  0.41954322327E+03  0.89318718600E+02 0.  0.
         11    1    3    3    0    0  0.91562517422E+02  0.49647348994E+02  0.28833824587E+02  0.10807378636E+03  0.00000000000E+00 0.  1.
        -11    1    3    3    0    0  0.21299368293E+01  0.35317860595E+02 -0.27325289583E+02  0.44705249789E+02  0.00000000000E+00 0. -1.
          2    1    5    5  502    0  0.64263788623E+01  0.51903165930E+02 -0.59965080012E+02  0.79567881710E+02  0.00000000000E+00 0. -1.
          2    1    6    6  503    0 -0.10347447057E+03 -0.17349807173E+03 -0.77032305345E+02  0.21620019200E+03  0.00000000000E+00 0. -1.
         -2    1    5    5    0  502  0.94962668101E+02  0.21776558933E+03 -0.64956471927E+03  0.69164592441E+03  0.00000000000E+00 0.  1.
         -2    1    6    6    0  503 -0.91607030645E+02 -0.18113589312E+03  0.12096632874E+02  0.20334303128E+03  0.00000000000E+00 0.  1.
<mgrwt>
<rscale>  0 0.10989207E+04</rscale>
<asrwt>0</asrwt>
<pdfrwt beam="1">  1        2 0.16280715E+00 0.10989207E+04</pdfrwt>
<pdfrwt beam="2">  1       -2 0.43890702E-01 0.10989207E+04</pdfrwt>
<totfact> 0.11299679E+02</totfact>
</mgrwt>
</event>
<event>
12    1  0.4672461E-008  0.2662506E+04  0.7818608E-02  0.8347274E-01
          2   -1    0    0  501    0  0.00000000000E+00  0.00000000000E+00  0.15409837829E+04  0.15409837829E+04  0.00000000000E+00 0. -1.
         -2   -1    0    0    0  501 -0.00000000000E+00 -0.00000000000E+00 -0.11500672171E+04  0.11500672171E+04  0.00000000000E+00 0.  1.
         23    2    1    2    0    0 -0.85804692001E+03  0.65362866906E+03  0.65463706895E+03  0.12646534188E+04  0.85578173481E+02 0.  0.
        254    2    1    2    0    0  0.85804692001E+03 -0.65362866906E+03 -0.26372050310E+03  0.14263975811E+04  0.89531368901E+03 0.  0.
         23    2    4    4    0    0  0.10305796066E+04 -0.51861233896E+03 -0.27552909973E+03  0.11894627242E+04  0.88612660572E+02 0.  0.
         23    2    4    4    0    0 -0.17253268663E+03 -0.13501633010E+03  0.11808596632E+02  0.23693485697E+03  0.89452479796E+02 0.  0.
         13    1    3    3    0    0 -0.36946105220E+03  0.33482577681E+03  0.29696329744E+03  0.58034211456E+03  0.00000000000E+00 0.  1.
        -13    1    3    3    0    0 -0.48858586781E+03  0.31880289226E+03  0.35767377151E+03  0.68431130428E+03  0.00000000000E+00 0. -1.
          2    1    5    5  502    0  0.26902736388E+03 -0.16145315911E+03 -0.42392469633E+02  0.31660695916E+03  0.00000000000E+00 0. -1.
          4    1    6    6  503    0 -0.58766114349E+02 -0.10099876697E+03 -0.52669255819E+01  0.11696985779E+03  0.00000000000E+00 0. -1.
         -2    1    5    5    0  502  0.76155224276E+03 -0.35715917984E+03 -0.23313663010E+03  0.87285576500E+03  0.00000000000E+00 0.  1.
         -4    1    6    6    0  503 -0.11376657228E+03 -0.34017563135E+02  0.17075522214E+02  0.11996499919E+03  0.00000000000E+00 0.  1.
<mgrwt>
<rscale>  0 0.26625063E+04</rscale>
<asrwt>0</asrwt>
<pdfrwt beam="1">  1        2 0.23707443E+00 0.26625063E+04</pdfrwt>
<pdfrwt beam="2">  1       -2 0.17693342E+00 0.26625063E+04</pdfrwt>
<totfact> 0.20174488E+00</totfact>
</mgrwt>
</event>
<event>
12    1  0.4672461E-008  0.2323768E+04  0.7818608E-02  0.8468608E-01
          2   -1    0    0  501    0  0.00000000000E+00  0.00000000000E+00  0.99262128276E+03  0.99262128276E+03  0.00000000000E+00 0. -1.
         -2   -1    0    0    0  501 -0.00000000000E+00 -0.00000000000E+00 -0.13600095365E+04  0.13600095365E+04  0.00000000000E+00 0.  1.
         23    2    1    2    0    0  0.16370309759E+03 -0.24867713782E+03  0.79497187281E+03  0.85372780915E+03  0.90729656211E+02 0.  0.
        254    2    1    2    0    0 -0.16370309759E+03  0.24867713782E+03 -0.11623601266E+04  0.14989030102E+04  0.89832630314E+03 0.  0.
         23    2    4    4    0    0 -0.43261985826E+03 -0.11335690920E+03 -0.38916490242E+03  0.59976400553E+03  0.90872495466E+02 0.  0.
         23    2    4    4    0    0  0.26891676067E+03  0.36203404702E+03 -0.77319522418E+03  0.89913900463E+03  0.85060093919E+02 0.  0.
         13    1    3    3    0    0  0.13898410772E+03 -0.24539683576E+03  0.68151022487E+03  0.73755838807E+03  0.00000000000E+00 0. -1.
        -13    1    3    3    0    0  0.24718989861E+02 -0.32803020615E+01  0.11346164794E+03  0.11616942108E+03  0.00000000000E+00 0.  1.
          2    1    6    6  502    0  0.25774686497E+03  0.35595549557E+03 -0.71256667991E+03  0.83719115771E+03  0.00000000000E+00 0. -1.
          2    1    5    5  503    0 -0.37753138750E+03 -0.90500040154E+02 -0.29211027599E+03  0.48584834996E+03  0.00000000000E+00 0. -1.
         -2    1    5    5    0  503 -0.55088470754E+02 -0.22856869049E+02 -0.97054626437E+02  0.11391565558E+03  0.00000000000E+00 0.  1.
         -2    1    6    6    0  502  0.11169895707E+02  0.60785514491E+01 -0.60628544267E+02  0.61947846918E+02  0.00000000000E+00 0.  1.
<mgrwt>
<rscale>  0 0.23237680E+04</rscale>
<asrwt>0</asrwt>
<pdfrwt beam="1">  1        2 0.15271097E+00 0.23237680E+04</pdfrwt>
<pdfrwt beam="2">  1       -2 0.20923224E+00 0.23237680E+04</pdfrwt>
<totfact> 0.26682354E+00</totfact>
</mgrwt>
</event>
<event>
12    1  0.4672461E-008  0.1993973E+04  0.7818608E-02  0.8609444E-01
         -2   -1    0    0    0  501 -0.00000000000E+00  0.00000000000E+00  0.98505566717E+03  0.98505566717E+03  0.00000000000E+00 0.  1.
          2   -1    0    0  501    0  0.00000000000E+00 -0.00000000000E+00 -0.10090620650E+04  0.10090620650E+04  0.00000000000E+00 0. -1.
         23    2    1    2    0    0  0.67989190704E+03 -0.27956845219E+03  0.28081891224E+03  0.79196737275E+03  0.89115281016E+02 0.  0.
        254    2    1    2    0    0 -0.67989190704E+03  0.27956845219E+03 -0.30482531010E+03  0.12021503594E+04  0.90101914093E+03 0.  0.
         23    2    4    4    0    0 -0.75095109566E+03  0.16540498762E+03  0.85787009722E+02  0.77909049632E+03  0.91302970474E+02 0.  0.
         23    2    4    4    0    0  0.71059188615E+02  0.11416346457E+03 -0.39061231982E+03  0.42305986313E+03  0.91208324541E+02 0.  0.
         13    1    3    3    0    0  0.21355810821E+03 -0.12804857599E+03  0.11577393505E+03  0.27460354593E+03  0.00000000000E+00 0. -1.
        -13    1    3    3    0    0  0.46633379883E+03 -0.15151987620E+03  0.16504497719E+03  0.51736382683E+03  0.00000000000E+00 0.  1.
          4    1    6    6  502    0  0.53540994823E+02  0.52971106251E+02 -0.31663194900E+03  0.32546638437E+03  0.00000000000E+00 0. -1.
          4    1    5    5  503    0 -0.47475405777E+03  0.12995029766E+03  0.91095480447E+02  0.50057654937E+03  0.00000000000E+00 0. -1.
         -4    1    5    5    0  503 -0.27619703789E+03  0.35454689966E+02 -0.53084707253E+01  0.27851394695E+03  0.00000000000E+00 0.  1.
         -4    1    6    6    0  502  0.17518193792E+02  0.61192358317E+02 -0.73980370815E+02  0.97593478758E+02  0.00000000000E+00 0.  1.
<mgrwt>
<rscale>  0 0.19939732E+04</rscale>
<asrwt>0</asrwt>
<pdfrwt beam="1">  1        2 0.15524032E+00 0.19939732E+04</pdfrwt>
<pdfrwt beam="2">  1       -2 0.15154703E+00 0.19939732E+04</pdfrwt>
<totfact> 0.67346440E+00</totfact>
</mgrwt>
</event>
<event>
12    1  0.4672461E-008  0.1437414E+04  0.7818608E-02  0.8927173E-01
          1   -1    0    0  501    0  0.00000000000E+00  0.00000000000E+00  0.18396512169E+04  0.18396512169E+04  0.00000000000E+00 0. -1.
         -1   -1    0    0    0  501 -0.00000000000E+00 -0.00000000000E+00 -0.28078149674E+03  0.28078149674E+03  0.00000000000E+00 0.  1.
         23    2    1    2    0    0  0.57698376736E+02  0.34847746938E+02 -0.14816106611E+03  0.18710776106E+03  0.92272122505E+02 0.  0.
        254    2    1    2    0    0 -0.57698376736E+02 -0.34847746938E+02  0.17070307863E+04  0.19333249526E+04  0.90512308493E+03 0.  0.
         23    2    4    4    0    0  0.35752350861E+03 -0.22911238505E+03  0.71317439986E+03  0.83508218169E+03  0.91809484102E+02 0.  0.
         23    2    4    4    0    0 -0.41522188534E+03  0.19426463811E+03  0.99385638643E+03  0.10982427709E+04  0.90767303172E+02 0.  0.
         13    1    3    3    0    0  0.64847937624E+02 -0.94564866376E+01 -0.11072909228E+03  0.12866861323E+03  0.00000000000E+00 0.  1.
        -13    1    3    3    0    0 -0.71495608879E+01  0.44304233576E+02 -0.37431973831E+02  0.58439147825E+02  0.00000000000E+00 0. -1.
          4    1    5    5  502    0  0.18036585649E+03 -0.12177368038E+03  0.27736196389E+03  0.35254833773E+03  0.00000000000E+00 0. -1.
          1    1    6    6  503    0 -0.15638156282E+03  0.68805954614E+02  0.47793323559E+03  0.50755258867E+03  0.00000000000E+00 0. -1.
         -4    1    5    5    0  502  0.17715765212E+03 -0.10733870467E+03  0.43581243598E+03  0.48253384397E+03  0.00000000000E+00 0.  1.
         -1    1    6    6    0  503 -0.25884032253E+03  0.12545868350E+03  0.51592315084E+03  0.59069018224E+03  0.00000000000E+00 0.  1.
<mgrwt>
<rscale>  0 0.14374144E+04</rscale>
<asrwt>0</asrwt>
<pdfrwt beam="1">  1        1 0.28302326E+00 0.14374144E+04</pdfrwt>
<pdfrwt beam="2">  1       -1 0.43197155E-01 0.14374144E+04</pdfrwt>
<totfact> 0.19681150E+01</totfact>
</mgrwt>
</event>
<event>
12    1  0.4672461E-008  0.1606056E+04  0.7818608E-02  0.8816836E-01
          2   -1    0    0  501    0  0.00000000000E+00  0.00000000000E+00  0.92016487561E+03  0.92016487561E+03  0.00000000000E+00 0. -1.
         -2   -1    0    0    0  501 -0.00000000000E+00 -0.00000000000E+00 -0.70080296043E+03  0.70080296043E+03  0.00000000000E+00 0.  1.
         23    2    1    2    0    0 -0.53960046220E+03 -0.56982440529E+02  0.13408895674E+03  0.56652373610E+03  0.92485879477E+02 0.  0.
        254    2    1    2    0    0  0.53960046220E+03  0.56982440529E+02  0.85272958447E+02  0.10544440999E+04  0.90009178705E+03 0.  0.
         23    2    4    4    0    0 -0.13061263028E+01 -0.13105759359E+03 -0.31183219933E+03  0.35172808561E+03  0.96413312708E+02 0.  0.
         23    2    4    4    0    0  0.54090658851E+03  0.18804003412E+03  0.39710515778E+03  0.70271601433E+03  0.90433945705E+02 0.  0.
         11    1    3    3    0    0 -0.50465702821E+03 -0.50453446918E+02  0.14803827623E+03  0.52833663289E+03  0.00000000000E+00 0.  1.
        -11    1    3    3    0    0 -0.34943433997E+02 -0.65289936117E+01 -0.13949319491E+02  0.38187103207E+02  0.00000000000E+00 0. -1.
          4    1    5    5  502    0 -0.41408384028E+02 -0.29160333107E+02 -0.12934706496E+03  0.13890875605E+03  0.00000000000E+00 0. -1.
          3    1    6    6  503    0  0.18705911017E+02  0.27826542280E+02  0.22583621105E+02  0.40425827196E+02  0.00000000000E+00 0. -1.
         -4    1    5    5    0  502  0.40102257726E+02 -0.10189726048E+03 -0.18248513437E+03  0.21281932956E+03  0.00000000000E+00 0.  1.
         -3    1    6    6    0  503  0.52220067749E+03  0.16021349184E+03  0.37452153667E+03  0.66229018713E+03  0.00000000000E+00 0.  1.
<mgrwt>
<rscale>  0 0.16060564E+04</rscale>
<asrwt>0</asrwt>
<pdfrwt beam="1">  1        2 0.14156383E+00 0.16060564E+04</pdfrwt>
<pdfrwt beam="2">  1       -2 0.10781584E+00 0.16060564E+04</pdfrwt>
<totfact> 0.18788679E+01</totfact>
</mgrwt>
</event>
<event>
12    1  0.4672461E-008  0.1697543E+04  0.7818608E-02  0.8762767E-01
         -1   -1    0    0    0  501 -0.00000000000E+00  0.00000000000E+00  0.53851061476E+03  0.53851061476E+03  0.00000000000E+00 0.  1.
          1   -1    0    0  501    0  0.00000000000E+00 -0.00000000000E+00 -0.13377880931E+04  0.13377880931E+04  0.00000000000E+00 0. -1.
         23    2    1    2    0    0 -0.10430068272E+03  0.47039715149E+03  0.11423286947E+03  0.50336686069E+03  0.90426408907E+02 0.  0.
        254    2    1    2    0    0  0.10430068272E+03 -0.47039715149E+03 -0.91351034782E+03  0.13729318472E+04  0.90459305153E+03 0.  0.
         23    2    4    4    0    0  0.61026427457E+02 -0.15812928193E+03  0.16057665058E+03  0.25042635414E+03  0.90550557628E+02 0.  0.
         23    2    4    4    0    0  0.43274255267E+02 -0.31226786956E+03 -0.10740869984E+04  0.11225054930E+04  0.83497414464E+02 0.  0.
         11    1    3    3    0    0 -0.65576868813E+01  0.13585065454E+02 -0.12207830339E+02  0.19405885246E+02  0.00000000000E+00 0. -1.
        -11    1    3    3    0    0 -0.97742995843E+02  0.45681208603E+03  0.12644069981E+03  0.48396097544E+03  0.00000000000E+00 0.  1.
          4    1    5    5  502    0  0.26638599718E+02  0.28884594296E+01  0.30476619366E+02  0.40580568266E+02  0.00000000000E+00 0. -1.
          3    1    6    6  503    0 -0.67361588441E+01 -0.21103439853E+03 -0.63760624941E+03  0.67165662543E+03  0.00000000000E+00 0. -1.
         -4    1    5    5    0  502  0.34387827739E+02 -0.16101774136E+03  0.13010003121E+03  0.20984578588E+03  0.00000000000E+00 0.  1.
         -3    1    6    6    0  503  0.50010414111E+02 -0.10123347103E+03 -0.43648074899E+03  0.45084886760E+03  0.00000000000E+00 0.  1.
<mgrwt>
<rscale>  0 0.16975430E+04</rscale>
<asrwt>0</asrwt>
<pdfrwt beam="1">  1        1 0.20581355E+00 0.16975430E+04</pdfrwt>
<pdfrwt beam="2">  1       -1 0.82847788E-01 0.16975430E+04</pdfrwt>
<totfact> 0.11710657E+01</totfact>
</mgrwt>
</event>
<event>
12    1  0.4672461E-008  0.1988935E+04  0.7818608E-02  0.8611811E-01
          1   -1    0    0  501    0  0.00000000000E+00  0.00000000000E+00  0.16794944323E+04  0.16794944323E+04  0.00000000000E+00 0. -1.
         -1   -1    0    0    0  501 -0.00000000000E+00 -0.00000000000E+00 -0.58884746392E+03  0.58884746392E+03  0.00000000000E+00 0.  1.
         23    2    1    2    0    0 -0.50008434610E+03  0.25787614514E+03 -0.19410301568E+03  0.60174116015E+03  0.88498495314E+02 0.  0.
        254    2    1    2    0    0  0.50008434610E+03 -0.25787614514E+03  0.12847499840E+04  0.16666007360E+04  0.90021721405E+03 0.  0.
         23    2    4    4    0    0 -0.14973671519E+03 -0.26701051405E+03  0.76422519547E+03  0.82907065546E+03  0.97991345849E+02 0.  0.
         23    2    4    4    0    0  0.64982106129E+03  0.91343689117E+01  0.52052478855E+03  0.83753008058E+03  0.90331234859E+02 0.  0.
         13    1    3    3    0    0 -0.12729002550E+02  0.27821515331E+02 -0.85528070545E+01  0.31768140168E+02  0.00000000000E+00 0. -1.
        -13    1    3    3    0    0 -0.48735534355E+03  0.23005462981E+03 -0.18555020863E+03  0.56997301998E+03  0.00000000000E+00 0.  1.
          2    1    5    5  502    0 -0.14681574817E+03 -0.21231127505E+03  0.69088722797E+03  0.73753379800E+03  0.00000000000E+00 0. -1.
          4    1    6    6  503    0  0.40313296379E+03  0.49469449517E+02  0.32470721831E+03  0.51999826014E+03  0.00000000000E+00 0. -1.
         -2    1    5    5    0  502 -0.29209670167E+01 -0.54699239004E+02  0.73337967501E+02  0.91536857457E+02  0.00000000000E+00 0.  1.
         -4    1    6    6    0  503  0.24668809750E+03 -0.40335080605E+02  0.19581757025E+03  0.31753182044E+03  0.00000000000E+00 0.  1.
<mgrwt>
<rscale>  0 0.19889354E+04</rscale>
<asrwt>0</asrwt>
<pdfrwt beam="1">  1        1 0.25838376E+00 0.19889354E+04</pdfrwt>
<pdfrwt beam="2">  1       -1 0.90591918E-01 0.19889354E+04</pdfrwt>
<totfact> 0.54408229E+00</totfact>
</mgrwt>
</event>
<event>
12    1  0.4672461E-008  0.1397411E+04  0.7818608E-02  0.8955695E-01
         -2   -1    0    0    0  501 -0.00000000000E+00  0.00000000000E+00  0.18554818898E+04  0.18554818898E+04  0.00000000000E+00 0. -1.
          2   -1    0    0  501    0  0.00000000000E+00 -0.00000000000E+00 -0.26310640561E+03  0.26310640561E+03  0.00000000000E+00 0.  1.
         23    2    1    2    0    0 -0.33093090862E+03 -0.14073226933E+03  0.75170367381E+03  0.83851318925E+03  0.93408336915E+02 0.  0.
        254    2    1    2    0    0  0.33093090862E+03  0.14073226933E+03  0.84067181041E+03  0.12800751062E+04  0.89584727872E+03 0.  0.
         23    2    4    4    0    0  0.13320376438E+01 -0.33831687177E+03  0.46360788556E+03  0.58111557335E+03  0.91120568439E+02 0.  0.
         23    2    4    4    0    0  0.32959887098E+03  0.47904914111E+03  0.37706392485E+03  0.69895953285E+03  0.90794987684E+02 0.  0.
         11    1    3    3    0    0 -0.31193137576E+03 -0.12457971149E+03  0.73605446042E+03  0.80907197233E+03  0.00000000000E+00 0. -1.
        -11    1    3    3    0    0 -0.18999532861E+02 -0.16152557846E+02  0.15649213387E+02  0.29441216917E+02  0.00000000000E+00 0.  1.
          2    1    5    5  502    0  0.30699049339E+02 -0.53109254488E+02  0.58146379545E+02  0.84522340223E+02  0.00000000000E+00 0.  1.
          3    1    6    6  503    0  0.33385951992E+03  0.45999805522E+03  0.35836356885E+03  0.67192621419E+03  0.00000000000E+00 0. -1.
         -2    1    5    5    0  502 -0.29367011695E+02 -0.28520761728E+03  0.40546150601E+03  0.49659323313E+03  0.00000000000E+00 0. -1.
         -3    1    6    6    0  503 -0.42606489355E+01  0.19051085890E+02  0.18700355998E+02  0.27033318653E+02  0.00000000000E+00 0.  1.
<mgrwt>
<rscale>  0 0.13974107E+04</rscale>
<asrwt>0</asrwt>
<pdfrwt beam="1">  1        2 0.40477910E-01 0.13974107E+04</pdfrwt>
<pdfrwt beam="2">  1       -2 0.28545874E+00 0.13974107E+04</pdfrwt>
<totfact> 0.48442278E+00</totfact>
</mgrwt>
</event>
<event>
12    1  0.4672461E-008  0.1449507E+04  0.7818608E-02  0.8918743E-01
         -2   -1    0    0    0  501 -0.00000000000E+00  0.00000000000E+00  0.47289724622E+03  0.47289724622E+03  0.00000000000E+00 0.  1.
          2   -1    0    0  501    0  0.00000000000E+00 -0.00000000000E+00 -0.11107430104E+04  0.11107430104E+04  0.00000000000E+00 0. -1.
         23    2    1    2    0    0 -0.24770873821E+03 -0.31384353552E+03  0.40942452626E+01  0.41057876799E+03  0.93277961532E+02 0.  0.
        254    2    1    2    0    0  0.24770873821E+03  0.31384353552E+03 -0.64194000940E+03  0.11730614886E+04  0.89673234390E+03 0.  0.
         23    2    4    4    0    0  0.10336995264E+03  0.61761769236E+03 -0.41184308758E+03  0.75519876855E+03  0.92593143445E+02 0.  0.
         23    2    4    4    0    0  0.14433878556E+03 -0.30377415685E+03 -0.23009692183E+03  0.41786272005E+03  0.92478300074E+02 0.  0.
         11    1    3    3    0    0 -0.51172551528E+02 -0.10323718328E+03  0.36086403323E+02  0.12074259624E+03  0.00000000000E+00 0. -1.
        -11    1    3    3    0    0 -0.19653618668E+03 -0.21060635224E+03 -0.31992158060E+02  0.28983617175E+03  0.00000000000E+00 0.  1.
          1    1    5    5  502    0  0.11303619372E+02  0.34095655468E+03 -0.23353495802E+03  0.41342196435E+03  0.00000000000E+00 0. -1.
          1    1    6    6  503    0  0.10689786536E+03 -0.15054987160E+03 -0.83944469805E+02  0.20282773841E+03  0.00000000000E+00 0. -1.
         -1    1    5    5    0  502  0.92066333271E+02  0.27666113768E+03 -0.17830812956E+03  0.34177680420E+03  0.00000000000E+00 0.  1.
         -1    1    6    6    0  503  0.37440920199E+02 -0.15322428524E+03 -0.14615245202E+03  0.21503498163E+03  0.00000000000E+00 0.  1.
<mgrwt>
<rscale>  0 0.14495066E+04</rscale>
<asrwt>0</asrwt>
<pdfrwt beam="1">  1        2 0.17088354E+00 0.14495066E+04</pdfrwt>
<pdfrwt beam="2">  1       -2 0.72753423E-01 0.14495066E+04</pdfrwt>
<totfact> 0.35545446E+01</totfact>
</mgrwt>
</event>
<event>
12    1  0.4672461E-008  0.1371117E+04  0.7818608E-02  0.8974995E-01
         -2   -1    0    0    0  501 -0.00000000000E+00  0.00000000000E+00  0.36993218889E+03  0.36993218889E+03  0.00000000000E+00 0.  1.
          2   -1    0    0  501    0  0.00000000000E+00 -0.00000000000E+00 -0.12704780888E+04  0.12704780888E+04  0.00000000000E+00 0. -1.
         23    2    1    2    0    0 -0.23756489678E+03  0.27339811080E+03 -0.10076958452E+03  0.38755029570E+03  0.94112248706E+02 0.  0.
        254    2    1    2    0    0  0.23756489678E+03 -0.27339811080E+03 -0.79977631539E+03  0.12528599820E+04  0.89377422914E+03 0.  0.
         23    2    4    4    0    0  0.47669842499E+03 -0.12335522495E+02 -0.73664387900E+03  0.88207948144E+03  0.89590477256E+02 0.  0.
         23    2    4    4    0    0 -0.23913352821E+03 -0.26106258831E+03 -0.63132436391E+02  0.37078050056E+03  0.90299256604E+02 0.  0.
         11    1    3    3    0    0 -0.94148114420E+02  0.75420952607E+02  0.60103318951E+01  0.12078208323E+03  0.00000000000E+00 0. -1.
        -11    1    3    3    0    0 -0.14341678236E+03  0.19797715820E+03 -0.10677991642E+03  0.26676821246E+03  0.00000000000E+00 0.  1.
          2    1    5    5  502    0  0.39173833377E+03 -0.36786960932E+02 -0.63841796592E+03  0.74992646430E+03  0.00000000000E+00 0. -1.
          1    1    6    6  503    0 -0.14534035611E+03 -0.21398570979E+03 -0.28368704281E+02  0.26022775887E+03  0.00000000000E+00 0. -1.
         -2    1    5    5    0  502  0.84960091212E+02  0.24451438437E+02 -0.98225913075E+02  0.13215301714E+03  0.00000000000E+00 0.  1.
         -1    1    6    6    0  503 -0.93793172101E+02 -0.47076878524E+02 -0.34763732110E+02  0.11055274169E+03  0.00000000000E+00 0.  1.
<mgrwt>
<rscale>  0 0.13711174E+04</rscale>
<asrwt>0</asrwt>
<pdfrwt beam="1">  1        2 0.19545816E+00 0.13711174E+04</pdfrwt>
<pdfrwt beam="2">  1       -2 0.56912646E-01 0.13711174E+04</pdfrwt>
<totfact> 0.48564179E+01</totfact>
</mgrwt>
</event>
<event>
12    1  0.4672461E-008  0.1734437E+04  0.7818608E-02  0.8741964E-01
          1   -1    0    0  501    0  0.00000000000E+00  0.00000000000E+00  0.62691608102E+03  0.62691608102E+03  0.00000000000E+00 0. -1.
         -1   -1    0    0    0  501 -0.00000000000E+00 -0.00000000000E+00 -0.11996304039E+04  0.11996304039E+04  0.00000000000E+00 0.  1.
         23    2    1    2    0    0 -0.30809941298E+02 -0.19217036165E+03  0.41074873199E+03  0.46304649909E+03  0.88424199815E+02 0.  0.
        254    2    1    2    0    0  0.30809941298E+02  0.19217036165E+03 -0.98346305487E+03  0.13634999858E+04  0.92415038315E+03 0.  0.
         23    2    4    4    0    0  0.17600788763E+03 -0.76566719438E+02  0.99473860937E+02  0.23475081549E+03  0.91496761309E+02 0.  0.
         23    2    4    4    0    0 -0.14519794633E+03  0.26873708109E+03 -0.10829369158E+04  0.11287491703E+04  0.89555924129E+02 0.  0.
         11    1    3    3    0    0  0.44171375684E+01 -0.17373793103E+03  0.32587724240E+03  0.36932418943E+03  0.00000000000E+00 0.  1.
        -11    1    3    3    0    0 -0.35227078866E+02 -0.18432430621E+02  0.84871489590E+02  0.93722309667E+02  0.00000000000E+00 0. -1.
          4    1    5    5  502    0  0.52454351134E+02 -0.50420393775E+02  0.77968402622E+02  0.10664308167E+03  0.00000000000E+00 0. -1.
          3    1    6    6  503    0 -0.57227640608E+01  0.71582847382E+02 -0.34163557247E+03  0.34910130112E+03  0.00000000000E+00 0. -1.
         -4    1    5    5    0  502  0.12355353650E+03 -0.26146325664E+02  0.21505458315E+02  0.12810773382E+03  0.00000000000E+00 0.  1.
         -3    1    6    6    0  503 -0.13947518227E+03  0.19715423371E+03 -0.74130134334E+03  0.77964786921E+03  0.00000000000E+00 0.  1.
<mgrwt>
<rscale>  0 0.17344366E+04</rscale>
<asrwt>0</asrwt>
<pdfrwt beam="1">  1        1 0.96448629E-01 0.17344366E+04</pdfrwt>
<pdfrwt beam="2">  1       -1 0.18455852E+00 0.17344366E+04</pdfrwt>
<totfact> 0.58843497E+00</totfact>
</mgrwt>
</event>
<event>
12    1  0.4672461E-008  0.2036181E+04  0.7818608E-02  0.8589889E-01
          2   -1    0    0  501    0  0.00000000000E+00  0.00000000000E+00  0.14422874502E+04  0.14422874502E+04  0.00000000000E+00 0. -1.
         -2   -1    0    0    0  501 -0.00000000000E+00 -0.00000000000E+00 -0.71865554323E+03  0.71865554323E+03  0.00000000000E+00 0.  1.
         23    2    1    2    0    0 -0.37092986220E+02 -0.61031836835E+03 -0.27080221506E+03  0.67495073931E+03  0.91434459819E+02 0.  0.
        254    2    1    2    0    0  0.37092986220E+02  0.61031836835E+03  0.99443412199E+03  0.14859922541E+04  0.91946144879E+03 0.  0.
         23    2    4    4    0    0  0.24751763870E+03 -0.14243022911E+03  0.16376466549E+03  0.34178655515E+03  0.91912088376E+02 0.  0.
         23    2    4    4    0    0 -0.21042465248E+03  0.75274859746E+03  0.83066945650E+03  0.11442056989E+04  0.91027194462E+02 0.  0.
         11    1    3    3    0    0 -0.20933570532E+02 -0.30281060749E+03 -0.18428142970E+03  0.35509452786E+03  0.00000000000E+00 0.  1.
        -11    1    3    3    0    0 -0.16159415687E+02 -0.30750776087E+03 -0.86520785366E+02  0.31985621146E+03  0.00000000000E+00 0. -1.
          2    1    5    5  502    0  0.18260847646E+03 -0.14693304562E+03  0.13655715986E+03  0.27126192781E+03  0.00000000000E+00 0. -1.
          1    1    6    6  503    0 -0.10308781816E+03  0.50504759225E+03  0.57789272884E+03  0.77437728191E+03  0.00000000000E+00 0. -1.
         -2    1    5    5    0  502  0.64909162243E+02  0.45028165124E+01  0.27207505633E+02  0.70524627346E+02  0.00000000000E+00 0.  1.
         -1    1    6    6    0  503 -0.10733683432E+03  0.24770100521E+03  0.25277672767E+03  0.36982841702E+03  0.00000000000E+00 0.  1.
<mgrwt>
<rscale>  0 0.20361806E+04</rscale>
<asrwt>0</asrwt>
<pdfrwt beam="1">  1        2 0.22189038E+00 0.20361806E+04</pdfrwt>
<pdfrwt beam="2">  1       -2 0.11056239E+00 0.20361806E+04</pdfrwt>
<totfact> 0.82296200E+00</totfact>
</mgrwt>
</event>
<event>
12    1  0.4672461E-008  0.1953661E+04  0.7818608E-02  0.8628598E-01
         -2   -1    0    0    0  501 -0.00000000000E+00  0.00000000000E+00  0.11672385385E+04  0.11672385385E+04  0.00000000000E+00 0.  1.
          2   -1    0    0  501    0  0.00000000000E+00 -0.00000000000E+00 -0.81748289223E+03  0.81748289223E+03  0.00000000000E+00 0. -1.
         23    2    1    2    0    0 -0.44962335307E+03  0.38252578749E+03 -0.35594579934E+03  0.69552198886E+03  0.92554239227E+02 0.  0.
        254    2    1    2    0    0  0.44962335307E+03 -0.38252578749E+03  0.70570144558E+03  0.12891994418E+04  0.90306895243E+03 0.  0.
         23    2    4    4    0    0  0.49133903878E+03 -0.19360308217E+03 -0.16854287643E+02  0.53635526843E+03  0.92177559688E+02 0.  0.
         23    2    4    4    0    0 -0.41715685713E+02 -0.18892270532E+03  0.72255573322E+03  0.75284417341E+03  0.85179661970E+02 0.  0.
         11    1    3    3    0    0 -0.29883288337E+03  0.25341502257E+03 -0.28581617095E+03  0.48498572084E+03  0.00000000000E+00 0.  1.
        -11    1    3    3    0    0 -0.15079046970E+03  0.12911076492E+03 -0.70129628383E+02  0.21053626801E+03  0.00000000000E+00 0. -1.
          2    1    5    5  502    0  0.25742001475E+02  0.90773861529E+01 -0.81320485876E+01  0.28481218260E+02  0.00000000000E+00 0. -1.
          1    1    6    6  503    0  0.17196516806E+02 -0.23468550090E+02  0.51131613649E+02  0.58829711439E+02  0.00000000000E+00 0. -1.
         -2    1    5    5    0  502  0.46559703731E+03 -0.20268046832E+03 -0.87222390554E+01  0.50787405017E+03  0.00000000000E+00 0.  1.
         -1    1    6    6    0  503 -0.58912202519E+02 -0.16545415523E+03  0.67142411957E+03  0.69401446197E+03  0.00000000000E+00 0.  1.
<mgrwt>
<rscale>  0 0.19536607E+04</rscale>
<asrwt>0</asrwt>
<pdfrwt beam="1">  1        2 0.12576660E+00 0.19536607E+04</pdfrwt>
<pdfrwt beam="2">  1       -2 0.17957516E+00 0.19536607E+04</pdfrwt>
<totfact> 0.56941159E+00</totfact>
</mgrwt>
</event>
<event>
12    1  0.4672461E-008  0.1083258E+04  0.7818608E-02  0.9221665E-01
         -2   -1    0    0    0  501 -0.00000000000E+00  0.00000000000E+00  0.76992415867E+03  0.76992415867E+03  0.00000000000E+00 0.  1.
          2   -1    0    0  501    0  0.00000000000E+00 -0.00000000000E+00 -0.38102709957E+03  0.38102709957E+03  0.00000000000E+00 0. -1.
         23    2    1    2    0    0  0.86343133473E+02 -0.37176327254E+02 -0.46481072502E+02  0.14023100798E+03  0.93096882285E+02 0.  0.
        254    2    1    2    0    0 -0.86343133473E+02  0.37176327254E+02  0.43537813160E+03  0.10107202503E+04  0.90728390860E+03 0.  0.
         23    2    4    4    0    0  0.29429065783E+03 -0.24840273613E+03  0.33179700441E+03  0.51582483433E+03  0.87607630789E+02 0.  0.
         23    2    4    4    0    0 -0.38063379130E+03  0.28557906339E+03  0.10358112719E+03  0.49489541593E+03  0.88062127348E+02 0.  0.
         11    1    3    3    0    0  0.34938614288E+02 -0.64774939729E+02 -0.20763702079E+02  0.76469803905E+02  0.00000000000E+00 0.  1.
        -11    1    3    3    0    0  0.51404519186E+02  0.27598612475E+02 -0.25717370423E+02  0.63761204072E+02  0.00000000000E+00 0. -1.
          4    1    5    5  502    0  0.75479696758E+02 -0.10278410634E+03  0.14656424861E+03  0.19427515567E+03  0.00000000000E+00 0. -1.
          3    1    6    6  503    0 -0.49085759040E+02  0.10251090577E+02 -0.52035952034E+01  0.50414025842E+02  0.00000000000E+00 0. -1.
         -4    1    5    5    0  502  0.21881096107E+03 -0.14561862979E+03  0.18523275580E+03  0.32154967866E+03  0.00000000000E+00 0.  1.
         -3    1    6    6    0  503 -0.33154803226E+03  0.27532797281E+03  0.10878472239E+03  0.44448139009E+03  0.00000000000E+00 0.  1.
<mgrwt>
<rscale>  0 0.10832580E+04</rscale>
<asrwt>0</asrwt>
<pdfrwt beam="1">  1        2 0.58619554E-01 0.10832580E+04</pdfrwt>
<pdfrwt beam="2">  1       -2 0.11844987E+00 0.10832580E+04</pdfrwt>
<totfact> 0.45767250E+01</totfact>
</mgrwt>
</event>
<event>
12    1  0.4672461E-008  0.1144645E+04  0.7818608E-02  0.9162738E-01
          2   -1    0    0  501    0  0.00000000000E+00  0.00000000000E+00  0.21185605572E+04  0.21185605572E+04  0.00000000000E+00 0. -1.
         -2   -1    0    0    0  501 -0.00000000000E+00 -0.00000000000E+00 -0.15461109203E+03  0.15461109203E+03  0.00000000000E+00 0.  1.
         23    2    1    2    0    0 -0.12226084992E+03 -0.98842626276E+02  0.13219497162E+03  0.22671974328E+03  0.95962238800E+02 0.  0.
        254    2    1    2    0    0  0.12226084992E+03  0.98842626276E+02  0.18317544935E+04  0.20464519060E+04  0.89884553655E+03 0.  0.
         23    2    4    4    0    0  0.43441695613E+03  0.58958608858E+02  0.48310856077E+03  0.65870086798E+03  0.91097434977E+02 0.  0.
         23    2    4    4    0    0 -0.31215610621E+03  0.39884017418E+02  0.13486459328E+04  0.13877510380E+04  0.89302418362E+02 0.  0.
         13    1    3    3    0    0 -0.44538725054E+02 -0.20327372955E+02  0.10049127986E+03  0.11178281375E+03  0.00000000000E+00 0. -1.
        -13    1    3    3    0    0 -0.77722124870E+02 -0.78515253321E+02  0.31703691760E+02  0.11493692953E+03  0.00000000000E+00 0.  1.
          1    1    5    5  502    0  0.11294728846E+03  0.55945423690E+02  0.14581709991E+03  0.19274233326E+03  0.00000000000E+00 0. -1.
          1    1    6    6  503    0 -0.17250476862E+02  0.26863902386E+02  0.13071056684E+03  0.13455296536E+03  0.00000000000E+00 0. -1.
         -1    1    5    5    0  502  0.32146966767E+03  0.30131851683E+01  0.33729146086E+03  0.46595853473E+03  0.00000000000E+00 0.  1.
         -1    1    6    6    0  503 -0.29490562934E+03  0.13020115032E+02  0.12179353659E+04  0.12531980726E+04  0.00000000000E+00 0.  1.
<mgrwt>
<rscale>  0 0.11446449E+04</rscale>
<asrwt>0</asrwt>
<pdfrwt beam="1">  1        2 0.32593237E+00 0.11446449E+04</pdfrwt>
<pdfrwt beam="2">  1       -2 0.23786323E-01 0.11446449E+04</pdfrwt>
<totfact> 0.89428423E+01</totfact>
</mgrwt>
</event>
<event>
12    1  0.4672461E-008  0.1842942E+04  0.7818608E-02  0.8683791E-01
          2   -1    0    0  501    0  0.00000000000E+00  0.00000000000E+00  0.17506990426E+04  0.17506990426E+04  0.00000000000E+00 0. -1.
         -2   -1    0    0    0  501 -0.00000000000E+00 -0.00000000000E+00 -0.48501130903E+03  0.48501130903E+03  0.00000000000E+00 0.  1.
         23    2    1    2    0    0  0.49412217495E+02 -0.20474190911E+03  0.12978097246E+04  0.13179410992E+04  0.91092496691E+02 0.  0.
        254    2    1    2    0    0 -0.49412217495E+02  0.20474190911E+03 -0.32121990996E+02  0.91776925253E+03  0.89269690377E+03 0.  0.
         23    2    4    4    0    0  0.15426122706E+03  0.49395352647E+03 -0.12854786794E+03  0.54103653869E+03  0.91702613696E+02 0.  0.
         23    2    4    4    0    0 -0.20367344455E+03 -0.28921161736E+03  0.96425876940E+02  0.37673271384E+03  0.86621915830E+02 0.  0.
         13    1    3    3    0    0  0.40856994215E+02 -0.10177726476E+03  0.91072604657E+03  0.91730574920E+03  0.00000000000E+00 0. -1.
        -13    1    3    3    0    0  0.85552232801E+01 -0.10296464435E+03  0.38708367804E+03  0.40063534995E+03  0.00000000000E+00 0.  1.
          1    1    6    6  502    0 -0.10182108679E+03 -0.91996443827E+02  0.67384486492E+02  0.15287756020E+03  0.00000000000E+00 0.  1.
          1    1    5    5  503    0  0.13007930618E+02  0.18837328481E+03 -0.50547130650E+02  0.19547049165E+03  0.00000000000E+00 0. -1.
         -1    1    5    5    0  503  0.14125329644E+03  0.30558024166E+03 -0.78000737285E+02  0.34556604704E+03  0.00000000000E+00 0.  1.
         -1    1    6    6    0  502 -0.10185235776E+03 -0.19721517354E+03  0.29041390448E+02  0.22385515364E+03  0.00000000000E+00 0. -1.
<mgrwt>
<rscale>  0 0.18429420E+04</rscale>
<asrwt>0</asrwt>
<pdfrwt beam="1">  1        2 0.26933831E+00 0.18429420E+04</pdfrwt>
<pdfrwt beam="2">  1       -2 0.74617125E-01 0.18429420E+04</pdfrwt>
<totfact> 0.13963248E+01</totfact>
</mgrwt>
</event>
<event>
12    1  0.4672461E-008  0.1688282E+04  0.7818608E-02  0.8768076E-01
         -1   -1    0    0    0  501 -0.00000000000E+00  0.00000000000E+00  0.15955212474E+04  0.15955212474E+04  0.00000000000E+00 0.  1.
          1   -1    0    0  501    0  0.00000000000E+00 -0.00000000000E+00 -0.44660878848E+03  0.44660878848E+03  0.00000000000E+00 0. -1.
         23    2    1    2    0    0  0.33695206228E+03 -0.45144326555E+03  0.16470103540E+03  0.59359286981E+03  0.88816382146E+02 0.  0.
        254    2    1    2    0    0 -0.33695206228E+03  0.45144326555E+03  0.98421142352E+03  0.14485371661E+04  0.90124917810E+03 0.  0.
         23    2    4    4    0    0  0.14869027928E+03  0.53473720110E+03  0.53280358949E+03  0.77435474139E+03  0.87709333294E+02 0.  0.
         23    2    4    4    0    0 -0.48564234156E+03 -0.83293935548E+02  0.45140783403E+03  0.67418242469E+03  0.89255506912E+02 0.  0.
         11    1    3    3    0    0  0.20119499537E+03 -0.26885166767E+03  0.52413735715E+02  0.33986445102E+03  0.00000000000E+00 0. -1.
        -11    1    3    3    0    0  0.13575706691E+03 -0.18259159788E+03  0.11228729969E+03  0.25372841879E+03  0.00000000000E+00 0.  1.
          1    1    6    6  502    0 -0.33902231674E+03 -0.28741450482E+02  0.34779061060E+03  0.48653932117E+03  0.00000000000E+00 0. -1.
          1    1    5    5  503    0  0.77661898161E+02  0.19283368687E+03  0.15098117025E+03  0.25692706161E+03  0.00000000000E+00 0. -1.
         -1    1    5    5    0  503  0.71028381122E+02  0.34190351423E+03  0.38182241924E+03  0.51742767978E+03  0.00000000000E+00 0.  1.
         -1    1    6    6    0  502 -0.14662002482E+03 -0.54552485066E+02  0.10361722344E+03  0.18764310352E+03  0.00000000000E+00 0.  1.
<mgrwt>
<rscale>  0 0.16882817E+04</rscale>
<asrwt>0</asrwt>
<pdfrwt beam="1">  1        1 0.68709045E-01 0.16882817E+04</pdfrwt>
<pdfrwt beam="2">  1       -1 0.24546480E+00 0.16882817E+04</pdfrwt>
<totfact> 0.36791403E+00</totfact>
</mgrwt>
</event>
<event>
12    1  0.4672461E-008  0.1340811E+04  0.7818608E-02  0.8997814E-01
         -1   -1    0    0    0  501 -0.00000000000E+00  0.00000000000E+00  0.57330133475E+03  0.57330133475E+03  0.00000000000E+00 0.  1.
          1   -1    0    0  501    0  0.00000000000E+00 -0.00000000000E+00 -0.78395647919E+03  0.78395647919E+03  0.00000000000E+00 0. -1.
         23    2    1    2    0    0  0.34777677290E+03 -0.84877999627E+02 -0.10820993016E+03  0.38500631344E+03  0.91474115533E+02 0.  0.
        254    2    1    2    0    0 -0.34777677290E+03  0.84877999627E+02 -0.10244521428E+03  0.97225150050E+03  0.89812304263E+03 0.  0.
         23    2    4    4    0    0  0.14597345028E+03 -0.24786831585E+03 -0.19984896319E+03  0.36215632856E+03  0.92036123554E+02 0.  0.
         23    2    4    4    0    0 -0.49375022318E+03  0.33274631548E+03  0.97403748908E+02  0.61009517194E+03  0.90659997632E+02 0.  0.
         11    1    3    3    0    0  0.33115942397E+03 -0.61520993888E+02 -0.11432026983E+03  0.35569723202E+03  0.00000000000E+00 0. -1.
        -11    1    3    3    0    0  0.16617348929E+02 -0.23357005739E+02  0.61103396724E+01  0.29309081416E+02  0.00000000000E+00 0.  1.
          1    1    6    6  502    0 -0.48725263907E+03  0.31052774380E+03  0.85558628865E+02  0.58409151075E+03  0.00000000000E+00 0. -1.
          1    1    5    5  503    0  0.10744226815E+03 -0.10871720898E+03 -0.13477197168E+03  0.20378114943E+03  0.00000000000E+00 0. -1.
         -1    1    5    5    0  503  0.38531182128E+02 -0.13915110687E+03 -0.65076991510E+02  0.15837517913E+03  0.00000000000E+00 0.  1.
         -1    1    6    6    0  502 -0.64975841053E+01  0.22218571680E+02  0.11845120043E+02  0.26003661194E+02  0.00000000000E+00 0.  1.
<mgrwt>
<rscale>  0 0.13408106E+04</rscale>
<asrwt>0</asrwt>
<pdfrwt beam="1">  1        1 0.12060869E+00 0.13408106E+04</pdfrwt>
<pdfrwt beam="2">  1       -1 0.88200206E-01 0.13408106E+04</pdfrwt>
<totfact> 0.28264903E+01</totfact>
</mgrwt>
</event>
<event>
12    1  0.4672461E-008  0.1405685E+04  0.7818608E-02  0.8949714E-01
         -1   -1    0    0    0  501 -0.00000000000E+00  0.00000000000E+00  0.79567732857E+03  0.79567732857E+03  0.00000000000E+00 0.  1.
          1   -1    0    0  501    0  0.00000000000E+00 -0.00000000000E+00 -0.62083926871E+03  0.62083926871E+03  0.00000000000E+00 0. -1.
         23    2    1    2    0    0 -0.32030355444E+03  0.12905630106E+02  0.29728624716E+03  0.44577177536E+03  0.87019771766E+02 0.  0.
        254    2    1    2    0    0  0.32030355444E+03 -0.12905630106E+02 -0.12244818729E+03  0.97074482192E+03  0.90806994689E+03 0.  0.
         23    2    4    4    0    0  0.28909330161E+03  0.32686414603E+02 -0.49628101566E+03  0.58248059219E+03  0.91353462129E+02 0.  0.
         23    2    4    4    0    0  0.31210252827E+02 -0.45592044709E+02  0.37383282836E+03  0.38826422973E+03  0.89137052372E+02 0.  0.
         13    1    3    3    0    0 -0.32568418884E+03  0.95817925328E+01  0.29219323178E+03  0.43765155810E+03  0.00000000000E+00 0.  1.
        -13    1    3    3    0    0  0.53806343945E+01  0.33238375729E+01  0.50930153741E+01  0.81202172569E+01  0.00000000000E+00 0. -1.
          4    1    5    5  502    0  0.11393364677E+03  0.58190757653E+02 -0.20853247969E+03  0.24464839102E+03  0.00000000000E+00 0. -1.
          3    1    6    6  503    0  0.51939291236E+02  0.29826953171E+01  0.18055240609E+03  0.18789826447E+03  0.00000000000E+00 0. -1.
         -4    1    5    5    0  502  0.17515965484E+03 -0.25504343049E+02 -0.28774853597E+03  0.33783220118E+03  0.00000000000E+00 0.  1.
         -3    1    6    6    0  503 -0.20729038409E+02 -0.48574740026E+02  0.19328042227E+03  0.20036596526E+03  0.00000000000E+00 0.  1.
<mgrwt>
<rscale>  0 0.14056852E+04</rscale>
<asrwt>0</asrwt>
<pdfrwt beam="1">  1        1 0.95513734E-01 0.14056852E+04</pdfrwt>
<pdfrwt beam="2">  1       -1 0.12241190E+00 0.14056852E+04</pdfrwt>
<totfact> 0.18728324E+01</totfact>
</mgrwt>
</event>
<event>
12    1  0.4672461E-008  0.1713236E+04  0.7818608E-02  0.8753851E-01
         -2   -1    0    0    0  501 -0.00000000000E+00  0.00000000000E+00  0.14647039011E+04  0.14647039011E+04  0.00000000000E+00 0.  1.
          2   -1    0    0  501    0  0.00000000000E+00 -0.00000000000E+00 -0.50098462988E+03  0.50098462988E+03  0.00000000000E+00 0. -1.
         23    2    1    2    0    0  0.47322492146E+03  0.22542275674E+03 -0.27038257416E+00  0.53308151767E+03  0.97049398908E+02 0.  0.
        254    2    1    2    0    0 -0.47322492146E+03 -0.22542275674E+03  0.96398965382E+03  0.14326070133E+04  0.92104807499E+03 0.  0.
         23    2    4    4    0    0 -0.58361817054E+02 -0.27507105416E+03 -0.78731615291E+02  0.30536197467E+03  0.89314510608E+02 0.  0.
         23    2    4    4    0    0 -0.41486310441E+03  0.49648297416E+02  0.10427212691E+04  0.11272450387E+04  0.94007357676E+02 0.  0.
         13    1    3    3    0    0  0.20069619133E+03  0.90906006075E+02 -0.47850616917E+02  0.22546073870E+03  0.00000000000E+00 0.  1.
        -13    1    3    3    0    0  0.27252873013E+03  0.13451675067E+03  0.47580234343E+02  0.30762077898E+03  0.00000000000E+00 0. -1.
          4    1    6    6  502    0 -0.19461132645E+03  0.19623175227E+01  0.59476090531E+03  0.62579385868E+03  0.00000000000E+00 0. -1.
          4    1    5    5  503    0 -0.48498268241E+02 -0.10876171552E+03 -0.70864438629E+02  0.13857475039E+03  0.00000000000E+00 0. -1.
         -4    1    5    5    0  503 -0.98635488128E+01 -0.16630933864E+03 -0.78671766622E+01  0.16678722428E+03  0.00000000000E+00 0.  1.
         -4    1    6    6    0  502 -0.22025177796E+03  0.47685979893E+02  0.44796036380E+03  0.50145117999E+03  0.00000000000E+00 0.  1.
<mgrwt>
<rscale>  0 0.17132357E+04</rscale>
<asrwt>0</asrwt>
<pdfrwt beam="1">  1        2 0.77074559E-01 0.17132357E+04</pdfrwt>
<pdfrwt beam="2">  1       -2 0.22533906E+00 0.17132357E+04</pdfrwt>
<totfact> 0.53378043E+00</totfact>
</mgrwt>
</event>
<event>
12    1  0.4672461E-008  0.1793464E+04  0.7818608E-02  0.8709783E-01
         -1   -1    0    0    0  501 -0.00000000000E+00  0.00000000000E+00  0.12785594865E+04  0.12785594865E+04  0.00000000000E+00 0.  1.
          1   -1    0    0  501    0  0.00000000000E+00 -0.00000000000E+00 -0.62893279054E+03  0.62893279054E+03  0.00000000000E+00 0. -1.
         23    2    1    2    0    0  0.39218597615E+03  0.35399556212E+03 -0.18288145959E+03  0.56657474735E+03  0.91861951755E+02 0.  0.
        254    2    1    2    0    0 -0.39218597615E+03 -0.35399556212E+03  0.83250815555E+03  0.13409175297E+04  0.90877241071E+03 0.  0.
         23    2    4    4    0    0 -0.67665123595E+03 -0.18162896301E+03  0.57597162581E+03  0.91121592334E+03  0.87892945598E+02 0.  0.
         23    2    4    4    0    0  0.28446525981E+03 -0.17236659911E+03  0.25653652973E+03  0.42970160634E+03  0.90563518481E+02 0.  0.
         11    1    3    3    0    0  0.32881406852E+03  0.33108715766E+03 -0.14197109506E+03  0.48774295429E+03  0.00000000000E+00 0. -1.
        -11    1    3    3    0    0  0.63371907624E+02  0.22908404468E+02 -0.40910364532E+02  0.78831793062E+02  0.00000000000E+00 0.  1.
          1    1    5    5  502    0  0.26306848533E+01  0.67552925116E+00  0.30021174351E+01  0.40484011240E+01  0.00000000000E+00 0. -1.
          3    1    6    6  503    0  0.11704136938E+03 -0.11663125857E+03  0.15254519783E+03  0.22488123533E+03  0.00000000000E+00 0.  1.
         -1    1    5    5    0  502 -0.67928192081E+03 -0.18230449226E+03  0.57296950838E+03  0.90716752222E+03  0.00000000000E+00 0.  1.
         -3    1    6    6    0  503  0.16742389043E+03 -0.55735340539E+02  0.10399133190E+03  0.20482037101E+03  0.00000000000E+00 0. -1.
<mgrwt>
<rscale>  0 0.17934637E+04</rscale>
<asrwt>0</asrwt>
<pdfrwt beam="1">  1        1 0.96758891E-01 0.17934637E+04</pdfrwt>
<pdfrwt beam="2">  1       -1 0.19670146E+00 0.17934637E+04</pdfrwt>
<totfact> 0.47881093E+00</totfact>
</mgrwt>
</event>
<event>
12    1  0.4672461E-008  0.2101955E+04  0.7818608E-02  0.8560383E-01
         -2   -1    0    0    0  501 -0.00000000000E+00  0.00000000000E+00  0.58820413445E+03  0.58820413445E+03  0.00000000000E+00 0. -1.
          2   -1    0    0  501    0  0.00000000000E+00 -0.00000000000E+00 -0.18778413169E+04  0.18778413169E+04  0.00000000000E+00 0.  1.
         23    2    1    2    0    0  0.68560381041E+03 -0.42533524327E+03 -0.56834685527E+03  0.99112289329E+03  0.91344335791E+02 0.  0.
        254    2    1    2    0    0 -0.68560381041E+03  0.42533524327E+03 -0.72129032718E+03  0.14749225581E+04  0.10020849077E+04 0.  0.
         23    2    4    4    0    0 -0.27093418910E+03  0.66294477437E+03 -0.17419231643E+03  0.74272468678E+03  0.91629081446E+02 0.  0.
         23    2    4    4    0    0 -0.41466962131E+03 -0.23760953110E+03 -0.54709801075E+03  0.73219787129E+03  0.91587691567E+02 0.  0.
         11    1    3    3    0    0  0.25016793865E+03 -0.19414307067E+03 -0.18618276670E+03  0.36734119294E+03  0.00000000000E+00 0.  1.
        -11    1    3    3    0    0  0.43543587176E+03 -0.23119217260E+03 -0.38216408857E+03  0.62378170034E+03  0.00000000000E+00 0. -1.
          2    1    5    5  502    0 -0.72349640003E+02  0.18128408994E+03 -0.60863904286E+01  0.19528296347E+03  0.00000000000E+00 0. -1.
          3    1    6    6  503    0 -0.14911302276E+03 -0.90688015640E+02 -0.26841975321E+03  0.32016897671E+03  0.00000000000E+00 0. -1.
         -2    1    5    5    0  502 -0.19858454910E+03  0.48166068443E+03 -0.16810592600E+03  0.54744172331E+03  0.00000000000E+00 0.  1.
         -3    1    6    6    0  503 -0.26555659855E+03 -0.14692151546E+03 -0.27867825754E+03  0.41202889457E+03  0.00000000000E+00 0.  1.
<mgrwt>
<rscale>  0 0.21019553E+04</rscale>
<asrwt>0</asrwt>
<pdfrwt beam="1">  1        2 0.28889866E+00 0.21019553E+04</pdfrwt>
<pdfrwt beam="2">  1       -2 0.90492944E-01 0.21019553E+04</pdfrwt>
<totfact> 0.75107113E+00</totfact>
</mgrwt>
</event>
<event>
12    1  0.4672461E-008  0.2750944E+04  0.7818608E-02  0.8318662E-01
          1   -1    0    0  501    0  0.00000000000E+00  0.00000000000E+00  0.36532129969E+04  0.36532129969E+04  0.00000000000E+00 0. -1.
         -1   -1    0    0    0  501 -0.00000000000E+00 -0.00000000000E+00 -0.51787936669E+03  0.51787936669E+03  0.00000000000E+00 0.  1.
         23    2    1    2    0    0 -0.33007381559E+03  0.92612909444E+03  0.25185946991E+04  0.27051898079E+04  0.89826582364E+02 0.  0.
        254    2    1    2    0    0  0.33007381559E+03 -0.92612909444E+03  0.61673893111E+03  0.14659025557E+04  0.89545495164E+03 0.  0.
         23    2    4    4    0    0  0.40655546349E+03 -0.82609147964E+03  0.80181717913E+03  0.12245502788E+04  0.94329840602E+02 0.  0.
         23    2    4    4    0    0 -0.76481647897E+02 -0.10003761481E+03 -0.18507824803E+03  0.24135227697E+03  0.90221931164E+02 0.  0.
         11    1    3    3    0    0 -0.21485368672E+03  0.53696280904E+03  0.13736998672E+04  0.14904839784E+04  0.00000000000E+00 0. -1.
        -11    1    3    3    0    0 -0.11522012887E+03  0.38916628540E+03  0.11448948319E+04  0.12147058294E+04  0.00000000000E+00 0.  1.
          4    1    5    5  502    0  0.34359281736E+03 -0.65824543296E+03  0.68754984184E+03  0.10119623803E+04  0.00000000000E+00 0. -1.
          3    1    6    6  503    0 -0.83407123462E+02 -0.11196888762E+03 -0.17673101239E+03  0.22522795293E+03  0.00000000000E+00 0. -1.
         -4    1    5    5    0  502  0.62962646128E+02 -0.16784604668E+03  0.11426733729E+03  0.21258789844E+03  0.00000000000E+00 0.  1.
         -3    1    6    6    0  503  0.69254755654E+01  0.11931272819E+02 -0.83472356376E+01  0.16124324038E+02  0.00000000000E+00 0.  1.
<mgrwt>
<rscale>  0 0.27509443E+04</rscale>
<asrwt>0</asrwt>
<pdfrwt beam="1">  1        1 0.56203275E+00 0.27509443E+04</pdfrwt>
<pdfrwt beam="2">  1       -1 0.79673751E-01 0.27509443E+04</pdfrwt>
<totfact> 0.25773646E-01</totfact>
</mgrwt>
</event>
<event>
12    1  0.4672461E-008  0.1812323E+04  0.7818608E-02  0.8699774E-01
         -2   -1    0    0    0  501 -0.00000000000E+00  0.00000000000E+00  0.24011869914E+03  0.24011869914E+03  0.00000000000E+00 0.  1.
          2   -1    0    0  501    0  0.00000000000E+00 -0.00000000000E+00 -0.34196771546E+04  0.34196771546E+04  0.00000000000E+00 0. -1.
         23    2    1    2    0    0  0.95726913570E+02 -0.40644424096E+02  0.15185435822E+03  0.20762983624E+03  0.96097823043E+02 0.  0.
        254    2    1    2    0    0 -0.95726913570E+02  0.40644424096E+02 -0.33314128136E+04  0.34521660175E+04  0.89906799860E+03 0.  0.
         23    2    4    4    0    0  0.12610346940E+03 -0.35077816045E+03 -0.90439081456E+03  0.98234674349E+03  0.90194102544E+02 0.  0.
         23    2    4    4    0    0 -0.22183038297E+03  0.39142258454E+03 -0.24270219991E+04  0.24698192740E+04  0.84564198265E+02 0.  0.
         13    1    3    3    0    0  0.10001566002E+03 -0.26317583915E+02  0.71101037758E+02  0.12550340650E+03  0.00000000000E+00 0.  1.
        -13    1    3    3    0    0 -0.42887464526E+01 -0.14326840181E+02  0.80753320460E+02  0.82126429735E+02  0.00000000000E+00 0. -1.
          1    1    6    6  502    0 -0.16660354328E+03  0.35334059197E+03 -0.20572848854E+04  0.20940457049E+04  0.00000000000E+00 0. -1.
          1    1    5    5  503    0  0.13258768460E+03 -0.34381468593E+03 -0.84020895361E+03  0.91746341513E+03  0.00000000000E+00 0. -1.
         -1    1    5    5    0  503 -0.64842151955E+01 -0.69634745188E+01 -0.64181860949E+02  0.64883328359E+02  0.00000000000E+00 0.  1.
         -1    1    6    6    0  502 -0.55226839694E+02  0.38081992572E+02 -0.36973711367E+03  0.37577356907E+03  0.00000000000E+00 0.  1.
<mgrwt>
<rscale>  0 0.18123227E+04</rscale>
<asrwt>0</asrwt>
<pdfrwt beam="1">  1        2 0.52610416E+00 0.18123227E+04</pdfrwt>
<pdfrwt beam="2">  1       -2 0.36941340E-01 0.18123227E+04</pdfrwt>
<totfact> 0.60627701E+00</totfact>
</mgrwt>
</event>
<event>
12    1  0.4672461E-008  0.1621693E+04  0.7818608E-02  0.8807331E-01
          2   -1    0    0  501    0  0.00000000000E+00  0.00000000000E+00  0.11970613092E+04  0.11970613092E+04  0.00000000000E+00 0.  1.
         -2   -1    0    0    0  501 -0.00000000000E+00 -0.00000000000E+00 -0.54923859496E+03  0.54923859496E+03  0.00000000000E+00 0. -1.
         23    2    1    2    0    0 -0.39484410555E+03  0.38591876152E+03  0.22895770355E+03  0.60445825465E+03  0.90072156748E+02 0.  0.
        254    2    1    2    0    0  0.39484410555E+03 -0.38591876152E+03  0.41886501065E+03  0.11418416495E+04  0.90747964006E+03 0.  0.
         23    2    4    4    0    0  0.24447200910E+03 -0.67349540092E+03  0.25315328593E+03  0.76553605393E+03  0.92715939252E+02 0.  0.
         23    2    4    4    0    0  0.15037209645E+03  0.28757663940E+03  0.16571172472E+03  0.37630559554E+03  0.93986353299E+02 0.  0.
         11    1    3    3    0    0 -0.33335195623E+02  0.18171319620E+02  0.40258347678E+02  0.55336847414E+02  0.00000000000E+00 0.  1.
        -11    1    3    3    0    0 -0.36150890992E+03  0.36774744190E+03  0.18869935587E+03  0.54912140724E+03  0.00000000000E+00 0. -1.
          1    1    5    5  502    0  0.79827204671E+02 -0.15210783727E+03  0.95267180635E+02  0.19643068108E+03  0.00000000000E+00 0. -1.
          3    1    6    6  503    0  0.11832525001E+03  0.18624443314E+03  0.65346056490E+02  0.23012596717E+03  0.00000000000E+00 0. -1.
         -1    1    5    5    0  502  0.16464480443E+03 -0.52138756365E+03  0.15788610529E+03  0.56910537284E+03  0.00000000000E+00 0.  1.
         -3    1    6    6    0  503  0.32046846439E+02  0.10133220626E+03  0.10036566823E+03  0.14617962837E+03  0.00000000000E+00 0.  1.
<mgrwt>
<rscale>  0 0.16216933E+04</rscale>
<asrwt>0</asrwt>
<pdfrwt beam="1">  1        2 0.18416328E+00 0.16216933E+04</pdfrwt>
<pdfrwt beam="2">  1       -2 0.84498245E-01 0.16216933E+04</pdfrwt>
<totfact> 0.22238260E+01</totfact>
</mgrwt>
</event>
<event>
12    1  0.4672461E-008  0.3990692E+04  0.7818608E-02  0.8006427E-01
          2   -1    0    0  501    0  0.00000000000E+00  0.00000000000E+00  0.20187412044E+04  0.20187412044E+04  0.00000000000E+00 0. -1.
         -2   -1    0    0    0  501 -0.00000000000E+00 -0.00000000000E+00 -0.19722221397E+04  0.19722221397E+04  0.00000000000E+00 0.  1.
         23    2    1    2    0    0 -0.74342481272E+03 -0.12613164185E+04  0.12192691529E+04  0.19075871119E+04  0.93122298759E+02 0.  0.
        254    2    1    2    0    0  0.74342481272E+03  0.12613164185E+04 -0.11727500882E+04  0.20833762323E+04  0.90637420315E+03 0.  0.
         23    2    4    4    0    0 -0.18723799708E+03  0.27722872652E+03 -0.12535625516E+03  0.36893852342E+03  0.92128220387E+02 0.  0.
         23    2    4    4    0    0  0.93066280981E+03  0.98408769197E+03 -0.10473938330E+04  0.17144377089E+04  0.87755142535E+02 0.  0.
         11    1    3    3    0    0 -0.40468669340E+03 -0.63811161446E+03  0.57749880558E+03  0.95103239838E+03  0.00000000000E+00 0. -1.
        -11    1    3    3    0    0 -0.33873811932E+03 -0.62320480404E+03  0.64177034727E+03  0.95655471348E+03  0.00000000000E+00 0.  1.
          1    1    5    5  502    0 -0.18801528381E+03  0.24058269580E+03 -0.13025557019E+03  0.33195827152E+03  0.00000000000E+00 0. -1.
          1    1    6    6  503    0  0.73000002394E+03  0.79529874509E+03 -0.87316308142E+03  0.13884573798E+04  0.00000000000E+00 0. -1.
         -1    1    5    5    0  502  0.77728672850E+00  0.36646030725E+02  0.48993150321E+01  0.36980251897E+02  0.00000000000E+00 0.  1.
         -1    1    6    6    0  503  0.20066278587E+03  0.18878894688E+03 -0.17423075161E+03  0.32598032901E+03  0.00000000000E+00 0.  1.
<mgrwt>
<rscale>  0 0.39906922E+04</rscale>
<asrwt>0</asrwt>
<pdfrwt beam="1">  1        2 0.31057557E+00 0.39906922E+04</pdfrwt>
<pdfrwt beam="2">  1       -2 0.30341879E+00 0.39906922E+04</pdfrwt>
<totfact> 0.15596161E-01</totfact>
</mgrwt>
</event>
<event>
12    1  0.4672461E-008  0.1967853E+04  0.7818608E-02  0.8621800E-01
          2   -1    0    0  501    0  0.00000000000E+00  0.00000000000E+00  0.97882146895E+03  0.97882146895E+03  0.00000000000E+00 0. -1.
         -2   -1    0    0    0  501 -0.00000000000E+00 -0.00000000000E+00 -0.98905767735E+03  0.98905767735E+03  0.00000000000E+00 0.  1.
         23    2    1    2    0    0 -0.57673591413E+03  0.23335900234E+03  0.45901014820E+03  0.77812483192E+03  0.87790655975E+02 0.  0.
        254    2    1    2    0    0  0.57673591413E+03 -0.23335900234E+03 -0.46924635661E+03  0.11897543144E+04  0.89902305130E+03 0.  0.
         23    2    4    4    0    0  0.57252628192E+03  0.16287820531E+03 -0.49615240182E+03  0.78167775559E+03  0.10265113005E+03 0.  0.
         23    2    4    4    0    0  0.42096322113E+01 -0.39623720765E+03  0.26906045208E+02  0.40807655879E+03  0.93706439689E+02 0.  0.
         13    1    3    3    0    0 -0.56401243196E+03  0.23863527355E+03  0.45714712971E+03  0.76422530407E+03  0.00000000000E+00 0. -1.
        -13    1    3    3    0    0 -0.12723482173E+02 -0.52762712091E+01  0.18630184952E+01  0.13899527848E+02  0.00000000000E+00 0.  1.
          4    1    5    5  502    0  0.48400179513E+03  0.17460274386E+03 -0.42981178709E+03  0.67043420869E+03  0.00000000000E+00 0. -1.
          1    1    6    6  503    0 -0.85320929786E+01 -0.31532100646E+03 -0.15540124869E+02  0.31581898170E+03  0.00000000000E+00 0. -1.
         -4    1    5    5    0  502  0.88524486789E+02 -0.11724538550E+02 -0.66340614724E+02  0.11124354690E+03  0.00000000000E+00 0.  1.
         -1    1    6    6    0  503  0.12741725190E+02 -0.80916201190E+02  0.42446170077E+02  0.92257577088E+02  0.00000000000E+00 0.  1.
<mgrwt>
<rscale>  0 0.19678525E+04</rscale>
<asrwt>0</asrwt>
<pdfrwt beam="1">  1        2 0.15058792E+00 0.19678525E+04</pdfrwt>
<pdfrwt beam="2">  1       -2 0.15216272E+00 0.19678525E+04</pdfrwt>
<totfact> 0.69829796E+00</totfact>
</mgrwt>
</event>
<event>
12    1  0.4672461E-008  0.1305929E+04  0.7818608E-02  0.9024876E-01
          2   -1    0    0  501    0  0.00000000000E+00  0.00000000000E+00  0.43547043745E+03  0.43547043745E+03  0.00000000000E+00 0. -1.
         -2   -1    0    0    0  501 -0.00000000000E+00 -0.00000000000E+00 -0.97908548580E+03  0.97908548580E+03  0.00000000000E+00 0.  1.
         23    2    1    2    0    0 -0.28825072463E+03  0.22140679494E+03 -0.83370518205E+02  0.38373841699E+03  0.90526682647E+02 0.  0.
        254    2    1    2    0    0  0.28825072463E+03 -0.22140679494E+03 -0.46024453014E+03  0.10308175063E+04  0.84773241922E+03 0.  0.
         23    2    4    4    0    0  0.22221685257E+03 -0.17134644278E+03 -0.70179318694E+03  0.76141506760E+03  0.92191620622E+02 0.  0.
         23    2    4    4    0    0  0.66033872054E+02 -0.50060352164E+02  0.24154865680E+03  0.26940243866E+03  0.85821962421E+02 0.  0.
         11    1    3    3    0    0 -0.24880401130E+03  0.15736690684E+03 -0.40505863115E+02  0.29716746853E+03  0.00000000000E+00 0. -1.
        -11    1    3    3    0    0 -0.39446713329E+02  0.64039888099E+02 -0.42864655090E+02  0.86570948454E+02  0.00000000000E+00 0.  1.
          4    1    5    5  502    0  0.15461071355E+02 -0.17448502961E+02 -0.15707266536E+03  0.15879331594E+03  0.00000000000E+00 0. -1.
          3    1    6    6  503    0  0.59312516055E+01  0.10733389224E+02 -0.92692823190E+00  0.12298153755E+02  0.00000000000E+00 0. -1.
         -4    1    5    5    0  502  0.20675578122E+03 -0.15389793982E+03 -0.54472052158E+03  0.60262175167E+03  0.00000000000E+00 0.  1.
         -3    1    6    6    0  503  0.60102620449E+02 -0.60793741388E+02  0.24247558503E+03  0.25710428490E+03  0.00000000000E+00 0.  1.
<mgrwt>
<rscale>  0 0.13059292E+04</rscale>
<asrwt>0</asrwt>
<pdfrwt beam="1">  1        2 0.66995453E-01 0.13059292E+04</pdfrwt>
<pdfrwt beam="2">  1       -2 0.15062853E+00 0.13059292E+04</pdfrwt>
<totfact> 0.20942059E+01</totfact>
</mgrwt>
</event>
<event>
12    1  0.4672461E-008  0.2444881E+04  0.7818608E-02  0.8422889E-01
         -2   -1    0    0    0  501 -0.00000000000E+00  0.00000000000E+00  0.52687381012E+03  0.52687381012E+03  0.00000000000E+00 0.  1.
          2   -1    0    0  501    0  0.00000000000E+00 -0.00000000000E+00 -0.28362785689E+04  0.28362785689E+04  0.00000000000E+00 0. -1.
         23    2    1    2    0    0 -0.16116463716E+03  0.90350687281E+03 -0.23650697341E+03  0.95269335702E+03  0.96903945063E+02 0.  0.
        254    2    1    2    0    0  0.16116463716E+03 -0.90350687281E+03 -0.20728977853E+04  0.24104590219E+04  0.81921227935E+03 0.  0.
         23    2    4    4    0    0  0.24212505965E+02 -0.51278458962E+03 -0.18703428620E+04  0.19414587986E+04  0.86865208642E+02 0.  0.
         23    2    4    4    0    0  0.13695213119E+03 -0.39072228319E+03 -0.20255492329E+03  0.46900022331E+03  0.86677123270E+02 0.  0.
         11    1    3    3    0    0 -0.13282653624E+03  0.54785940610E+03 -0.17791103963E+03  0.59113886321E+03  0.00000000000E+00 0.  1.
        -11    1    3    3    0    0 -0.28338100920E+02  0.35564746671E+03 -0.58595933783E+02  0.36155449381E+03  0.00000000000E+00 0. -1.
          3    1    5    5  502    0  0.34704109784E+02 -0.44204315026E+03 -0.14952239060E+04  0.15595836146E+04  0.00000000000E+00 0. -1.
          3    1    6    6  503    0  0.69657474719E+02 -0.27253835720E+03 -0.99548399945E+02  0.29839437639E+03  0.00000000000E+00 0. -1.
         -3    1    5    5    0  502 -0.10491603820E+02 -0.70741439353E+02 -0.37511895607E+03  0.38187518405E+03  0.00000000000E+00 0.  1.
         -3    1    6    6    0  503  0.67294656474E+02 -0.11818392599E+03 -0.10300652335E+03  0.17060584692E+03  0.00000000000E+00 0.  1.
<mgrwt>
<rscale>  0 0.24448811E+04</rscale>
<asrwt>0</asrwt>
<pdfrwt beam="1">  1        2 0.43635056E+00 0.24448811E+04</pdfrwt>
<pdfrwt beam="2">  1       -2 0.81057508E-01 0.24448811E+04</pdfrwt>
<totfact> 0.26429291E+00</totfact>
</mgrwt>
</event>
<event>
12    1  0.4672461E-008  0.1931476E+04  0.7818608E-02  0.8639345E-01
         -1   -1    0    0    0  501 -0.00000000000E+00  0.00000000000E+00  0.57321813601E+03  0.57321813601E+03  0.00000000000E+00 0.  1.
          1   -1    0    0  501    0  0.00000000000E+00 -0.00000000000E+00 -0.16270424283E+04  0.16270424283E+04  0.00000000000E+00 0. -1.
         23    2    1    2    0    0 -0.64913373649E+03  0.16712932721E+03 -0.86803734807E+03  0.11003927224E+04  0.89824751135E+02 0.  0.
        254    2    1    2    0    0  0.64913373649E+03 -0.16712932721E+03 -0.18578694420E+03  0.10998678419E+04  0.85198923773E+03 0.  0.
         23    2    4    4    0    0  0.48273924005E+03 -0.36392644259E+03  0.18567295768E+03  0.63906020173E+03  0.91890504020E+02 0.  0.
         23    2    4    4    0    0  0.16639449644E+03  0.19679711538E+03 -0.37145990188E+03  0.46080764020E+03  0.89134670543E+02 0.  0.
         13    1    3    3    0    0 -0.15824922798E+03  0.11438695504E+02 -0.16488174681E+03  0.22882231609E+03  0.00000000000E+00 0.  1.
        -13    1    3    3    0    0 -0.49088450850E+03  0.15569063171E+03 -0.70315560127E+03  0.87157040627E+03  0.00000000000E+00 0. -1.
          2    1    5    5  502    0  0.34230475904E+03 -0.20363520804E+03  0.12612596960E+03  0.41778894938E+03  0.00000000000E+00 0. -1.
          1    1    6    6  503    0  0.83192045278E+02  0.85100099375E+02 -0.24634123583E+03  0.27358170220E+03  0.00000000000E+00 0. -1.
         -2    1    5    5    0  502  0.14043448100E+03 -0.16029123455E+03  0.59546988077E+02  0.22127125235E+03  0.00000000000E+00 0.  1.
         -1    1    6    6    0  503  0.83202451166E+02  0.11169701600E+03 -0.12511866606E+03  0.18722593800E+03  0.00000000000E+00 0.  1.
<mgrwt>
<rscale>  0 0.19314764E+04</rscale>
<asrwt>0</asrwt>
<pdfrwt beam="1">  1        1 0.25031422E+00 0.19314764E+04</pdfrwt>
<pdfrwt beam="2">  1       -1 0.88187405E-01 0.19314764E+04</pdfrwt>
<totfact> 0.63021441E+00</totfact>
</mgrwt>
</event>
<event>
12    1  0.4672461E-008  0.1999053E+04  0.7818608E-02  0.8607063E-01
          1   -1    0    0  501    0  0.00000000000E+00  0.00000000000E+00  0.94682256282E+03  0.94682256282E+03  0.00000000000E+00 0. -1.
         -1   -1    0    0    0  501 -0.00000000000E+00 -0.00000000000E+00 -0.10551643939E+04  0.10551643939E+04  0.00000000000E+00 0.  1.
         23    2    1    2    0    0 -0.58119052374E+03 -0.12894185643E+03 -0.56559971114E+03  0.82630062587E+03  0.91985128430E+02 0.  0.
        254    2    1    2    0    0  0.58119052374E+03  0.12894185643E+03  0.45725788002E+03  0.11756863309E+04  0.90484537495E+03 0.  0.
         23    2    4    4    0    0 -0.22041231002E+03  0.67711537215E+01 -0.64323948881E+01  0.23713269771E+03  0.86966118031E+02 0.  0.
         23    2    4    4    0    0  0.80160283377E+03  0.12217070271E+03  0.46369027491E+03  0.93855363318E+03  0.91550355605E+02 0.  0.
         13    1    3    3    0    0 -0.13584678720E+03 -0.38763950074E+02 -0.84814957356E+02  0.16477430142E+03  0.00000000000E+00 0.  1.
        -13    1    3    3    0    0 -0.44534373654E+03 -0.90177906354E+02 -0.48078475378E+03  0.66152632445E+03  0.00000000000E+00 0. -1.
          2    1    5    5  502    0 -0.18200030036E+02 -0.43682770201E+00  0.26478261606E+02  0.32133008721E+02  0.00000000000E+00 0. -1.
          1    1    6    6  503    0  0.61641321076E+03  0.13200183942E+03  0.36631626925E+03  0.72909350644E+03  0.00000000000E+00 0.  1.
         -2    1    5    5    0  502 -0.20221227999E+03  0.72079814235E+01 -0.32910656494E+02  0.20499968899E+03  0.00000000000E+00 0.  1.
         -1    1    6    6    0  503  0.18518962301E+03 -0.98311367135E+01  0.97374005661E+02  0.20946012675E+03  0.00000000000E+00 0. -1.
<mgrwt>
<rscale>  0 0.19990532E+04</rscale>
<asrwt>0</asrwt>
<pdfrwt beam="1">  1        1 0.14566501E+00 0.19990532E+04</pdfrwt>
<pdfrwt beam="2">  1       -1 0.16233298E+00 0.19990532E+04</pdfrwt>
<totfact> 0.43405069E+00</totfact>
</mgrwt>
</event>
<event>
12    1  0.4672461E-008  0.1736499E+04  0.7818608E-02  0.8740817E-01
          2   -1    0    0  501    0  0.00000000000E+00  0.00000000000E+00  0.86051270633E+03  0.86051270633E+03  0.00000000000E+00 0.  1.
         -2   -1    0    0    0  501 -0.00000000000E+00 -0.00000000000E+00 -0.87605601443E+03  0.87605601443E+03  0.00000000000E+00 0. -1.
         23    2    1    2    0    0  0.55318020471E+03 -0.54508607746E+02 -0.28867697117E+03  0.63286912298E+03  0.90605772087E+02 0.  0.
        254    2    1    2    0    0 -0.55318020471E+03  0.54508607746E+02  0.27313366307E+03  0.11036995978E+04  0.91354872725E+03 0.  0.
         23    2    4    4    0    0 -0.27897340601E+03 -0.13396754854E+03 -0.29603252743E+03  0.43815409859E+03  0.92575868830E+02 0.  0.
         23    2    4    4    0    0 -0.27420679870E+03  0.18847615629E+03  0.56916619050E+03  0.66554549919E+03  0.91038613500E+02 0.  0.
         13    1    3    3    0    0  0.29033239902E+03  0.45630005443E+01 -0.11486711138E+03  0.31226299200E+03  0.00000000000E+00 0. -1.
        -13    1    3    3    0    0  0.26284780569E+03 -0.59071608291E+02 -0.17380985980E+03  0.32060613098E+03  0.00000000000E+00 0.  1.
          2    1    5    5  502    0 -0.75945838088E+02 -0.55030588470E+02 -0.14645148750E+03  0.17390852245E+03  0.00000000000E+00 0. -1.
          4    1    6    6  503    0 -0.12127340449E+03  0.81264382333E+02  0.16498532602E+03  0.22029819853E+03  0.00000000000E+00 0. -1.
         -2    1    5    5    0  502 -0.20302756793E+03 -0.78936960072E+02 -0.14958103994E+03  0.26424557615E+03  0.00000000000E+00 0.  1.
         -4    1    6    6    0  503 -0.15293339420E+03  0.10721177395E+03  0.40418086448E+03  0.44524730066E+03  0.00000000000E+00 0.  1.
<mgrwt>
<rscale>  0 0.17364992E+04</rscale>
<asrwt>0</asrwt>
<pdfrwt beam="1">  1        2 0.13238657E+00 0.17364992E+04</pdfrwt>
<pdfrwt beam="2">  1       -2 0.13477785E+00 0.17364992E+04</pdfrwt>
<totfact> 0.11729262E+01</totfact>
</mgrwt>
</event>
<event>
12    1  0.4672461E-008  0.2969147E+04  0.7818608E-02  0.8252596E-01
          2   -1    0    0  501    0  0.00000000000E+00  0.00000000000E+00  0.18476208604E+04  0.18476208604E+04  0.00000000000E+00 0. -1.
         -2   -1    0    0    0  501 -0.00000000000E+00 -0.00000000000E+00 -0.11928632526E+04  0.11928632526E+04  0.00000000000E+00 0.  1.
         23    2    1    2    0    0 -0.48591911112E+03 -0.11820960676E+04  0.72854948050E+03  0.14739881364E+04  0.91587036416E+02 0.  0.
        254    2    1    2    0    0  0.48591911112E+03  0.11820960676E+04 -0.73791872743E+02  0.15664959767E+04  0.90277123841E+03 0.  0.
         23    2    4    4    0    0 -0.70217008857E+02 -0.31186042036E+02 -0.18971842668E+03  0.22374490360E+03  0.90364278972E+02 0.  0.
         23    2    4    4    0    0  0.55613611998E+03  0.12132821096E+04  0.11592655393E+03  0.13427510731E+04  0.90557257509E+02 0.  0.
         13    1    3    3    0    0 -0.12940793784E+03 -0.34387818398E+03  0.25611920960E+03  0.44787907890E+03  0.00000000000E+00 0. -1.
        -13    1    3    3    0    0 -0.35651117328E+03 -0.83821788358E+03  0.47243027090E+03  0.10261090575E+04  0.00000000000E+00 0.  1.
          2    1    5    5  502    0  0.21239800326E+02 -0.97098602866E+01 -0.52369547466E+02  0.57340910409E+02  0.00000000000E+00 0. -1.
          3    1    6    6  503    0  0.16446456321E+02  0.62069392149E+02  0.21889498599E+02  0.67839851977E+02  0.00000000000E+00 0. -1.
         -2    1    5    5    0  502 -0.91456809183E+02 -0.21476181749E+02 -0.13734887921E+03  0.16640399319E+03  0.00000000000E+00 0.  1.
         -3    1    6    6    0  503  0.53968966366E+03  0.11512127174E+04  0.94037055335E+02  0.12749112211E+04  0.00000000000E+00 0.  1.
<mgrwt>
<rscale>  0 0.29691474E+04</rscale>
<asrwt>0</asrwt>
<pdfrwt beam="1">  1        2 0.28424936E+00 0.29691474E+04</pdfrwt>
<pdfrwt beam="2">  1       -2 0.18351742E+00 0.29691474E+04</pdfrwt>
<totfact> 0.11951414E+00</totfact>
</mgrwt>
</event>
<event>
12    1  0.4672461E-008  0.1125607E+04  0.7818608E-02  0.9180587E-01
         -2   -1    0    0    0  501 -0.00000000000E+00  0.00000000000E+00  0.49021944601E+03  0.49021944601E+03  0.00000000000E+00 0.  1.
          2   -1    0    0  501    0  0.00000000000E+00 -0.00000000000E+00 -0.64613437836E+03  0.64613437836E+03  0.00000000000E+00 0. -1.
         23    2    1    2    0    0  0.15270763030E+03  0.63165315191E+02  0.48643602766E+02  0.19679825489E+03  0.95151855696E+02 0.  0.
        254    2    1    2    0    0 -0.15270763030E+03 -0.63165315191E+02 -0.20455853511E+03  0.93955556948E+03  0.90200387830E+03 0.  0.
         23    2    4    4    0    0  0.26562647998E+03 -0.16516597958E+03  0.16532752136E+03  0.36501692302E+03  0.89816129384E+02 0.  0.
         23    2    4    4    0    0 -0.41833411028E+03  0.10200066439E+03 -0.36988605647E+03  0.57453864646E+03  0.88720900294E+02 0.  0.
         13    1    3    3    0    0  0.91721380629E+02  0.51565011802E+02  0.75143312400E+02  0.12929918602E+03  0.00000000000E+00 0. -1.
        -13    1    3    3    0    0  0.60986249671E+02  0.11600303389E+02 -0.26499709634E+02  0.67499068870E+02  0.00000000000E+00 0.  1.
          2    1    5    5  502    0  0.88311218003E+02 -0.29952241681E+02  0.90134332859E+02  0.12969273675E+03  0.00000000000E+00 0. -1.
          4    1    6    6  503    0 -0.27907488602E+03  0.24797166152E+02 -0.22680885894E+03  0.36047184350E+03  0.00000000000E+00 0. -1.
         -2    1    5    5    0  502  0.17731526197E+03 -0.13521373790E+03  0.75193188500E+02  0.23532418627E+03  0.00000000000E+00 0.  1.
         -4    1    6    6    0  503 -0.13925922425E+03  0.77203498234E+02 -0.14307719753E+03  0.21406680296E+03  0.00000000000E+00 0.  1.
<mgrwt>
<rscale>  0 0.11256067E+04</rscale>
<asrwt>0</asrwt>
<pdfrwt beam="1">  1        2 0.99405289E-01 0.11256067E+04</pdfrwt>
<pdfrwt beam="2">  1       -2 0.75418376E-01 0.11256067E+04</pdfrwt>
<totfact> 0.70865796E+01</totfact>
</mgrwt>
</event>
<event>
12    1  0.4672461E-008  0.1445852E+04  0.7818608E-02  0.8921281E-01
          3   -1    0    0  501    0  0.00000000000E+00  0.00000000000E+00  0.47396938692E+03  0.47396938692E+03  0.00000000000E+00 0. -1.
         -3   -1    0    0    0  501 -0.00000000000E+00 -0.00000000000E+00 -0.11026499103E+04  0.11026499103E+04  0.00000000000E+00 0.  1.
         23    2    1    2    0    0 -0.23969534072E+03 -0.36993353336E+03 -0.22380655098E+03  0.50270133826E+03  0.91184361352E+02 0.  0.
        254    2    1    2    0    0  0.23969534072E+03  0.36993353336E+03 -0.40487397243E+03  0.10739179590E+04  0.89166819706E+03 0.  0.
         23    2    4    4    0    0 -0.81336742177E+02 -0.57434500397E+02  0.21297495964E+03  0.25185016851E+03  0.90309393101E+02 0.  0.
         23    2    4    4    0    0  0.32103208290E+03  0.42736803376E+03 -0.61784893207E+03  0.82206779049E+03  0.91395376130E+02 0.  0.
         11    1    3    3    0    0 -0.23232885172E+03 -0.33975654900E+03 -0.22929759104E+03  0.47115665461E+03  0.00000000000E+00 0. -1.
        -11    1    3    3    0    0 -0.73664890042E+01 -0.30176984358E+02  0.54910400593E+01  0.31544683643E+02  0.00000000000E+00 0.  1.
          4    1    5    5  502    0 -0.44890236247E+02 -0.34585048157E+02  0.19855112464E+03  0.20647955822E+03  0.00000000000E+00 0.  1.
          1    1    6    6  503    0  0.23508559110E+03  0.23960373692E+03 -0.37482843186E+03  0.50316154386E+03  0.00000000000E+00 0. -1.
         -4    1    5    5    0  502 -0.36446505931E+02 -0.22849452240E+02  0.14423834997E+02  0.45370610292E+02  0.00000000000E+00 0. -1.
         -1    1    6    6    0  503  0.85946491800E+02  0.18776429683E+03 -0.24302050021E+03  0.31890624663E+03  0.00000000000E+00 0.  1.
<mgrwt>
<rscale>  0 0.14458524E+04</rscale>
<asrwt>0</asrwt>
<pdfrwt beam="1">  1        3 0.72918367E-01 0.14458524E+04</pdfrwt>
<pdfrwt beam="2">  1       -3 0.16963845E+00 0.14458524E+04</pdfrwt>
<totfact> 0.10555819E+00</totfact>
</mgrwt>
</event>
<event>
12    1  0.4672461E-008  0.2596376E+04  0.7818608E-02  0.8369433E-01
          2   -1    0    0  501    0  0.00000000000E+00  0.00000000000E+00  0.15280059853E+04  0.15280059853E+04  0.00000000000E+00 0. -1.
         -2   -1    0    0    0  501 -0.00000000000E+00 -0.00000000000E+00 -0.11029355921E+04  0.11029355921E+04  0.00000000000E+00 0.  1.
         23    2    1    2    0    0  0.10063328773E+04  0.50972406651E+03  0.35004651125E+03  0.11846150534E+04  0.90861328070E+02 0.  0.
        254    2    1    2    0    0 -0.10063328773E+04 -0.50972406651E+03  0.75023881928E+02  0.14463265239E+04  0.90205728590E+03 0.  0.
         23    2    4    4    0    0 -0.76448265441E+03 -0.71200075266E+03 -0.13402734951E+03  0.10573440639E+04  0.92921140870E+02 0.  0.
         23    2    4    4    0    0 -0.24185022285E+03  0.20227668616E+03  0.20905123144E+03  0.38898245997E+03  0.90540315551E+02 0.  0.
         13    1    3    3    0    0  0.69790498603E+03  0.35051350591E+03  0.19807733877E+03  0.80570820989E+03  0.00000000000E+00 0. -1.
        -13    1    3    3    0    0  0.30842789122E+03  0.15921056059E+03  0.15196917249E+03  0.37890684353E+03  0.00000000000E+00 0.  1.
          1    1    5    5  502    0 -0.40069900654E+03 -0.34376849156E+03 -0.26169037178E+02  0.52860314806E+03  0.00000000000E+00 0. -1.
          3    1    6    6  503    0 -0.15736676010E+03  0.17141267025E+03  0.11764202015E+03  0.26074172203E+03  0.00000000000E+00 0. -1.
         -1    1    5    5    0  502 -0.36378364787E+03 -0.36823226110E+03 -0.10785831233E+03  0.52874091587E+03  0.00000000000E+00 0.  1.
         -3    1    6    6    0  503 -0.84483462748E+02  0.30864015913E+02  0.91409211293E+02  0.12824073793E+03  0.00000000000E+00 0.  1.
<mgrwt>
<rscale>  0 0.25963761E+04</rscale>
<asrwt>0</asrwt>
<pdfrwt beam="1">  1        2 0.23507785E+00 0.25963761E+04</pdfrwt>
<pdfrwt beam="2">  1       -2 0.16968240E+00 0.25963761E+04</pdfrwt>
<totfact> 0.23207371E+00</totfact>
</mgrwt>
</event>
<event>
12    1  0.4672461E-008  0.1621907E+04  0.7818608E-02  0.8807202E-01
         -1   -1    0    0    0  501 -0.00000000000E+00  0.00000000000E+00  0.55983415996E+03  0.55983415996E+03  0.00000000000E+00 0.  1.
          1   -1    0    0  501    0  0.00000000000E+00 -0.00000000000E+00 -0.11747146955E+04  0.11747146955E+04  0.00000000000E+00 0. -1.
         23    2    1    2    0    0 -0.51538978344E+03  0.84850626598E+02 -0.42028994075E+03  0.67546163256E+03  0.82331798589E+02 0.  0.
        254    2    1    2    0    0  0.51538978344E+03 -0.84850626598E+02 -0.19459059477E+03  0.10590872229E+04  0.90054094210E+03 0.  0.
         23    2    4    4    0    0  0.59952493584E+03  0.65114479604E+02  0.18215836452E+03  0.63636945935E+03  0.90079825089E+02 0.  0.
         23    2    4    4    0    0 -0.84135152399E+02 -0.14996510620E+03 -0.37674895929E+03  0.42271776353E+03  0.84748288080E+02 0.  0.
         13    1    3    3    0    0 -0.37218286567E+03  0.96390376637E+02 -0.29089502948E+03  0.48211109548E+03  0.00000000000E+00 0. -1.
        -13    1    3    3    0    0 -0.14320691777E+03 -0.11539750040E+02 -0.12939491127E+03  0.19335053708E+03  0.00000000000E+00 0.  1.
          1    1    5    5  502    0  0.58653429807E+03  0.49616479714E+02  0.18207897451E+03  0.61614692309E+03  0.00000000000E+00 0. -1.
          3    1    6    6  503    0 -0.41789781458E+02 -0.23017165126E+02 -0.16893503018E+03  0.17554264481E+03  0.00000000000E+00 0. -1.
         -1    1    5    5    0  502  0.12990637765E+02  0.15497999890E+02  0.79390008063E-01  0.20222536263E+02  0.00000000000E+00 0.  1.
         -3    1    6    6    0  503 -0.42345370940E+02 -0.12694794108E+03 -0.20781392911E+03  0.24717511872E+03  0.00000000000E+00 0.  1.
<mgrwt>
<rscale>  0 0.16219068E+04</rscale>
<asrwt>0</asrwt>
<pdfrwt beam="1">  1        1 0.18072534E+00 0.16219068E+04</pdfrwt>
<pdfrwt beam="2">  1       -1 0.86128333E-01 0.16219068E+04</pdfrwt>
<totfact> 0.14212764E+01</totfact>
</mgrwt>
</event>
<event>
12    1  0.4672461E-008  0.1484322E+04  0.7818608E-02  0.8894946E-01
          2   -1    0    0  501    0  0.00000000000E+00  0.00000000000E+00  0.11626469880E+04  0.11626469880E+04  0.00000000000E+00 0. -1.
         -2   -1    0    0    0  501 -0.00000000000E+00 -0.00000000000E+00 -0.47374922298E+03  0.47374922298E+03  0.00000000000E+00 0.  1.
         23    2    1    2    0    0  0.22310046294E+03 -0.60263299622E+02 -0.22926713686E+03  0.33757054204E+03  0.89358653546E+02 0.  0.
        254    2    1    2    0    0 -0.22310046294E+03  0.60263299622E+02  0.91816490187E+03  0.12988256689E+04  0.88910958234E+03 0.  0.
         23    2    4    4    0    0  0.70532704851E+02 -0.39457000070E+02  0.96428298386E+03  0.97208961871E+03  0.92654392998E+02 0.  0.
         23    2    4    4    0    0 -0.29363316779E+03  0.99720299693E+02 -0.46118081983E+02  0.32673605022E+03  0.92005400006E+02 0.  0.
         13    1    3    3    0    0  0.37073092918E+01  0.72073605792E+01 -0.37813429747E+02  0.38672285399E+02  0.00000000000E+00 0. -1.
        -13    1    3    3    0    0  0.21939315365E+03 -0.67470660201E+02 -0.19145370712E+03  0.29889825665E+03  0.00000000000E+00 0.  1.
          2    1    5    5  502    0 -0.57739233364E+01 -0.11287370225E+02  0.16430471302E+02  0.20753392602E+02  0.00000000000E+00 0.  1.
          1    1    6    6  503    0 -0.29895955671E+03  0.90521686303E+02 -0.47716464159E+02  0.31598710922E+03  0.00000000000E+00 0. -1.
         -2    1    5    5    0  502  0.76306628188E+02 -0.28169629846E+02  0.94785251255E+03  0.95133622611E+03  0.00000000000E+00 0. -1.
         -1    1    6    6    0  503  0.53263889163E+01  0.91986133892E+01  0.15983821764E+01  0.10748941006E+02  0.00000000000E+00 0.  1.
<mgrwt>
<rscale>  0 0.14843222E+04</rscale>
<asrwt>0</asrwt>
<pdfrwt beam="1">  1        2 0.17886877E+00 0.14843222E+04</pdfrwt>
<pdfrwt beam="2">  1       -2 0.72884496E-01 0.14843222E+04</pdfrwt>
<totfact> 0.32828599E+01</totfact>
</mgrwt>
</event>
<event>
12    1  0.4672461E-008  0.1513303E+04  0.7818608E-02  0.8875654E-01
         -1   -1    0    0    0  501 -0.00000000000E+00  0.00000000000E+00  0.75925965865E+03  0.75925965865E+03  0.00000000000E+00 0.  1.
          1   -1    0    0  501    0  0.00000000000E+00 -0.00000000000E+00 -0.75405271441E+03  0.75405271441E+03  0.00000000000E+00 0. -1.
         23    2    1    2    0    0 -0.13259159479E+03  0.38549689454E+03 -0.25089346162E+03  0.48749388838E+03  0.92273373262E+02 0.  0.
        254    2    1    2    0    0  0.13259159479E+03 -0.38549689454E+03  0.25610040586E+03  0.10258184847E+04  0.90582987306E+03 0.  0.
         23    2    4    4    0    0  0.30074604093E+03 -0.20916743079E+03  0.52825659877E+03  0.64904133410E+03  0.89445089220E+02 0.  0.
         23    2    4    4    0    0 -0.16815444614E+03 -0.17632946375E+03 -0.27215619290E+03  0.37677715059E+03  0.92325675316E+02 0.  0.
         13    1    3    3    0    0  0.16098227370E+01  0.99958530148E+02 -0.38338535672E+02  0.10707073641E+03  0.00000000000E+00 0.  1.
        -13    1    3    3    0    0 -0.13420141753E+03  0.28553836439E+03 -0.21255492595E+03  0.38042315197E+03  0.00000000000E+00 0. -1.
          4    1    5    5  502    0  0.15269991945E+03 -0.15970159250E+03  0.30458771354E+03  0.37629182729E+03  0.00000000000E+00 0. -1.
          1    1    6    6  503    0 -0.16672595171E+03 -0.18656031691E+03 -0.26238673017E+03  0.36255908620E+03  0.00000000000E+00 0. -1.
         -4    1    5    5    0  502  0.14804612149E+03 -0.49465838292E+02  0.22366888523E+03  0.27274950681E+03  0.00000000000E+00 0.  1.
         -1    1    6    6    0  503 -0.14284944316E+01  0.10230853157E+02 -0.97694627333E+01  0.14218064382E+02  0.00000000000E+00 0.  1.
<mgrwt>
<rscale>  0 0.15133034E+04</rscale>
<asrwt>0</asrwt>
<pdfrwt beam="1">  1        1 0.11600811E+00 0.15133034E+04</pdfrwt>
<pdfrwt beam="2">  1       -1 0.11680918E+00 0.15133034E+04</pdfrwt>
<totfact> 0.15519328E+01</totfact>
</mgrwt>
</event>
<event>
12    1  0.4672461E-008  0.1156006E+04  0.7818608E-02  0.9152260E-01
          1   -1    0    0  501    0  0.00000000000E+00  0.00000000000E+00  0.15888169982E+04  0.15888169982E+04  0.00000000000E+00 0. -1.
         -1   -1    0    0    0  501 -0.00000000000E+00 -0.00000000000E+00 -0.21027445489E+03  0.21027445489E+03  0.00000000000E+00 0.  1.
         23    2    1    2    0    0 -0.10123692589E+03 -0.20084283835E+03  0.13493415840E+03  0.27767672985E+03  0.91161276409E+02 0.  0.
        254    2    1    2    0    0  0.10123692589E+03  0.20084283835E+03  0.12436083849E+04  0.15214147232E+04  0.84708570062E+03 0.  0.
         23    2    4    4    0    0  0.99494536806E+01 -0.22498608542E+03  0.96792027972E+03  0.99802091553E+03  0.91969286604E+02 0.  0.
         23    2    4    4    0    0  0.91287472213E+02  0.42582892377E+03  0.27568810518E+03  0.52339380771E+03  0.90958626346E+02 0.  0.
         13    1    3    3    0    0 -0.80395659244E+02 -0.79073018433E+02  0.96148603338E+02  0.14819095179E+03  0.00000000000E+00 0. -1.
        -13    1    3    3    0    0 -0.20841266650E+02 -0.12176981991E+03  0.38785555067E+02  0.12948577806E+03  0.00000000000E+00 0.  1.
          1    1    5    5  502    0 -0.25363922513E+02 -0.19308187419E+03  0.74088631181E+03  0.76605252152E+03  0.00000000000E+00 0. -1.
          3    1    6    6  503    0  0.95287864584E+02  0.41524286689E+03  0.28153605761E+03  0.51065542920E+03  0.00000000000E+00 0. -1.
         -1    1    5    5    0  502  0.35313376193E+02 -0.31904211236E+02  0.22703396791E+03  0.23196839401E+03  0.00000000000E+00 0.  1.
         -3    1    6    6    0  503 -0.40003923709E+01  0.10586056881E+02 -0.58479524265E+01  0.12738378507E+02  0.00000000000E+00 0.  1.
<mgrwt>
<rscale>  0 0.11560063E+04</rscale>
<asrwt>0</asrwt>
<pdfrwt beam="1">  1        1 0.24443338E+00 0.11560063E+04</pdfrwt>
<pdfrwt beam="2">  1       -1 0.32349917E-01 0.11560063E+04</pdfrwt>
<totfact> 0.50359918E+01</totfact>
</mgrwt>
</event>
<event>
12    1  0.4672461E-008  0.1123603E+04  0.7818608E-02  0.9182487E-01
          2   -1    0    0  501    0  0.00000000000E+00  0.00000000000E+00  0.38324882846E+04  0.38324882846E+04  0.00000000000E+00 0. -1.
         -2   -1    0    0    0  501 -0.00000000000E+00 -0.00000000000E+00 -0.82354084968E+02  0.82354084968E+02  0.00000000000E+00 0.  1.
         23    2    1    2    0    0 -0.20635378231E+02  0.10324227724E+03  0.12078627554E+04  0.12161985869E+04  0.95508010834E+02 0.  0.
        254    2    1    2    0    0  0.20635378231E+02 -0.10324227724E+03  0.25422714442E+04  0.26986437827E+04  0.89913813354E+03 0.  0.
         23    2    4    4    0    0 -0.38948192516E+03 -0.96928564393E+02  0.17935544129E+04  0.18401139320E+04  0.89947395588E+02 0.  0.
         23    2    4    4    0    0  0.41011730339E+03 -0.63137128441E+01  0.74871703125E+03  0.85852985067E+03  0.90885896009E+02 0.  0.
         13    1    3    3    0    0 -0.30302027468E+02  0.11675643530E+03  0.11385555963E+04  0.11449275627E+04  0.00000000000E+00 0. -1.
        -13    1    3    3    0    0  0.96666492370E+01 -0.13514158063E+02  0.69307159117E+02  0.71271024130E+02  0.00000000000E+00 0.  1.
          2    1    5    5  502    0 -0.25487491894E+02  0.86633529095E+01  0.62419752252E+02  0.67977138789E+02  0.00000000000E+00 0. -1.
          3    1    6    6  503    0  0.95642608832E+02 -0.89585556491E+01  0.10634528470E+03  0.14330765479E+03  0.00000000000E+00 0. -1.
         -2    1    5    5    0  502 -0.36399443327E+03 -0.10559191730E+03  0.17311346607E+04  0.17721367932E+04  0.00000000000E+00 0.  1.
         -3    1    6    6    0  503  0.31447469456E+03  0.26448428050E+01  0.64237174655E+03  0.71522219588E+03  0.00000000000E+00 0.  1.
<mgrwt>
<rscale>  0 0.11236032E+04</rscale>
<asrwt>0</asrwt>
<pdfrwt beam="1">  1        2 0.58961344E+00 0.11236032E+04</pdfrwt>
<pdfrwt beam="2">  1       -2 0.12669862E-01 0.11236032E+04</pdfrwt>
<totfact> 0.22323930E+01</totfact>
</mgrwt>
</event>
<event>
12    1  0.4672461E-008  0.3045366E+04  0.7818608E-02  0.8230894E-01
          2   -1    0    0  501    0  0.00000000000E+00  0.00000000000E+00  0.15501405329E+04  0.15501405329E+04  0.00000000000E+00 0. -1.
         -2   -1    0    0    0  501 -0.00000000000E+00 -0.00000000000E+00 -0.14957117498E+04  0.14957117498E+04  0.00000000000E+00 0.  1.
         23    2    1    2    0    0 -0.13392664249E+03 -0.13736882929E+04  0.12421052323E+03  0.13888138501E+04  0.91759382654E+02 0.  0.
        254    2    1    2    0    0  0.13392664249E+03  0.13736882929E+04 -0.69781740146E+02  0.16570384327E+04  0.91430356249E+03 0.  0.
         23    2    4    4    0    0  0.51851997479E+03  0.73697525362E+03 -0.59632398085E+02  0.90759835547E+03  0.90461390932E+02 0.  0.
         23    2    4    4    0    0 -0.38459333230E+03  0.63671303932E+03 -0.10149342061E+02  0.74944007721E+03  0.90784880293E+02 0.  0.
         11    1    3    3    0    0 -0.86928486452E+02 -0.11306935638E+04  0.75285466152E+02  0.11365264618E+04  0.00000000000E+00 0. -1.
        -11    1    3    3    0    0 -0.46998156037E+02 -0.24299472915E+03  0.48925057076E+02  0.25228738826E+03  0.00000000000E+00 0.  1.
          2    1    5    5  502    0  0.43880644792E+03  0.59983077282E+03 -0.80731969510E+02  0.74757321090E+03  0.00000000000E+00 0. -1.
          1    1    6    6  503    0 -0.32230772728E+03  0.46050361891E+03  0.28096412611E+01  0.56209763224E+03  0.00000000000E+00 0. -1.
         -2    1    5    5    0  502  0.79713526861E+02  0.13714448080E+03  0.21099571425E+02  0.16002514456E+03  0.00000000000E+00 0.  1.
         -1    1    6    6    0  503 -0.62285605014E+02  0.17620942042E+03 -0.12958983322E+02  0.18734244496E+03  0.00000000000E+00 0.  1.
<mgrwt>
<rscale>  0 0.30453659E+04</rscale>
<asrwt>0</asrwt>
<pdfrwt beam="1">  1        2 0.23848316E+00 0.30453659E+04</pdfrwt>
<pdfrwt beam="2">  1       -2 0.23010950E+00 0.30453659E+04</pdfrwt>
<totfact> 0.86594877E-01</totfact>
</mgrwt>
</event>
<event>
12    1  0.4672461E-008  0.2257716E+04  0.7818608E-02  0.8494782E-01
          2   -1    0    0  501    0  0.00000000000E+00  0.00000000000E+00  0.18768378005E+04  0.18768378005E+04  0.00000000000E+00 0. -1.
         -2   -1    0    0    0  501 -0.00000000000E+00 -0.00000000000E+00 -0.67897231081E+03  0.67897231081E+03  0.00000000000E+00 0.  1.
         23    2    1    2    0    0 -0.58585933540E+03 -0.52222658905E+03  0.11062729421E+04  0.13593678377E+04  0.89940671978E+02 0.  0.
        254    2    1    2    0    0  0.58585933540E+03  0.52222658905E+03  0.91592547578E+02  0.11964422736E+04  0.89840589278E+03 0.  0.
         23    2    4    4    0    0  0.42675527340E+03  0.71315963323E+03 -0.13603626888E+03  0.84710486553E+03  0.91455239942E+02 0.  0.
         23    2    4    4    0    0  0.15910406200E+03 -0.19093304418E+03  0.22762881645E+03  0.34933740810E+03  0.91935938100E+02 0.  0.
         13    1    3    3    0    0 -0.35185274591E+03 -0.33875322164E+03  0.75400692241E+03  0.89837661313E+03  0.00000000000E+00 0. -1.
        -13    1    3    3    0    0 -0.23400658949E+03 -0.18347336741E+03  0.35226601970E+03  0.46099122455E+03  0.00000000000E+00 0.  1.
          2    1    5    5  502    0  0.88460610669E+02  0.14935241243E+03 -0.66658353353E+02  0.18594289126E+03  0.00000000000E+00 0. -1.
          1    1    6    6  503    0  0.22000370099E+01 -0.39043390169E+02  0.69404191562E+02  0.79662841307E+02  0.00000000000E+00 0. -1.
         -2    1    5    5    0  502  0.33829466273E+03  0.56380722080E+03 -0.69377915523E+02  0.66116197427E+03  0.00000000000E+00 0.  1.
         -1    1    6    6    0  503  0.15690402499E+03 -0.15188965401E+03  0.15822462489E+03  0.26967456680E+03  0.00000000000E+00 0.  1.
<mgrwt>
<rscale>  0 0.22577165E+04</rscale>
<asrwt>0</asrwt>
<pdfrwt beam="1">  1        2 0.28874428E+00 0.22577165E+04</pdfrwt>
<pdfrwt beam="2">  1       -2 0.10445728E+00 0.22577165E+04</pdfrwt>
<totfact> 0.52960805E+00</totfact>
</mgrwt>
</event>
<event>
12    1  0.4672461E-008  0.1826329E+04  0.7818608E-02  0.8692422E-01
          2   -1    0    0  501    0  0.00000000000E+00  0.00000000000E+00  0.16595292783E+04  0.16595292783E+04  0.00000000000E+00 0.  1.
         -2   -1    0    0    0  501 -0.00000000000E+00 -0.00000000000E+00 -0.50247342291E+03  0.50247342291E+03  0.00000000000E+00 0. -1.
         23    2    1    2    0    0 -0.51843990980E+03  0.43070359177E+03  0.28759611893E+03  0.73970348003E+03  0.10081759132E+03 0.  0.
        254    2    1    2    0    0  0.51843990980E+03 -0.43070359177E+03  0.86945973646E+03  0.14222992212E+04  0.90149282703E+03 0.  0.
         23    2    4    4    0    0  0.42920963794E+03 -0.16351048876E+03 -0.36826778637E+02  0.46885244237E+03  0.86659147594E+02 0.  0.
         23    2    4    4    0    0  0.89230271861E+02 -0.26719310301E+03  0.90628651509E+03  0.95344677880E+03  0.91385539611E+02 0.  0.
         13    1    3    3    0    0 -0.27115931768E+03  0.20090705700E+03  0.19457053864E+03  0.38954937508E+03  0.00000000000E+00 0.  1.
        -13    1    3    3    0    0 -0.24728059212E+03  0.22979653477E+03  0.93025580285E+02  0.35015410496E+03  0.00000000000E+00 0. -1.
          4    1    5    5  502    0  0.20623690980E+02 -0.21127678730E+02  0.14928224680E+02  0.33084245953E+02  0.00000000000E+00 0. -1.
          3    1    6    6  503    0  0.47219823497E+02 -0.44427364672E+02  0.13907574712E+03  0.15344564477E+03  0.00000000000E+00 0. -1.
         -4    1    5    5    0  502  0.40858594696E+03 -0.14238281003E+03 -0.51755003317E+02  0.43576819642E+03  0.00000000000E+00 0.  1.
         -3    1    6    6    0  503  0.42010448364E+02 -0.22276573834E+03  0.76721076797E+03  0.80000113403E+03  0.00000000000E+00 0.  1.
<mgrwt>
<rscale>  0 0.18263289E+04</rscale>
<asrwt>0</asrwt>
<pdfrwt beam="1">  1        2 0.25531219E+00 0.18263289E+04</pdfrwt>
<pdfrwt beam="2">  1       -2 0.77303604E-01 0.18263289E+04</pdfrwt>
<totfact> 0.14525712E+01</totfact>
</mgrwt>
</event>
<event>
12    1  0.4672461E-008  0.1938077E+04  0.7818608E-02  0.8636132E-01
         -2   -1    0    0    0  501 -0.00000000000E+00  0.00000000000E+00  0.50753114835E+03  0.50753114835E+03  0.00000000000E+00 0.  1.
          2   -1    0    0  501    0  0.00000000000E+00 -0.00000000000E+00 -0.18502036522E+04  0.18502036522E+04  0.00000000000E+00 0. -1.
         23    2    1    2    0    0  0.35294928280E+03  0.10387237884E+03  0.27586233721E+03  0.46885246195E+03  0.91432678334E+02 0.  0.
        254    2    1    2    0    0 -0.35294928280E+03 -0.10387237884E+03 -0.16185348410E+04  0.18888823386E+04  0.90158681782E+03 0.  0.
         23    2    4    4    0    0 -0.39424782652E+03  0.24647384857E+03 -0.13662363399E+04  0.14460327885E+04  0.90710429666E+02 0.  0.
         23    2    4    4    0    0  0.41298543716E+02 -0.35034622741E+03 -0.25229850110E+03  0.44284955011E+03  0.89516152734E+02 0.  0.
         13    1    3    3    0    0  0.14241076725E+03  0.77324456561E+02  0.82855756779E+02  0.18200267757E+03  0.00000000000E+00 0. -1.
        -13    1    3    3    0    0  0.21053851555E+03  0.26547922279E+02  0.19300658043E+03  0.28684978438E+03  0.00000000000E+00 0.  1.
          2    1    5    5  502    0 -0.39268885220E+03  0.24563014240E+03 -0.13048329427E+04  0.13846038097E+04  0.00000000000E+00 0. -1.
          1    1    6    6  503    0  0.97143564924E+01 -0.29873962630E+03 -0.23411911175E+03  0.37967287437E+03  0.00000000000E+00 0. -1.
         -2    1    5    5    0  502 -0.15589743204E+01  0.84370616995E+00 -0.61403397228E+02  0.61428978766E+02  0.00000000000E+00 0.  1.
         -1    1    6    6    0  503  0.31584187224E+02 -0.51606601109E+02 -0.18179389355E+02  0.63176675743E+02  0.00000000000E+00 0.  1.
<mgrwt>
<rscale>  0 0.19380774E+04</rscale>
<asrwt>0</asrwt>
<pdfrwt beam="1">  1        2 0.28464672E+00 0.19380774E+04</pdfrwt>
<pdfrwt beam="2">  1       -2 0.78081714E-01 0.19380774E+04</pdfrwt>
<totfact> 0.11028624E+01</totfact>
</mgrwt>
</event>
<event>
12    1  0.4672461E-008  0.2088452E+04  0.7818608E-02  0.8566348E-01
         -1   -1    0    0    0  501 -0.00000000000E+00  0.00000000000E+00  0.84861601081E+03  0.84861601081E+03  0.00000000000E+00 0.  1.
          1   -1    0    0  501    0  0.00000000000E+00 -0.00000000000E+00 -0.12849246496E+04  0.12849246496E+04  0.00000000000E+00 0. -1.
         23    2    1    2    0    0 -0.80348700644E+03  0.20631043491E+03  0.82892878529E+01  0.83453822091E+03  0.90719153465E+02 0.  0.
        254    2    1    2    0    0  0.80348700644E+03 -0.20631043491E+03 -0.44459792661E+03  0.12990024395E+04  0.89531260256E+03 0.  0.
         23    2    4    4    0    0  0.77849086598E+03  0.18685162144E+03 -0.21563508139E+03  0.83400746730E+03  0.90046712009E+02 0.  0.
         23    2    4    4    0    0  0.24996140458E+02 -0.39316205635E+03 -0.22896284522E+03  0.46499497215E+03  0.92709924207E+02 0.  0.
         11    1    3    3    0    0 -0.63687651820E+03  0.12476051525E+03  0.41800246679E+01  0.64899488304E+03  0.00000000000E+00 0.  1.
        -11    1    3    3    0    0 -0.16661048823E+03  0.81549919655E+02  0.41092631850E+01  0.18554333787E+03  0.00000000000E+00 0. -1.
          4    1    5    5  502    0  0.37487086787E+03  0.44822751706E+02 -0.11097751633E+03  0.39351398423E+03  0.00000000000E+00 0. -1.
          3    1    6    6  503    0 -0.33358138680E+01 -0.33121864535E+03 -0.21659644226E+03  0.39576626623E+03  0.00000000000E+00 0. -1.
         -4    1    5    5    0  502  0.40361999811E+03  0.14202886974E+03 -0.10465756506E+03  0.44049348308E+03  0.00000000000E+00 0.  1.
         -3    1    6    6    0  503  0.28331954326E+02 -0.61943410997E+02 -0.12366402954E+02  0.69228705924E+02  0.00000000000E+00 0.  1.
<mgrwt>
<rscale>  0 0.20884517E+04</rscale>
<asrwt>0</asrwt>
<pdfrwt beam="1">  1        1 0.19768072E+00 0.20884517E+04</pdfrwt>
<pdfrwt beam="2">  1       -1 0.13055631E+00 0.20884517E+04</pdfrwt>
<totfact> 0.42833401E+00</totfact>
</mgrwt>
</event>
<event>
12    1  0.4672461E-008  0.1369203E+04  0.7818608E-02  0.8976418E-01
         -1   -1    0    0    0  501 -0.00000000000E+00  0.00000000000E+00  0.17094092875E+03  0.17094092875E+03  0.00000000000E+00 0. -1.
          1   -1    0    0  501    0  0.00000000000E+00 -0.00000000000E+00 -0.27417606815E+04  0.27417606815E+04  0.00000000000E+00 0.  1.
         23    2    1    2    0    0 -0.33901498904E+03  0.10137252179E+02 -0.13802913529E+04  0.14242833572E+04  0.91350620845E+02 0.  0.
        254    2    1    2    0    0  0.33901498904E+03 -0.10137252179E+02 -0.11905283998E+04  0.14884182530E+04  0.82643638506E+03 0.  0.
         23    2    4    4    0    0  0.12899282887E+03 -0.61407648563E+02  0.83924399772E+02  0.19253819146E+03  0.98069368786E+02 0.  0.
         23    2    4    4    0    0  0.21002216017E+03  0.51270396384E+02 -0.12744527996E+04  0.12958800616E+04  0.91308456974E+02 0.  0.
         11    1    3    3    0    0 -0.60752933962E+02  0.31465526642E+01 -0.13213587747E+03  0.14546721243E+03  0.00000000000E+00 0. -1.
        -11    1    3    3    0    0 -0.27826205508E+03  0.69906995148E+01 -0.12481554754E+04  0.12788161447E+04  0.00000000000E+00 0.  1.
          1    1    5    5  502    0  0.69645863785E+02  0.86665597439E+01  0.70950264209E+02  0.99797773480E+02  0.00000000000E+00 0. -1.
          3    1    6    6  503    0  0.18350437770E+03  0.76995166999E+01 -0.10021524634E+04  0.10188438050E+04  0.00000000000E+00 0. -1.
         -1    1    5    5    0  502  0.59346965081E+02 -0.70074208307E+02  0.12974135562E+02  0.92740417983E+02  0.00000000000E+00 0.  1.
         -3    1    6    6    0  503  0.26517782475E+02  0.43570879684E+02 -0.27230033622E+03  0.27703625656E+03  0.00000000000E+00 0.  1.
<mgrwt>
<rscale>  0 0.13692029E+04</rscale>
<asrwt>0</asrwt>
<pdfrwt beam="1">  1        1 0.42180933E+00 0.13692029E+04</pdfrwt>
<pdfrwt beam="2">  1       -1 0.26298605E-01 0.13692029E+04</pdfrwt>
<totfact> 0.11570296E+01</totfact>
</mgrwt>
</event>
<event>
12    1  0.4672461E-008  0.2171133E+04  0.7818608E-02  0.8530540E-01
          1   -1    0    0  501    0  0.00000000000E+00  0.00000000000E+00  0.14153742883E+04  0.14153742883E+04  0.00000000000E+00 0. -1.
         -1   -1    0    0    0  501 -0.00000000000E+00 -0.00000000000E+00 -0.83260978377E+03  0.83260978377E+03  0.00000000000E+00 0.  1.
         23    2    1    2    0    0  0.13250343309E+03  0.25135991565E+03  0.11226457707E+04  0.11616273572E+04  0.91135194170E+02 0.  0.
        254    2    1    2    0    0 -0.13250343309E+03 -0.25135991565E+03 -0.53988126618E+03  0.10863567148E+04  0.89886604303E+03 0.  0.
         23    2    4    4    0    0 -0.21861720806E+03 -0.48088750662E+03 -0.59509880261E+02  0.53946026295E+03  0.91813243973E+02 0.  0.
         23    2    4    4    0    0  0.86113774968E+02  0.22952759097E+03 -0.48037138592E+03  0.54689645188E+03  0.90777549082E+02 0.  0.
         13    1    3    3    0    0  0.75822020662E+02  0.21023060935E+03  0.93503215802E+03  0.96136934861E+03  0.00000000000E+00 0. -1.
        -13    1    3    3    0    0  0.56681412426E+02  0.41129306298E+02  0.18761361269E+03  0.20025800863E+03  0.00000000000E+00 0.  1.
          2    1    5    5  502    0 -0.99844087560E+02 -0.26862689574E+03  0.91354799666E+01  0.28672758487E+03  0.00000000000E+00 0.  1.
          3    1    6    6  503    0  0.27793906762E+02  0.30811447252E+02 -0.30039613781E+02  0.51227189372E+02  0.00000000000E+00 0. -1.
         -2    1    5    5    0  502 -0.11877312050E+03 -0.21226061089E+03 -0.68645360228E+02  0.25273267807E+03  0.00000000000E+00 0. -1.
         -3    1    6    6    0  503  0.58319868206E+02  0.19871614372E+03 -0.45033177214E+03  0.49566926251E+03  0.00000000000E+00 0.  1.
<mgrwt>
<rscale>  0 0.21711329E+04</rscale>
<asrwt>0</asrwt>
<pdfrwt beam="1">  1        1 0.21774989E+00 0.21711329E+04</pdfrwt>
<pdfrwt beam="2">  1       -1 0.12809381E+00 0.21711329E+04</pdfrwt>
<totfact> 0.36058408E+00</totfact>
</mgrwt>
</event>
<event>
12    1  0.4898800E-008  0.3168345E+04  0.7818608E-02  0.8197227E-01
         -2   -1    0    0    0  501 -0.00000000000E+00  0.00000000000E+00  0.12129495510E+04  0.12129495510E+04  0.00000000000E+00 0.  1.
          2   -1    0    0  501    0  0.00000000000E+00 -0.00000000000E+00 -0.20690084866E+04  0.20690084866E+04  0.00000000000E+00 0. -1.
         23    2    1    2    0    0 -0.10806812180E+04  0.13997698535E+03 -0.13805515676E+04  0.17612191861E+04  0.92222227832E+02 0.  0.
        254    2    1    2    0    0  0.10806812180E+04 -0.13997698535E+03  0.52449263200E+03  0.15207388514E+04  0.92200253892E+03 0.  0.
         23    2    4    4    0    0 -0.49914826639E+02 -0.17534555406E+02 -0.15933934511E+03  0.19060647395E+03  0.90237744100E+02 0.  0.
         23    2    4    4    0    0  0.11305960447E+04 -0.12244242995E+03  0.68383197710E+03  0.13301323775E+04  0.91577310656E+02 0.  0.
         11    1    3    3    0    0 -0.10314035078E+04  0.15090168916E+03 -0.13296312795E+04  0.16895217829E+04  0.00000000000E+00 0. -1.
        -11    1    3    3    0    0 -0.49277710239E+02 -0.10924703805E+02 -0.50920288169E+02  0.71697403209E+02  0.00000000000E+00 0.  1.
          2    1    5    5  502    0 -0.55178358972E+02 -0.91372811202E+01 -0.16823548663E+03  0.17728880440E+03  0.00000000000E+00 0. -1.
          1    1    6    6  503    0  0.99855842260E+03 -0.11827094189E+03  0.57067725676E+03  0.11561917966E+04  0.00000000000E+00 0. -1.
         -2    1    5    5    0  502  0.52635323325E+01 -0.83972742857E+01  0.88961415248E+01  0.13317669544E+02  0.00000000000E+00 0.  1.
         -1    1    6    6    0  503  0.13203762206E+03 -0.41714880564E+01  0.11315472034E+03  0.17394058091E+03  0.00000000000E+00 0.  1.
<mgrwt>
<rscale>  0 0.31683453E+04</rscale>
<asrwt>0</asrwt>
<pdfrwt beam="1">  1        2 0.31830899E+00 0.31683453E+04</pdfrwt>
<pdfrwt beam="2">  1       -2 0.18660763E+00 0.31683453E+04</pdfrwt>
<totfact> 0.84355591E-01</totfact>
</mgrwt>
</event>
<event>
12    1  0.4672461E-008  0.1240851E+04  0.7818608E-02  0.9077832E-01
          2   -1    0    0  501    0  0.00000000000E+00  0.00000000000E+00  0.85846467153E+03  0.85846467153E+03  0.00000000000E+00 0. -1.
         -2   -1    0    0    0  501 -0.00000000000E+00 -0.00000000000E+00 -0.44839110357E+03  0.44839110357E+03  0.00000000000E+00 0.  1.
         23    2    1    2    0    0 -0.61496050234E+02  0.12757568983E+03 -0.15642244283E+03  0.23046575607E+03  0.92677738807E+02 0.  0.
        254    2    1    2    0    0  0.61496050234E+02 -0.12757568983E+03  0.56649601079E+03  0.10763900190E+04  0.90423471621E+03 0.  0.
         23    2    4    4    0    0  0.10505618623E+03  0.26078452798E+02 -0.22372663405E+03  0.26515085351E+03  0.92382251368E+02 0.  0.
         23    2    4    4    0    0 -0.43560135996E+02 -0.15365414263E+03  0.79022264484E+03  0.81123916552E+03  0.90277761727E+02 0.  0.
         13    1    3    3    0    0 -0.23383843722E+02  0.10054555649E+03 -0.50972621575E+02  0.11512784731E+03  0.00000000000E+00 0. -1.
        -13    1    3    3    0    0 -0.38112206512E+02  0.27030133340E+02 -0.10544982125E+03  0.11533790876E+03  0.00000000000E+00 0.  1.
          4    1    5    5  502    0  0.10675672189E+02 -0.84017819618E+01  0.56634180909E+01  0.14718499288E+02  0.00000000000E+00 0.  1.
          3    1    6    6  503    0 -0.32409504048E+01 -0.96845219386E+02  0.61651489347E+03  0.62408341923E+03  0.00000000000E+00 0. -1.
         -4    1    5    5    0  502  0.94380514041E+02  0.34480234759E+02 -0.22939005214E+03  0.25043235422E+03  0.00000000000E+00 0. -1.
         -3    1    6    6    0  503 -0.40319185591E+02 -0.56808923241E+02  0.17370775137E+03  0.18715574629E+03  0.00000000000E+00 0.  1.
<mgrwt>
<rscale>  0 0.12408512E+04</rscale>
<asrwt>0</asrwt>
<pdfrwt beam="1">  1        2 0.13207149E+00 0.12408512E+04</pdfrwt>
<pdfrwt beam="2">  1       -2 0.68983247E-01 0.12408512E+04</pdfrwt>
<totfact> 0.59159550E+01</totfact>
</mgrwt>
</event>
<event>
12    1  0.4672461E-008  0.2338196E+04  0.7818608E-02  0.8463012E-01
          2   -1    0    0  501    0  0.00000000000E+00  0.00000000000E+00  0.14158566279E+04  0.14158566279E+04  0.00000000000E+00 0. -1.
         -2   -1    0    0    0  501 -0.00000000000E+00 -0.00000000000E+00 -0.96534476147E+03  0.96534476147E+03  0.00000000000E+00 0.  1.
         23    2    1    2    0    0 -0.49829267092E+03  0.60192887349E+03  0.79888167864E+03  0.11213716122E+04  0.92996782437E+02 0.  0.
        254    2    1    2    0    0  0.49829267092E+03 -0.60192887349E+03 -0.34836981217E+03  0.12598297772E+04  0.92476785569E+03 0.  0.
         23    2    4    4    0    0 -0.25203020160E+03 -0.25402192694E+03 -0.17949496780E+03  0.41081593882E+03  0.92222178679E+02 0.  0.
         23    2    4    4    0    0  0.75032287252E+03 -0.34790694654E+03 -0.16887484437E+03  0.84901383840E+03  0.91006198971E+02 0.  0.
         11    1    3    3    0    0 -0.34326497240E+03  0.46317312594E+03  0.62432823572E+03  0.84979169906E+03  0.00000000000E+00 0. -1.
        -11    1    3    3    0    0 -0.15502769852E+03  0.13875574755E+03  0.17455344292E+03  0.27157991314E+03  0.00000000000E+00 0.  1.
          4    1    5    5  502    0 -0.25153944195E+03 -0.24466967843E+03 -0.18806158186E+03  0.39812372571E+03  0.00000000000E+00 0. -1.
          4    1    6    6  503    0  0.47905697555E+03 -0.23515460671E+03 -0.65856482202E+02  0.53770842576E+03  0.00000000000E+00 0. -1.
         -4    1    5    5    0  502 -0.49075964881E+00 -0.93522485156E+01  0.85666140614E+01  0.12692213117E+02  0.00000000000E+00 0.  1.
         -4    1    6    6    0  503  0.27126589697E+03 -0.11275233983E+03 -0.10301836217E+03  0.31130541264E+03  0.00000000000E+00 0.  1.
<mgrwt>
<rscale>  0 0.23381957E+04</rscale>
<asrwt>0</asrwt>
<pdfrwt beam="1">  1        2 0.21782410E+00 0.23381957E+04</pdfrwt>
<pdfrwt beam="2">  1       -2 0.14851458E+00 0.23381957E+04</pdfrwt>
<totfact> 0.39406885E+00</totfact>
</mgrwt>
</event>
<event>
12    1  0.4672461E-008  0.2188483E+04  0.7818608E-02  0.8523237E-01
          1   -1    0    0  501    0  0.00000000000E+00  0.00000000000E+00  0.15488576591E+04  0.15488576591E+04  0.00000000000E+00 0. -1.
         -1   -1    0    0    0  501 -0.00000000000E+00 -0.00000000000E+00 -0.77306327050E+03  0.77306327050E+03  0.00000000000E+00 0.  1.
         23    2    1    2    0    0 -0.83205478647E+03 -0.11300779035E+03  0.68779012336E+03  0.10886744926E+04  0.84089051624E+02 0.  0.
        254    2    1    2    0    0  0.83205478647E+03  0.11300779035E+03  0.88004265209E+02  0.12332464370E+04  0.89892496647E+03 0.  0.
         23    2    4    4    0    0  0.26943812631E+03  0.43354345834E+03  0.22418791701E+03  0.56531037876E+03  0.93588290011E+02 0.  0.
         23    2    4    4    0    0  0.56261666016E+03 -0.32053566799E+03 -0.13618365180E+03  0.66793605825E+03  0.91170006845E+02 0.  0.
         13    1    3    3    0    0 -0.21151280872E+02  0.47645601368E+01  0.54349036125E+01  0.22352089233E+02  0.00000000000E+00 0.  1.
        -13    1    3    3    0    0 -0.81090350560E+03 -0.11777235049E+03  0.68235521975E+03  0.10663224033E+04  0.00000000000E+00 0. -1.
          4    1    5    5  502    0  0.72928114858E+02  0.95752995208E+02  0.12886418097E+02  0.12105042668E+03  0.00000000000E+00 0. -1.
          1    1    6    6  503    0  0.42330089445E+01  0.38313598714E+01 -0.75881258819E+01  0.94961748925E+01  0.00000000000E+00 0. -1.
         -4    1    5    5    0  502  0.19651001145E+03  0.33779046313E+03  0.21130149891E+03  0.44425995208E+03  0.00000000000E+00 0.  1.
         -1    1    6    6    0  503  0.55838365121E+03 -0.32436702786E+03 -0.12859552592E+03  0.65843988335E+03  0.00000000000E+00 0.  1.
<mgrwt>
<rscale>  0 0.21884835E+04</rscale>
<asrwt>0</asrwt>
<pdfrwt beam="1">  1        1 0.23828579E+00 0.21884835E+04</pdfrwt>
<pdfrwt beam="2">  1       -1 0.11893281E+00 0.21884835E+04</pdfrwt>
<totfact> 0.34947375E+00</totfact>
</mgrwt>
</event>
<event>
12    1  0.4672461E-008  0.1117094E+04  0.7818608E-02  0.9188689E-01
          2   -1    0    0  501    0  0.00000000000E+00  0.00000000000E+00  0.30272777949E+03  0.30272777949E+03  0.00000000000E+00 0. -1.
         -2   -1    0    0    0  501 -0.00000000000E+00 -0.00000000000E+00 -0.10305453704E+04  0.10305453704E+04  0.00000000000E+00 0.  1.
         23    2    1    2    0    0  0.19328003272E+03 -0.47884128646E+02 -0.34402532771E+02  0.22313586617E+03  0.94636249324E+02 0.  0.
        254    2    1    2    0    0 -0.19328003272E+03  0.47884128646E+02 -0.69341505817E+03  0.11101372838E+04  0.84375961332E+03 0.  0.
         23    2    4    4    0    0 -0.37094027442E+03 -0.14113844441E+03 -0.50759215838E+02  0.41129621529E+03  0.95243535422E+02 0.  0.
         23    2    4    4    0    0  0.17766024171E+03  0.18902257306E+03 -0.64265584234E+03  0.69884106847E+03  0.89886665727E+02 0.  0.
         11    1    3    3    0    0  0.17655388719E+03 -0.72300062627E+02 -0.31924384598E+02  0.19343665751E+03  0.00000000000E+00 0.  1.
        -11    1    3    3    0    0  0.16726145527E+02  0.24415933981E+02 -0.24781481731E+01  0.29699208655E+02  0.00000000000E+00 0. -1.
          1    1    5    5  502    0 -0.94139034215E+02 -0.47296358371E+02 -0.55301945440E+02  0.11898490849E+03  0.00000000000E+00 0. -1.
          1    1    6    6  503    0  0.13500445149E+02  0.16256121144E+02 -0.11214263432E+02  0.23922441309E+02  0.00000000000E+00 0. -1.
         -1    1    5    5    0  502 -0.27680124021E+03 -0.93842086043E+02  0.45427296020E+01  0.29231130681E+03  0.00000000000E+00 0.  1.
         -1    1    6    6    0  503  0.16415979656E+03  0.17276645192E+03 -0.63144157890E+03  0.67491862716E+03  0.00000000000E+00 0.  1.
<mgrwt>
<rscale>  0 0.11170939E+04</rscale>
<asrwt>0</asrwt>
<pdfrwt beam="1">  1        2 0.46573505E-01 0.11170939E+04</pdfrwt>
<pdfrwt beam="2">  1       -2 0.15854544E+00 0.11170939E+04</pdfrwt>
<totfact> 0.27806046E+01</totfact>
</mgrwt>
</event>
<event>
12    1  0.4672461E-008  0.1250354E+04  0.7818608E-02  0.9069889E-01
         -1   -1    0    0    0  501 -0.00000000000E+00  0.00000000000E+00  0.22017465285E+03  0.22017465285E+03  0.00000000000E+00 0.  1.
          1   -1    0    0  501    0  0.00000000000E+00 -0.00000000000E+00 -0.17751634009E+04  0.17751634009E+04  0.00000000000E+00 0. -1.
         23    2    1    2    0    0  0.22151607676E+02  0.14596758849E+03 -0.66366321364E+03  0.68526714630E+03  0.85702800649E+02 0.  0.
        254    2    1    2    0    0 -0.22151607676E+02 -0.14596758849E+03 -0.89132553438E+03  0.13100709074E+04  0.94869770930E+03 0.  0.
         23    2    4    4    0    0  0.34609769718E+03  0.57080327665E+02 -0.78713332015E+03  0.86686046359E+03  0.93949027865E+02 0.  0.
         23    2    4    4    0    0 -0.36824930486E+03 -0.20304791616E+03 -0.10419221423E+03  0.44321044384E+03  0.93506541142E+02 0.  0.
         13    1    3    3    0    0  0.25450379496E+02  0.35336364282E+02 -0.34899064775E+03  0.35169710359E+03  0.00000000000E+00 0. -1.
        -13    1    3    3    0    0 -0.32987718202E+01  0.11063122421E+03 -0.31467256589E+03  0.33357004270E+03  0.00000000000E+00 0.  1.
          1    1    5    5  502    0  0.13399275888E+03  0.23332895289E+02 -0.20168004890E+03  0.24325567940E+03  0.00000000000E+00 0. -1.
          1    1    6    6  503    0 -0.35869981194E+03 -0.20247298535E+03 -0.11608761509E+03  0.42794532274E+03  0.00000000000E+00 0. -1.
         -1    1    5    5    0  502  0.21210493830E+03  0.33747432376E+02 -0.58545327125E+03  0.62360478419E+03  0.00000000000E+00 0.  1.
         -1    1    6    6    0  503 -0.95494929180E+01 -0.57493080938E+00  0.11895400858E+02  0.15265121094E+02  0.00000000000E+00 0.  1.
<mgrwt>
<rscale>  0 0.12503535E+04</rscale>
<asrwt>0</asrwt>
<pdfrwt beam="1">  1        1 0.27310207E+00 0.12503535E+04</pdfrwt>
<pdfrwt beam="2">  1       -1 0.33873023E-01 0.12503535E+04</pdfrwt>
<totfact> 0.34386007E+01</totfact>
</mgrwt>
</event>
<event>
12    1  0.4672461E-008  0.1940654E+04  0.7818608E-02  0.8634881E-01
          2   -1    0    0  501    0  0.00000000000E+00  0.00000000000E+00  0.12928435713E+04  0.12928435713E+04  0.00000000000E+00 0. -1.
         -2   -1    0    0    0  501 -0.00000000000E+00 -0.00000000000E+00 -0.72826615537E+03  0.72826615537E+03  0.00000000000E+00 0.  1.
         23    2    1    2    0    0  0.26638457214E+03 -0.26047097568E-01 -0.51580225760E+03  0.58771242874E+03  0.91614349323E+02 0.  0.
        254    2    1    2    0    0 -0.26638457214E+03  0.26047097568E-01  0.10803796735E+04  0.14333972979E+04  0.90357447603E+03 0.  0.
         23    2    4    4    0    0 -0.62366275759E+02 -0.36491647588E+03  0.14895291979E+03  0.40915686558E+03  0.90381312331E+02 0.  0.
         23    2    4    4    0    0 -0.20401829638E+03  0.36494252298E+03  0.93142675370E+03  0.10242404323E+04  0.81891118685E+02 0.  0.
         11    1    3    3    0    0  0.43680175545E+02 -0.21490706925E+02 -0.44303561127E+02  0.65822592993E+02  0.00000000000E+00 0. -1.
        -11    1    3    3    0    0  0.22270439660E+03  0.21464659828E+02 -0.47149869647E+03  0.52188983575E+03  0.00000000000E+00 0.  1.
          2    1    5    5  502    0 -0.29857555441E+02 -0.18137078890E+03  0.12248863068E+03  0.22088526734E+03  0.00000000000E+00 0. -1.
          1    1    6    6  503    0 -0.11674281960E+03  0.27335850730E+03  0.69992424745E+03  0.76042600666E+03  0.00000000000E+00 0. -1.
         -2    1    5    5    0  502 -0.32508720318E+02 -0.18354568698E+03  0.26464289112E+02  0.18827159824E+03  0.00000000000E+00 0.  1.
         -1    1    6    6    0  503 -0.87275476784E+02  0.91584015676E+02  0.23150250625E+03  0.26381442564E+03  0.00000000000E+00 0.  1.
<mgrwt>
<rscale>  0 0.19406537E+04</rscale>
<asrwt>0</asrwt>
<pdfrwt beam="1">  1        2 0.19889901E+00 0.19406537E+04</pdfrwt>
<pdfrwt beam="2">  1       -2 0.11204095E+00 0.19406537E+04</pdfrwt>
<totfact> 0.97922843E+00</totfact>
</mgrwt>
</event>
<event>
12    1  0.4672461E-008  0.2653237E+04  0.7818608E-02  0.8350339E-01
         -2   -1    0    0    0  501 -0.00000000000E+00  0.00000000000E+00  0.11149728102E+04  0.11149728102E+04  0.00000000000E+00 0.  1.
          2   -1    0    0  501    0  0.00000000000E+00 -0.00000000000E+00 -0.15784393697E+04  0.15784393697E+04  0.00000000000E+00 0. -1.
         23    2    1    2    0    0 -0.21024420614E+03 -0.10529539868E+04  0.26244322834E+03  0.11091180956E+04  0.91388059371E+02 0.  0.
        254    2    1    2    0    0  0.21024420614E+03  0.10529539868E+04 -0.72590978786E+03  0.15842940842E+04  0.91111360478E+03 0.  0.
         23    2    4    4    0    0  0.10553815547E+03  0.28155973321E+03  0.19888174098E+03  0.37192469450E+03  0.91432192644E+02 0.  0.
         23    2    4    4    0    0  0.10470605067E+03  0.77139425355E+03 -0.92479152885E+03  0.12123693898E+04  0.92669919212E+02 0.  0.
         11    1    3    3    0    0 -0.46908439226E+02 -0.12735404113E+03  0.10990052942E+02  0.13616253056E+03  0.00000000000E+00 0.  1.
        -11    1    3    3    0    0 -0.16333576692E+03 -0.92559994563E+03  0.25145317540E+03  0.97295556503E+03  0.00000000000E+00 0. -1.
          2    1    5    5  502    0  0.19574863505E+02  0.52388090636E+02 -0.96995537878E+00  0.55934141051E+02  0.00000000000E+00 0. -1.
          2    1    6    6  503    0  0.62579280627E+02  0.27604412995E+03 -0.27955327474E+03  0.39782730106E+03  0.00000000000E+00 0. -1.
         -2    1    5    5    0  502  0.85963291967E+02  0.22917164258E+03  0.19985169636E+03  0.31599055345E+03  0.00000000000E+00 0.  1.
         -2    1    6    6    0  503  0.42126770043E+02  0.49535012360E+03 -0.64523825410E+03  0.81454208870E+03  0.00000000000E+00 0.  1.
<mgrwt>
<rscale>  0 0.26532373E+04</rscale>
<asrwt>0</asrwt>
<pdfrwt beam="1">  1        2 0.24283683E+00 0.26532373E+04</pdfrwt>
<pdfrwt beam="2">  1       -2 0.17153428E+00 0.26532373E+04</pdfrwt>
<totfact> 0.20993130E+00</totfact>
</mgrwt>
</event>
<event>
12    1  0.4672461E-008  0.2192638E+04  0.7818608E-02  0.8521499E-01
         -1   -1    0    0    0  501 -0.00000000000E+00  0.00000000000E+00  0.48981082373E+03  0.48981082373E+03  0.00000000000E+00 0.  1.
          1   -1    0    0  501    0  0.00000000000E+00 -0.00000000000E+00 -0.24538355983E+04  0.24538355983E+04  0.00000000000E+00 0. -1.
         23    2    1    2    0    0  0.84509325042E+03 -0.30369795016E+03 -0.99541397698E+03  0.13441425606E+04  0.97237805185E+02 0.  0.
        254    2    1    2    0    0 -0.84509325042E+03  0.30369795016E+03 -0.96861079757E+03  0.15995038614E+04  0.90210347448E+03 0.  0.
         23    2    4    4    0    0 -0.13509177190E+03  0.35325233904E+03 -0.75677528847E+03  0.85130637495E+03  0.94745474463E+02 0.  0.
         23    2    4    4    0    0 -0.71000147853E+03 -0.49554388879E+02 -0.21183550910E+03  0.74819748647E+03  0.91473815195E+02 0.  0.
         13    1    3    3    0    0  0.47924329935E+03 -0.14556355984E+03 -0.49240944286E+03  0.70237450789E+03  0.00000000000E+00 0.  1.
        -13    1    3    3    0    0  0.36584995108E+03 -0.15813439032E+03 -0.50300453412E+03  0.64176805269E+03  0.00000000000E+00 0. -1.
          1    1    5    5  502    0 -0.14621956823E+03  0.32796121175E+03 -0.72599850292E+03  0.80994601350E+03  0.00000000000E+00 0. -1.
          1    1    6    6  503    0 -0.26301519127E+03 -0.50503329388E+02 -0.47743982469E+02  0.27204239556E+03  0.00000000000E+00 0. -1.
         -1    1    5    5    0  502  0.11127796332E+02  0.25291127290E+02 -0.30776785545E+02  0.41360361451E+02  0.00000000000E+00 0.  1.
         -1    1    6    6    0  503 -0.44698628726E+03  0.94894050851E+00 -0.16409152664E+03  0.47615509091E+03  0.00000000000E+00 0.  1.
<mgrwt>
<rscale>  0 0.21926379E+04</rscale>
<asrwt>0</asrwt>
<pdfrwt beam="1">  1        1 0.37751317E+00 0.21926379E+04</pdfrwt>
<pdfrwt beam="2">  1       -1 0.75355511E-01 0.21926379E+04</pdfrwt>
<totfact> 0.23552417E+00</totfact>
</mgrwt>
</event>
<event>
12    1  0.4672461E-008  0.1840765E+04  0.7818608E-02  0.8684917E-01
         -1   -1    0    0    0  501 -0.00000000000E+00  0.00000000000E+00  0.56685560379E+03  0.56685560379E+03  0.00000000000E+00 0.  1.
          1   -1    0    0  501    0  0.00000000000E+00 -0.00000000000E+00 -0.14943906272E+04  0.14943906272E+04  0.00000000000E+00 0. -1.
         23    2    1    2    0    0  0.18495026449E+03 -0.42470104849E+03 -0.93571528442E+03  0.10480904883E+04  0.91394732704E+02 0.  0.
        254    2    1    2    0    0 -0.18495026449E+03  0.42470104849E+03  0.81802610067E+01  0.10131557427E+04  0.90102167646E+03 0.  0.
         23    2    4    4    0    0  0.15150509699E+03 -0.81424496917E+01 -0.32271066294E+03  0.36662879851E+03  0.85172824399E+02 0.  0.
         23    2    4    4    0    0 -0.33645536148E+03  0.43284349818E+03  0.33089092395E+03  0.64652694423E+03  0.89177249778E+02 0.  0.
         13    1    3    3    0    0  0.90845411814E+02 -0.30034438836E+03 -0.57348163709E+03  0.65371310875E+03  0.00000000000E+00 0. -1.
        -13    1    3    3    0    0  0.94104852676E+02 -0.12435666012E+03 -0.36223364733E+03  0.39437737951E+03  0.00000000000E+00 0.  1.
          4    1    5    5  502    0  0.13381841602E+02 -0.26038976148E+02 -0.27292647137E+02  0.40024874156E+02  0.00000000000E+00 0. -1.
          3    1    6    6  503    0 -0.12443325393E+02  0.46252727119E+00 -0.88359134515E+00  0.12483229229E+02  0.00000000000E+00 0. -1.
         -4    1    5    5    0  502  0.13812325539E+03  0.17896526456E+02 -0.29541801581E+03  0.32660392435E+03  0.00000000000E+00 0.  1.
         -3    1    6    6    0  503 -0.32401203609E+03  0.43238097091E+03  0.33177451529E+03  0.63404371500E+03  0.00000000000E+00 0.  1.
<mgrwt>
<rscale>  0 0.18407647E+04</rscale>
<asrwt>0</asrwt>
<pdfrwt beam="1">  1        1 0.22990625E+00 0.18407647E+04</pdfrwt>
<pdfrwt beam="2">  1       -1 0.87208555E-01 0.18407647E+04</pdfrwt>
<totfact> 0.80350090E+00</totfact>
</mgrwt>
</event>
<event>
12    1  0.4672461E-008  0.3295091E+04  0.7818608E-02  0.8164146E-01
         -1   -1    0    0    0  501 -0.00000000000E+00  0.00000000000E+00  0.87302278023E+03  0.87302278023E+03  0.00000000000E+00 0.  1.
          1   -1    0    0  501    0  0.00000000000E+00 -0.00000000000E+00 -0.31092047304E+04  0.31092047304E+04  0.00000000000E+00 0. -1.
         23    2    1    2    0    0  0.14227020981E+04  0.24688699904E+03 -0.16172268621E+04  0.21699663172E+04  0.91085915353E+02 0.  0.
        254    2    1    2    0    0 -0.14227020981E+04 -0.24688699904E+03 -0.61895508811E+03  0.18122611935E+04  0.90341063860E+03 0.  0.
         23    2    4    4    0    0 -0.84631881933E+03 -0.55622527277E+03 -0.52674829781E+03  0.11459430391E+04  0.10039711977E+03 0.  0.
         23    2    4    4    0    0 -0.57638327880E+03  0.30933827373E+03 -0.92206790306E+02  0.66631815434E+03  0.87005396128E+02 0.  0.
         11    1    3    3    0    0  0.68871369595E+03  0.13564224550E+03 -0.72207406255E+03  0.10070334282E+04  0.00000000000E+00 0.  1.
        -11    1    3    3    0    0  0.73398840218E+03  0.11124475354E+03 -0.89515279954E+03  0.11629328890E+04  0.00000000000E+00 0. -1.
          4    1    5    5  502    0 -0.82752984830E+03 -0.52286124207E+03 -0.51379817335E+03  0.11055216376E+04  0.00000000000E+00 0. -1.
          1    1    6    6  503    0 -0.22976776800E+03  0.16110864018E+03 -0.11877984091E+02  0.28087418475E+03  0.00000000000E+00 0. -1.
         -4    1    5    5    0  502 -0.18788971024E+02 -0.33364030699E+02 -0.12950124455E+02  0.40421401510E+02  0.00000000000E+00 0.  1.
         -1    1    6    6    0  503 -0.34661551080E+03  0.14822963355E+03 -0.80328806215E+02  0.38544396959E+03  0.00000000000E+00 0.  1.
<mgrwt>
<rscale>  0 0.32950912E+04</rscale>
<asrwt>0</asrwt>
<pdfrwt beam="1">  1        1 0.47833919E+00 0.32950912E+04</pdfrwt>
<pdfrwt beam="2">  1       -1 0.13431120E+00 0.32950912E+04</pdfrwt>
<totfact> 0.19225950E-01</totfact>
</mgrwt>
</event>
<event>
12    1  0.4672461E-008  0.1979451E+04  0.7818608E-02  0.8616289E-01
          2   -1    0    0  501    0  0.00000000000E+00  0.00000000000E+00  0.49832856242E+03  0.49832856242E+03  0.00000000000E+00 0. -1.
         -2   -1    0    0    0  501 -0.00000000000E+00 -0.00000000000E+00 -0.19656842255E+04  0.19656842255E+04  0.00000000000E+00 0.  1.
         23    2    1    2    0    0  0.31968267263E+03  0.72223617033E+03 -0.78797417107E+03  0.11192332757E+04  0.89206133762E+02 0.  0.
        254    2    1    2    0    0 -0.31968267263E+03 -0.72223617033E+03 -0.67938149202E+03  0.13447795122E+04  0.85032383703E+03 0.  0.
         23    2    4    4    0    0  0.25554733593E+03 -0.18815307249E+03 -0.47336258584E+02  0.33288498867E+03  0.88688639148E+02 0.  0.
         23    2    4    4    0    0 -0.57523000856E+03 -0.53408309784E+03 -0.63204523344E+03  0.10118945235E+04  0.91186794521E+02 0.  0.
         11    1    3    3    0    0  0.29541619963E+03  0.70454831941E+03 -0.76728435372E+03  0.10827669855E+04  0.00000000000E+00 0. -1.
        -11    1    3    3    0    0  0.24266472997E+02  0.17687850919E+02 -0.20689817348E+02  0.36466290239E+02  0.00000000000E+00 0.  1.
          2    1    5    5  502    0  0.16647729518E+03 -0.14232014567E+03  0.65945906397E+01  0.21911915092E+03  0.00000000000E+00 0. -1.
          3    1    6    6  503    0 -0.42937897498E+03 -0.40711462969E+03 -0.42448886455E+03  0.72821660376E+03  0.00000000000E+00 0. -1.
         -2    1    5    5    0  502  0.89070040752E+02 -0.45832926820E+02 -0.53930849224E+02  0.11376583775E+03  0.00000000000E+00 0.  1.
         -3    1    6    6    0  503 -0.14585103358E+03 -0.12696846815E+03 -0.20755636889E+03  0.28367791978E+03  0.00000000000E+00 0.  1.
<mgrwt>
<rscale>  0 0.19794510E+04</rscale>
<asrwt>0</asrwt>
<pdfrwt beam="1">  1        2 0.76665932E-01 0.19794510E+04</pdfrwt>
<pdfrwt beam="2">  1       -2 0.30241296E+00 0.19794510E+04</pdfrwt>
<totfact> 0.17693954E+00</totfact>
</mgrwt>
</event>
<event>
12    1  0.5360986E-008  0.1766193E+04  0.7818608E-02  0.8724487E-01
         -2   -1    0    0    0  501 -0.00000000000E+00  0.00000000000E+00  0.51456707547E+03  0.51456707547E+03  0.00000000000E+00 0. -1.
          2   -1    0    0  501    0  0.00000000000E+00 -0.00000000000E+00 -0.15155641311E+04  0.15155641311E+04  0.00000000000E+00 0.  1.
         23    2    1    2    0    0  0.70049377362E+02  0.19180783355E+03  0.33833989017E+03  0.40555078323E+03  0.91106510295E+02 0.  0.
        254    2    1    2    0    0 -0.70049377362E+02 -0.19180783355E+03 -0.13393369458E+04  0.16245804234E+04  0.89651599943E+03 0.  0.
         23    2    4    4    0    0  0.21827123044E+03  0.27430206252E+03 -0.48067428149E+03  0.60196279967E+03  0.91801392976E+02 0.  0.
         23    2    4    4    0    0 -0.28832060780E+03 -0.46610989607E+03 -0.85866266434E+03  0.10226176237E+04  0.89766503102E+02 0.  0.
         11    1    3    3    0    0  0.33990603959E+02  0.64553250042E+01  0.58396958896E+02  0.67876632111E+02  0.00000000000E+00 0.  1.
        -11    1    3    3    0    0  0.36058773403E+02  0.18535250855E+03  0.27994293128E+03  0.33767415112E+03  0.00000000000E+00 0. -1.
          1    1    5    5  502    0  0.19856224691E+03  0.27652745673E+03 -0.43664690518E+03  0.55367401964E+03  0.00000000000E+00 0. -1.
          3    1    6    6  503    0 -0.22695394659E+03 -0.42406980621E+03 -0.74143515408E+03  0.88378129768E+03  0.00000000000E+00 0. -1.
         -1    1    5    5    0  502  0.19708983528E+02 -0.22253942098E+01 -0.44027376314E+02  0.48288780024E+02  0.00000000000E+00 0.  1.
         -3    1    6    6    0  503 -0.61366661210E+02 -0.42040089860E+02 -0.11722751026E+03  0.13883632603E+03  0.00000000000E+00 0.  1.
<mgrwt>
<rscale>  0 0.17661930E+04</rscale>
<asrwt>0</asrwt>
<pdfrwt beam="1">  1        2 0.23316371E+00 0.17661930E+04</pdfrwt>
<pdfrwt beam="2">  1       -2 0.79164165E-01 0.17661930E+04</pdfrwt>
<totfact> 0.16665589E+01</totfact>
</mgrwt>
</event>
<event>
12    1  0.4672461E-008  0.2092878E+04  0.7818608E-02  0.8564387E-01
         -1   -1    0    0    0  501 -0.00000000000E+00  0.00000000000E+00  0.10830378262E+04  0.10830378262E+04  0.00000000000E+00 0.  1.
          1   -1    0    0  501    0  0.00000000000E+00 -0.00000000000E+00 -0.10110772787E+04  0.10110772787E+04  0.00000000000E+00 0. -1.
         23    2    1    2    0    0 -0.26854368061E+03  0.67464808657E+02  0.83301153857E+03  0.88224084615E+03  0.88167331900E+02 0.  0.
        254    2    1    2    0    0  0.26854368061E+03 -0.67464808657E+02 -0.76105099112E+03  0.12118742587E+04  0.90153946062E+03 0.  0.
         23    2    4    4    0    0  0.32293634161E+03  0.42647251907E+02 -0.92690639812E+03  0.98689482191E+03  0.93269768987E+02 0.  0.
         23    2    4    4    0    0 -0.54392661000E+02 -0.11011206056E+03  0.16585540700E+03  0.22497943682E+03  0.89579593145E+02 0.  0.
         13    1    3    3    0    0 -0.72745121355E+02  0.25607816131E+02  0.12884672115E+03  0.15016354578E+03  0.00000000000E+00 0. -1.
        -13    1    3    3    0    0 -0.19579855926E+03  0.41856992526E+02  0.70416481742E+03  0.73207730037E+03  0.00000000000E+00 0.  1.
          2    1    5    5  502    0 -0.30249337237E+01 -0.50836204833E+01 -0.45248087871E+01  0.74476382707E+01  0.00000000000E+00 0.  1.
          1    1    6    6  503    0 -0.40236079297E+02 -0.80506855066E+02  0.16954928285E+03  0.19195638855E+03  0.00000000000E+00 0. -1.
         -2    1    5    5    0  502  0.32596127533E+03  0.47730872390E+02 -0.92238158933E+03  0.97944718364E+03  0.00000000000E+00 0. -1.
         -1    1    6    6    0  503 -0.14156581702E+02 -0.29605205498E+02 -0.36938758533E+01  0.33023048268E+02  0.00000000000E+00 0.  1.
<mgrwt>
<rscale>  0 0.20928783E+04</rscale>
<asrwt>0</asrwt>
<pdfrwt beam="1">  1        1 0.15555035E+00 0.20928783E+04</pdfrwt>
<pdfrwt beam="2">  1       -1 0.16662120E+00 0.20928783E+04</pdfrwt>
<totfact> 0.35577208E+00</totfact>
</mgrwt>
</event>
<event>
12    1  0.4672461E-008  0.1644344E+04  0.7818608E-02  0.8793759E-01
          2   -1    0    0  501    0  0.00000000000E+00  0.00000000000E+00  0.23926430390E+04  0.23926430390E+04  0.00000000000E+00 0. -1.
         -2   -1    0    0    0  501 -0.00000000000E+00 -0.00000000000E+00 -0.28251896902E+03  0.28251896902E+03  0.00000000000E+00 0.  1.
         23    2    1    2    0    0 -0.56348694410E+03  0.37656818047E+02  0.98425774463E+03  0.11383156811E+04  0.89798161273E+02 0.  0.
        254    2    1    2    0    0  0.56348694410E+03 -0.37656818047E+02  0.11258663254E+04  0.15368463270E+04  0.88056009336E+03 0.  0.
         23    2    4    4    0    0  0.46403558991E+03 -0.21992469760E+03  0.11913104676E+04  0.13003936075E+04  0.90038896604E+02 0.  0.
         23    2    4    4    0    0  0.99451354190E+02  0.18226787955E+03 -0.65444142212E+02  0.23645271949E+03  0.92275679554E+02 0.  0.
         13    1    3    3    0    0 -0.17434794998E+03 -0.63473721680E+01  0.23260672960E+03  0.29076345619E+03  0.00000000000E+00 0.  1.
        -13    1    3    3    0    0 -0.38913899412E+03  0.44004190215E+02  0.75165101502E+03  0.84755222487E+03  0.00000000000E+00 0. -1.
          2    1    5    5  502    0  0.25365240975E+03 -0.13546352101E+03  0.55814414481E+03  0.62786526969E+03  0.00000000000E+00 0.  1.
          1    1    6    6  503    0  0.10728222736E+03  0.16569314803E+03 -0.80057634949E+02  0.21300920291E+03  0.00000000000E+00 0. -1.
         -2    1    5    5    0  502  0.21038318016E+03 -0.84461176584E+02  0.63316632279E+03  0.67252833782E+03  0.00000000000E+00 0. -1.
         -1    1    6    6    0  503 -0.78308731672E+01  0.16574731522E+02  0.14613492737E+02  0.23443516579E+02  0.00000000000E+00 0.  1.
<mgrwt>
<rscale>  0 0.16443443E+04</rscale>
<asrwt>0</asrwt>
<pdfrwt beam="1">  1        2 0.36809892E+00 0.16443443E+04</pdfrwt>
<pdfrwt beam="2">  1       -2 0.43464458E-01 0.16443443E+04</pdfrwt>
<totfact> 0.19282609E+01</totfact>
</mgrwt>
</event>
<event>
12    1  0.4672461E-008  0.1855981E+04  0.7818608E-02  0.8677083E-01
          1   -1    0    0  501    0  0.00000000000E+00  0.00000000000E+00  0.74383672464E+03  0.74383672464E+03  0.00000000000E+00 0. -1.
         -1   -1    0    0    0  501 -0.00000000000E+00 -0.00000000000E+00 -0.11577356178E+04  0.11577356178E+04  0.00000000000E+00 0.  1.
         23    2    1    2    0    0  0.67464851955E+03  0.20615151298E+03 -0.13851615678E+03  0.72444603456E+03  0.89365877499E+02 0.  0.
        254    2    1    2    0    0 -0.67464851955E+03 -0.20615151298E+03 -0.27538273636E+03  0.11771263079E+04  0.90118900457E+03 0.  0.
         23    2    4    4    0    0 -0.73512727980E+03 -0.68327294525E+01 -0.47019873913E+03  0.87754416833E+03  0.92401890608E+02 0.  0.
         23    2    4    4    0    0  0.60478760253E+02 -0.19931878352E+03  0.19481600277E+03  0.29958213954E+03  0.91708917167E+02 0.  0.
         13    1    3    3    0    0  0.29676404031E+03  0.75035616842E+02 -0.17707841655E+02  0.30661507966E+03  0.00000000000E+00 0. -1.
        -13    1    3    3    0    0  0.37788447924E+03  0.13111589613E+03 -0.12080831513E+03  0.41783095490E+03  0.00000000000E+00 0.  1.
          2    1    6    6  502    0  0.65929234694E+02 -0.20163814957E+03  0.16384052766E+03  0.26804538022E+03  0.00000000000E+00 0.  1.
          2    1    5    5  503    0 -0.44562056839E+03 -0.45012189798E+02 -0.30722693939E+03  0.54313182607E+03  0.00000000000E+00 0. -1.
         -2    1    5    5    0  503 -0.28950671142E+03  0.38179460345E+02 -0.16297179974E+03  0.33441234226E+03  0.00000000000E+00 0.  1.
         -2    1    6    6    0  502 -0.54504744406E+01  0.23193660484E+01  0.30975475105E+02  0.31536759321E+02  0.00000000000E+00 0. -1.
<mgrwt>
<rscale>  0 0.18559809E+04</rscale>
<asrwt>0</asrwt>
<pdfrwt beam="1">  1        1 0.11443642E+00 0.18559809E+04</pdfrwt>
<pdfrwt beam="2">  1       -1 0.17811317E+00 0.18559809E+04</pdfrwt>
<totfact> 0.50027659E+00</totfact>
</mgrwt>
</event>
<event>
12    1  0.4672461E-008  0.1456578E+04  0.7818608E-02  0.8913853E-01
         -1   -1    0    0    0  501 -0.00000000000E+00  0.00000000000E+00  0.26050049696E+04  0.26050049696E+04  0.00000000000E+00 0.  1.
          1   -1    0    0  501    0  0.00000000000E+00 -0.00000000000E+00 -0.20360979729E+03  0.20360979729E+03  0.00000000000E+00 0. -1.
         23    2    1    2    0    0  0.33388355134E+03  0.29884012746E+03  0.77550499963E+03  0.90031246595E+03  0.91492536612E+02 0.  0.
        254    2    1    2    0    0 -0.33388355134E+03 -0.29884012746E+03  0.16258901727E+04  0.19083023009E+04  0.89292506432E+03 0.  0.
         23    2    4    4    0    0 -0.60104233572E+02 -0.48205183252E+03  0.14340151748E+04  0.15167536028E+04  0.90307706838E+02 0.  0.
         23    2    4    4    0    0 -0.27377931777E+03  0.18321170506E+03  0.19187499787E+03  0.39154869812E+03  0.89290114157E+02 0.  0.
         11    1    3    3    0    0  0.32981941045E+03  0.29352958997E+03  0.77679224902E+03  0.89350246884E+03  0.00000000000E+00 0. -1.
        -11    1    3    3    0    0  0.40641408882E+01  0.53105374923E+01 -0.12872493845E+01  0.68099971068E+01  0.00000000000E+00 0.  1.
          2    1    5    5  502    0 -0.81319584146E+02 -0.42634625235E+03  0.12813195203E+04  0.13528354352E+04  0.00000000000E+00 0. -1.
          1    1    6    6  503    0 -0.95690930718E+02  0.19099736033E+02  0.38542237152E+02  0.10491452799E+03  0.00000000000E+00 0. -1.
         -2    1    5    5    0  502  0.21215350574E+02 -0.55705580173E+02  0.15269565449E+03  0.16391816758E+03  0.00000000000E+00 0.  1.
         -1    1    6    6    0  503 -0.17808838705E+03  0.16411196903E+03  0.15333276072E+03  0.28663417014E+03  0.00000000000E+00 0.  1.
<mgrwt>
<rscale>  0 0.14565775E+04</rscale>
<asrwt>0</asrwt>
<pdfrwt beam="1">  1        1 0.31324586E-01 0.14565775E+04</pdfrwt>
<pdfrwt beam="2">  1       -1 0.40076997E+00 0.14565775E+04</pdfrwt>
<totfact> 0.10048933E+00</totfact>
</mgrwt>
</event>
<event>
12    1  0.5047903E-008  0.3116492E+04  0.7818608E-02  0.8211226E-01
          2   -1    0    0  501    0  0.00000000000E+00  0.00000000000E+00  0.18695623657E+04  0.18695623657E+04  0.00000000000E+00 0.  1.
         -2   -1    0    0    0  501 -0.00000000000E+00 -0.00000000000E+00 -0.12987694057E+04  0.12987694057E+04  0.00000000000E+00 0. -1.
         23    2    1    2    0    0 -0.70187868369E+03 -0.85401352013E+03  0.11673761646E+04  0.16103157040E+04  0.91524737525E+02 0.  0.
        254    2    1    2    0    0  0.70187868369E+03  0.85401352013E+03 -0.59658320462E+03  0.15580160674E+04  0.92169939088E+03 0.  0.
         23    2    4    4    0    0  0.86756364466E+03  0.70200151739E+03 -0.27154277323E+03  0.11522035729E+04  0.91459213566E+02 0.  0.
         23    2    4    4    0    0 -0.16568496098E+03  0.15201200273E+03 -0.32504043139E+03  0.40581249453E+03  0.92050765374E+02 0.  0.
         13    1    3    3    0    0 -0.35190745155E+03 -0.44019636955E+03  0.52952600816E+03  0.77331073414E+03  0.00000000000E+00 0.  1.
        -13    1    3    3    0    0 -0.34997123214E+03 -0.41381715058E+03  0.63785015643E+03  0.83700496981E+03  0.00000000000E+00 0. -1.
          3    1    6    6  502    0 -0.16193599733E+03  0.11104656365E+03 -0.23104889360E+03  0.30321312268E+03  0.00000000000E+00 0. -1.
          3    1    5    5  503    0  0.67689761164E+03  0.57903100138E+03 -0.24451339476E+03  0.92371753119E+03  0.00000000000E+00 0. -1.
         -3    1    5    5    0  503  0.19066603303E+03  0.12297051601E+03 -0.27029378472E+02  0.22848604171E+03  0.00000000000E+00 0.  1.
         -3    1    6    6    0  502 -0.37489636481E+01  0.40965439080E+02 -0.93991537789E+02  0.10259937185E+03  0.00000000000E+00 0.  1.
<mgrwt>
<rscale>  0 0.31164919E+04</rscale>
<asrwt>0</asrwt>
<pdfrwt beam="1">  1        2 0.28762498E+00 0.31164919E+04</pdfrwt>
<pdfrwt beam="2">  1       -2 0.19981068E+00 0.31164919E+04</pdfrwt>
<totfact> 0.89290135E-01</totfact>
</mgrwt>
</event>
<event>
12    1  0.4672461E-008  0.1748116E+04  0.7818608E-02  0.8734388E-01
         -1   -1    0    0    0  501 -0.00000000000E+00  0.00000000000E+00  0.84635853132E+03  0.84635853132E+03  0.00000000000E+00 0.  1.
          1   -1    0    0  501    0  0.00000000000E+00 -0.00000000000E+00 -0.90266387434E+03  0.90266387434E+03  0.00000000000E+00 0. -1.
         23    2    1    2    0    0  0.15974443249E+03  0.28724685332E+03 -0.56658635584E+03  0.66119812057E+03  0.90187679693E+02 0.  0.
        254    2    1    2    0    0 -0.15974443249E+03 -0.28724685332E+03  0.51028101281E+03  0.10878242851E+04  0.90274355425E+03 0.  0.
         23    2    4    4    0    0 -0.44142055527E+03 -0.91036104073E+02 -0.86429945525E+01  0.45972830493E+03  0.90198304526E+02 0.  0.
         23    2    4    4    0    0  0.28167612279E+03 -0.19621074925E+03  0.51892400737E+03  0.62809598015E+03  0.85920536503E+02 0.  0.
         11    1    3    3    0    0  0.81284202428E+02  0.98959750515E+02 -0.29451288250E+03  0.32115104194E+03  0.00000000000E+00 0. -1.
        -11    1    3    3    0    0  0.78460230059E+02  0.18828710281E+03 -0.27207347334E+03  0.34004707863E+03  0.00000000000E+00 0.  1.
          2    1    5    5  502    0 -0.32631093812E+03 -0.60307346434E+02 -0.45673718133E+02  0.33496551001E+03  0.00000000000E+00 0. -1.
          4    1    6    6  503    0  0.16004619483E+03 -0.61124814414E+02  0.23109444959E+03  0.28767285594E+03  0.00000000000E+00 0.  1.
         -2    1    5    5    0  502 -0.11510961715E+03 -0.30728757639E+02  0.37030723581E+02  0.12476279492E+03  0.00000000000E+00 0.  1.
         -4    1    6    6    0  503  0.12162992796E+03 -0.13508593484E+03  0.28782955778E+03  0.34042312421E+03  0.00000000000E+00 0. -1.
<mgrwt>
<rscale>  0 0.17481159E+04</rscale>
<asrwt>0</asrwt>
<pdfrwt beam="1">  1        1 0.13887137E+00 0.17481159E+04</pdfrwt>
<pdfrwt beam="2">  1       -1 0.13020900E+00 0.17481159E+04</pdfrwt>
<totfact> 0.86685820E+00</totfact>
</mgrwt>
</event>
<event>
12    1  0.4672461E-008  0.2218181E+04  0.7818608E-02  0.8510899E-01
         -2   -1    0    0    0  501 -0.00000000000E+00  0.00000000000E+00  0.38963155166E+03  0.38963155166E+03  0.00000000000E+00 0.  1.
          2   -1    0    0  501    0  0.00000000000E+00 -0.00000000000E+00 -0.31570388451E+04  0.31570388451E+04  0.00000000000E+00 0. -1.
         23    2    1    2    0    0  0.18685910911E+03  0.57663658564E+03 -0.41746084751E+02  0.61453028644E+03  0.92079632933E+02 0.  0.
        254    2    1    2    0    0 -0.18685910911E+03 -0.57663658564E+03 -0.27256612086E+04  0.29321401103E+04  0.89486899792E+03 0.  0.
         23    2    4    4    0    0 -0.45942407597E+03 -0.57315194936E+03 -0.14907168940E+04  0.16641667859E+04  0.87410495960E+02 0.  0.
         23    2    4    4    0    0  0.27256496687E+03 -0.34846362815E+01 -0.12349443147E+04  0.12679733244E+04  0.91460849779E+02 0.  0.
         11    1    3    3    0    0  0.15201303580E+03  0.41760926937E+03 -0.68124002513E+02  0.44960687788E+03  0.00000000000E+00 0. -1.
        -11    1    3    3    0    0  0.34846073304E+02  0.15902731627E+03  0.26377917762E+02  0.16492340856E+03  0.00000000000E+00 0.  1.
          2    1    5    5  502    0 -0.34296009462E+03 -0.47057885949E+03 -0.12273616032E+04  0.13584854046E+04  0.00000000000E+00 0. -1.
          4    1    6    6  503    0  0.22536783454E+03  0.23112369862E+02 -0.86923000619E+03  0.89826813711E+03  0.00000000000E+00 0. -1.
         -2    1    5    5    0  502 -0.11646398136E+03 -0.10257308987E+03 -0.26335529076E+03  0.30568138133E+03  0.00000000000E+00 0.  1.
         -4    1    6    6    0  503  0.47197132326E+02 -0.26597006143E+02 -0.36571430850E+03  0.36970518724E+03  0.00000000000E+00 0.  1.
<mgrwt>
<rscale>  0 0.22181812E+04</rscale>
<asrwt>0</asrwt>
<pdfrwt beam="1">  1        2 0.48569828E+00 0.22181812E+04</pdfrwt>
<pdfrwt beam="2">  1       -2 0.59943316E-01 0.22181812E+04</pdfrwt>
<totfact> 0.32810080E+00</totfact>
</mgrwt>
</event>
<event>
12    1  0.4672461E-008  0.1193554E+04  0.7818608E-02  0.9118517E-01
         -1   -1    0    0    0  501 -0.00000000000E+00  0.00000000000E+00  0.36889736065E+03  0.36889736065E+03  0.00000000000E+00 0.  1.
          1   -1    0    0  501    0  0.00000000000E+00 -0.00000000000E+00 -0.96542512203E+03  0.96542512203E+03  0.00000000000E+00 0. -1.
         23    2    1    2    0    0  0.39687811614E+02 -0.46543257719E+02  0.13139998514E+03  0.17052576958E+03  0.89842555428E+02 0.  0.
        254    2    1    2    0    0 -0.39687811614E+02  0.46543257719E+02 -0.72792774651E+03  0.11637967131E+04  0.90598156055E+03 0.  0.
         23    2    4    4    0    0 -0.30481057747E+02  0.34088969830E+03  0.19824541510E+02  0.35475677255E+03  0.91238555106E+02 0.  0.
         23    2    4    4    0    0 -0.92067538668E+01 -0.29434644058E+03 -0.74775228802E+03  0.80903994055E+03  0.93207026336E+02 0.  0.
         13    1    3    3    0    0  0.61403685559E+02 -0.56296869777E+02  0.11325556008E+03  0.14059364152E+03  0.00000000000E+00 0.  1.
        -13    1    3    3    0    0 -0.21715873945E+02  0.97536120571E+01  0.18144425060E+02  0.29932128059E+02  0.00000000000E+00 0. -1.
          2    1    5    5  502    0  0.29345540836E+02  0.67762620075E+02  0.13593530567E+02  0.75084735598E+02  0.00000000000E+00 0. -1.
          1    1    6    6  503    0 -0.43160359749E+02 -0.20300302372E+03 -0.56530440238E+03  0.60219773467E+03  0.00000000000E+00 0. -1.
         -2    1    5    5    0  502 -0.59826598584E+02  0.27312707823E+03  0.62310109426E+01  0.27967203696E+03  0.00000000000E+00 0.  1.
         -1    1    6    6    0  503  0.33953605882E+02 -0.91343416861E+02 -0.18244788564E+03  0.20684220587E+03  0.00000000000E+00 0.  1.
<mgrwt>
<rscale>  0 0.11935540E+04</rscale>
<asrwt>0</asrwt>
<pdfrwt beam="1">  1        1 0.14852694E+00 0.11935540E+04</pdfrwt>
<pdfrwt beam="2">  1       -1 0.56753441E-01 0.11935540E+04</pdfrwt>
<totfact> 0.50133545E+01</totfact>
</mgrwt>
</event>
<event>
12    1  0.4672461E-008  0.2041644E+04  0.7818608E-02  0.8587395E-01
         -1   -1    0    0    0  501 -0.00000000000E+00  0.00000000000E+00  0.47088818291E+03  0.47088818291E+03  0.00000000000E+00 0.  1.
          1   -1    0    0  501    0  0.00000000000E+00 -0.00000000000E+00 -0.22130040389E+04  0.22130040389E+04  0.00000000000E+00 0. -1.
         23    2    1    2    0    0  0.60352235452E+03 -0.39888730238E+03 -0.11948250903E+04  0.13997333760E+04  0.91083560471E+02 0.  0.
        254    2    1    2    0    0 -0.60352235452E+03  0.39888730238E+03 -0.54729076574E+03  0.12841588459E+04  0.90894798904E+03 0.  0.
         23    2    4    4    0    0 -0.51170604486E+03  0.25066332388E+03 -0.78575308150E+03  0.97493119768E+03  0.91693821192E+02 0.  0.
         23    2    4    4    0    0 -0.91816309661E+02  0.14822397850E+03  0.23846231576E+03  0.30922764820E+03  0.91415971529E+02 0.  0.
         13    1    3    3    0    0  0.52743324546E+03 -0.37418410249E+03 -0.10962889127E+04  0.12728114358E+04  0.00000000000E+00 0. -1.
        -13    1    3    3    0    0  0.76089109059E+02 -0.24703199896E+02 -0.98536177579E+02  0.12692194016E+03  0.00000000000E+00 0.  1.
          4    1    5    5  502    0 -0.23449316273E+03  0.13890672123E+03 -0.30688677238E+03  0.41044075289E+03  0.00000000000E+00 0. -1.
          3    1    6    6  503    0 -0.87608417132E+02  0.74612370223E+02  0.10042719160E+03  0.15273461086E+03  0.00000000000E+00 0. -1.
         -4    1    5    5    0  502 -0.27721288213E+03  0.11175660265E+03 -0.47886630912E+03  0.56449044479E+03  0.00000000000E+00 0.  1.
         -3    1    6    6    0  503 -0.42078925286E+01  0.73611608281E+02  0.13803512416E+03  0.15649303734E+03  0.00000000000E+00 0.  1.
<mgrwt>
<rscale>  0 0.20416439E+04</rscale>
<asrwt>0</asrwt>
<pdfrwt beam="1">  1        1 0.34046216E+00 0.20416439E+04</pdfrwt>
<pdfrwt beam="2">  1       -1 0.72444336E-01 0.20416439E+04</pdfrwt>
<totfact> 0.37920126E+00</totfact>
</mgrwt>
</event>
<event>
12    1  0.4672461E-008  0.1779901E+04  0.7818608E-02  0.8717062E-01
          2   -1    0    0  501    0  0.00000000000E+00  0.00000000000E+00  0.22082683677E+04  0.22082683677E+04  0.00000000000E+00 0. -1.
         -2   -1    0    0    0  501 -0.00000000000E+00 -0.00000000000E+00 -0.35865731371E+03  0.35865731371E+03  0.00000000000E+00 0.  1.
         23    2    1    2    0    0  0.63192230378E+03 -0.11095502796E+03  0.48669363563E+03  0.81076743327E+03  0.94001700215E+02 0.  0.
        254    2    1    2    0    0 -0.63192230378E+03  0.11095502796E+03  0.13629174183E+04  0.17561582481E+04  0.90272425856E+03 0.  0.
         23    2    4    4    0    0  0.11624214197E+03  0.16816024390E+03  0.33094087116E+02  0.22659862895E+03  0.91987047144E+02 0.  0.
         23    2    4    4    0    0 -0.74816444575E+03 -0.57205215942E+02  0.13298233312E+04  0.15295596192E+04  0.90000342873E+02 0.  0.
         13    1    3    3    0    0  0.41253214012E+03 -0.10405903045E+03  0.36003024311E+03  0.55734443965E+03  0.00000000000E+00 0. -1.
        -13    1    3    3    0    0  0.21939016366E+03 -0.68959975052E+01  0.12666339252E+03  0.25342299362E+03  0.00000000000E+00 0.  1.
          2    1    5    5  502    0 -0.36016656365E+01  0.66122901177E+01  0.24101530310E+02  0.25250309687E+02  0.00000000000E+00 0. -1.
          2    1    6    6  503    0 -0.93072936044E+02 -0.35566325225E+02  0.15497303489E+03  0.18423945412E+03  0.00000000000E+00 0. -1.
         -2    1    5    5    0  502  0.11984380761E+03  0.16154795378E+03  0.89925568050E+01  0.20134831926E+03  0.00000000000E+00 0.  1.
         -2    1    6    6    0  503 -0.65509150971E+03 -0.21638890717E+02  0.11748502963E+04  0.13453201651E+04  0.00000000000E+00 0.  1.
<mgrwt>
<rscale>  0 0.17799007E+04</rscale>
<asrwt>0</asrwt>
<pdfrwt beam="1">  1        2 0.33973359E+00 0.17799007E+04</pdfrwt>
<pdfrwt beam="2">  1       -2 0.55178050E-01 0.17799007E+04</pdfrwt>
<totfact> 0.14923152E+01</totfact>
</mgrwt>
</event>
<event>
12    1  0.4672461E-008  0.1538719E+04  0.7818608E-02  0.8859106E-01
          2   -1    0    0  501    0  0.00000000000E+00  0.00000000000E+00  0.19528699025E+04  0.19528699025E+04  0.00000000000E+00 0. -1.
         -2   -1    0    0    0  501 -0.00000000000E+00 -0.00000000000E+00 -0.30309955099E+03  0.30309955099E+03  0.00000000000E+00 0.  1.
         23    2    1    2    0    0  0.49127891282E+01  0.23062280970E+03 -0.10435072331E+03  0.26968791209E+03  0.92905762049E+02 0.  0.
        254    2    1    2    0    0 -0.49127891282E+01 -0.23062280970E+03  0.17541210748E+04  0.19862815414E+04  0.90286355596E+03 0.  0.
         23    2    4    4    0    0  0.25541052217E+03 -0.39613447430E+03  0.51109241075E+03  0.70184798873E+03  0.96010886821E+02 0.  0.
         23    2    4    4    0    0 -0.26032331130E+03  0.16551166460E+03  0.12430286641E+04  0.12844335527E+04  0.97400995778E+02 0.  0.
         11    1    3    3    0    0  0.51573774897E+01  0.12789203598E+03 -0.10713998903E+03  0.16691898831E+03  0.00000000000E+00 0. -1.
        -11    1    3    3    0    0 -0.24458836146E+00  0.10273077372E+03  0.27892657122E+01  0.10276892378E+03  0.00000000000E+00 0.  1.
          3    1    5    5  502    0  0.58526222889E+02 -0.59911530181E+02  0.14368489609E+03  0.16631313712E+03  0.00000000000E+00 0. -1.
          3    1    6    6  503    0 -0.67155991110E+02  0.87222346089E+02  0.32847264779E+03  0.34642740242E+03  0.00000000000E+00 0. -1.
         -3    1    5    5    0  502  0.19688429928E+03 -0.33622294412E+03  0.36740751466E+03  0.53553485160E+03  0.00000000000E+00 0.  1.
         -3    1    6    6    0  503 -0.19316732019E+03  0.78289318507E+02  0.91455601630E+03  0.93800615027E+03  0.00000000000E+00 0.  1.
<mgrwt>
<rscale>  0 0.15387189E+04</rscale>
<asrwt>0</asrwt>
<pdfrwt beam="1">  1        2 0.30044152E+00 0.15387189E+04</pdfrwt>
<pdfrwt beam="2">  1       -2 0.46630701E-01 0.15387189E+04</pdfrwt>
<totfact> 0.29814828E+01</totfact>
</mgrwt>
</event>
<event>
12    1  0.4672461E-008  0.1508766E+04  0.7818608E-02  0.8878644E-01
          4   -1    0    0  501    0  0.00000000000E+00  0.00000000000E+00  0.72364685127E+03  0.72364685127E+03  0.00000000000E+00 0.  1.
         -4   -1    0    0    0  501 -0.00000000000E+00 -0.00000000000E+00 -0.78642514880E+03  0.78642514880E+03  0.00000000000E+00 0. -1.
         23    2    1    2    0    0  0.49786649203E+02 -0.33560942029E+03 -0.35972048775E+03  0.50274890417E+03  0.90803292391E+02 0.  0.
        254    2    1    2    0    0 -0.49786649203E+02  0.33560942029E+03  0.29694219021E+03  0.10073230959E+04  0.90078452572E+03 0.  0.
         23    2    4    4    0    0 -0.38215287701E+03  0.20824287740E+03  0.42740674744E+03  0.61743275478E+03  0.95607329859E+02 0.  0.
         23    2    4    4    0    0  0.33236622781E+03  0.12736654289E+03 -0.13046455723E+03  0.38989034112E+03  0.91125911612E+02 0.  0.
         13    1    3    3    0    0  0.13980494460E+01 -0.23037201824E+02 -0.70409156523E+02  0.74095320584E+02  0.00000000000E+00 0.  1.
        -13    1    3    3    0    0  0.48388599757E+02 -0.31257221847E+03 -0.28931133122E+03  0.42865358358E+03  0.00000000000E+00 0. -1.
          2    1    5    5  502    0 -0.73505266112E+02  0.62399573206E+02  0.50251315526E+02  0.10872867880E+03  0.00000000000E+00 0. -1.
          1    1    6    6  503    0  0.19477105285E+02  0.36036230488E+02 -0.21157230616E+02  0.46104185769E+02  0.00000000000E+00 0. -1.
         -2    1    5    5    0  502 -0.30864761090E+03  0.14584330420E+03  0.37715543192E+03  0.50870407598E+03  0.00000000000E+00 0.  1.
         -1    1    6    6    0  503  0.31288912252E+03  0.91330312401E+02 -0.10930732661E+03  0.34378615535E+03  0.00000000000E+00 0.  1.
<mgrwt>
<rscale>  0 0.15087665E+04</rscale>
<asrwt>0</asrwt>
<pdfrwt beam="1">  1        4 0.11133028E+00 0.15087665E+04</pdfrwt>
<pdfrwt beam="2">  1       -4 0.12098849E+00 0.15087665E+04</pdfrwt>
<totfact> 0.63774575E-01</totfact>
</mgrwt>
</event>
<event>
12    1  0.4672461E-008  0.2071724E+04  0.7818608E-02  0.8573803E-01
         -2   -1    0    0    0  501 -0.00000000000E+00  0.00000000000E+00  0.37576298232E+03  0.37576298232E+03  0.00000000000E+00 0.  1.
          2   -1    0    0  501    0  0.00000000000E+00 -0.00000000000E+00 -0.28555501023E+04  0.28555501023E+04  0.00000000000E+00 0. -1.
         23    2    1    2    0    0  0.54889571081E+03  0.41093939568E+03 -0.17736608463E+04  0.19025405842E+04  0.60251045777E+02 0.  0.
        254    2    1    2    0    0 -0.54889571081E+03 -0.41093939568E+03 -0.70612627364E+03  0.13287725004E+04  0.89267259128E+03 0.  0.
         23    2    4    4    0    0 -0.57937639012E+03 -0.31301701550E+03 -0.88277382937E+03  0.11048017127E+04  0.87410166425E+02 0.  0.
         23    2    4    4    0    0  0.30480679304E+02 -0.97922380176E+02  0.17664755573E+03  0.22397078768E+03  0.91873230249E+02 0.  0.
         13    1    3    3    0    0  0.48639725663E+03  0.36251292894E+03 -0.15105843022E+04  0.16278399334E+04  0.00000000000E+00 0.  1.
        -13    1    3    3    0    0  0.62498454187E+02  0.48426466738E+02 -0.26307654414E+03  0.27470065077E+03  0.00000000000E+00 0. -1.
          1    1    5    5  502    0 -0.67341746389E+02 -0.70129989317E+01 -0.84537388136E+02  0.10830818507E+03  0.00000000000E+00 0. -1.
          3    1    6    6  503    0 -0.14329606900E+02  0.49795231924E+01  0.59031885422E+00  0.15181625785E+02  0.00000000000E+00 0. -1.
         -1    1    5    5    0  502 -0.51203464373E+03 -0.30600401657E+03 -0.79823644123E+03  0.99649352765E+03  0.00000000000E+00 0.  1.
         -3    1    6    6    0  503  0.44810286204E+02 -0.10290190337E+03  0.17605723688E+03  0.20878916189E+03  0.00000000000E+00 0.  1.
<mgrwt>
<rscale>  0 0.20717239E+04</rscale>
<asrwt>0</asrwt>
<pdfrwt beam="1">  1        2 0.43931538E+00 0.20717239E+04</pdfrwt>
<pdfrwt beam="2">  1       -2 0.57809693E-01 0.20717239E+04</pdfrwt>
<totfact> 0.55429226E+00</totfact>
</mgrwt>
</event>
<event>
12    1  0.4672461E-008  0.1514415E+04  0.7818608E-02  0.8874924E-01
          2   -1    0    0  501    0  0.00000000000E+00  0.00000000000E+00  0.13489347450E+04  0.13489347450E+04  0.00000000000E+00 0.  1.
         -2   -1    0    0    0  501 -0.00000000000E+00 -0.00000000000E+00 -0.42504869443E+03  0.42504869443E+03  0.00000000000E+00 0. -1.
         23    2    1    2    0    0  0.13477201533E+02 -0.25539527127E+03  0.78292589012E+03  0.82884610141E+03  0.92760610462E+02 0.  0.
        254    2    1    2    0    0 -0.13477201533E+02  0.25539527127E+03  0.14096016049E+03  0.94513733806E+03  0.89889178514E+03 0.  0.
         23    2    4    4    0    0  0.40725207240E+03  0.12729639393E+03 -0.81989835337E+02  0.44443921628E+03  0.93516102823E+02 0.  0.
         23    2    4    4    0    0 -0.42072927393E+03  0.12809887734E+03  0.22294999583E+03  0.50069812177E+03  0.87002667696E+02 0.  0.
         11    1    3    3    0    0  0.50969659462E+02 -0.10137689269E+03  0.31750809495E+03  0.33717439244E+03  0.00000000000E+00 0. -1.
        -11    1    3    3    0    0 -0.37492457929E+02 -0.15401837859E+03  0.46541779517E+03  0.49167170897E+03  0.00000000000E+00 0.  1.
          4    1    5    5  502    0  0.24433961811E+03  0.93277572923E+02 -0.93167727505E+02  0.27763785771E+03  0.00000000000E+00 0.  1.
          1    1    6    6  503    0 -0.31962453015E+02  0.12978061784E+02 -0.60816566448E+01  0.35028774429E+02  0.00000000000E+00 0. -1.
         -4    1    5    5    0  502  0.16291245430E+03  0.34018821010E+02  0.11177892168E+02  0.16680135857E+03  0.00000000000E+00 0. -1.
         -1    1    6    6    0  503 -0.38876682092E+03  0.11512081556E+03  0.22903165247E+03  0.46566934735E+03  0.00000000000E+00 0.  1.
<mgrwt>
<rscale>  0 0.15144147E+04</rscale>
<asrwt>0</asrwt>
<pdfrwt beam="1">  1        2 0.20752842E+00 0.15144147E+04</pdfrwt>
<pdfrwt beam="2">  1       -2 0.65392107E-01 0.15144147E+04</pdfrwt>
<totfact> 0.32204385E+01</totfact>
</mgrwt>
</event>
<event>
12    1  0.5371929E-008  0.2785647E+04  0.7818608E-02  0.8307738E-01
          2   -1    0    0  501    0  0.00000000000E+00  0.00000000000E+00  0.14239982430E+04  0.14239982430E+04  0.00000000000E+00 0. -1.
         -2   -1    0    0    0  501 -0.00000000000E+00 -0.00000000000E+00 -0.13623313820E+04  0.13623313820E+04  0.00000000000E+00 0.  1.
         23    2    1    2    0    0  0.60209417307E+03  0.16262820197E+03  0.10972728323E+04  0.12655774768E+04  0.93345359064E+02 0.  0.
        254    2    1    2    0    0 -0.60209417307E+03 -0.16262820197E+03 -0.10356059714E+04  0.15207521482E+04  0.92262779217E+03 0.  0.
         23    2    4    4    0    0 -0.31765334272E+03 -0.42340880643E+03 -0.16208609251E+03  0.56147167633E+03  0.93807667250E+02 0.  0.
         23    2    4    4    0    0 -0.28444083035E+03  0.26078060446E+03 -0.87351987886E+03  0.95928047183E+03  0.90933685998E+02 0.  0.
         11    1    3    3    0    0  0.61295259940E+02  0.29479603953E+00  0.67605570204E+02  0.91256281529E+02  0.00000000000E+00 0.  1.
        -11    1    3    3    0    0  0.54079891313E+03  0.16233340593E+03  0.10296672621E+04  0.11743211953E+04  0.00000000000E+00 0. -1.
          3    1    6    6  502    0 -0.49323450331E+02  0.73903352641E+02 -0.13070110162E+03  0.15804203950E+03  0.00000000000E+00 0. -1.
          3    1    5    5  503    0 -0.18431560043E+03 -0.22037373628E+03 -0.13381648369E+03  0.31692850221E+03  0.00000000000E+00 0. -1.
         -3    1    5    5    0  503 -0.13333774230E+03 -0.20303507014E+03 -0.28269608827E+02  0.24454317413E+03  0.00000000000E+00 0.  1.
         -3    1    6    6    0  502 -0.23511738001E+03  0.18687725182E+03 -0.74281877724E+03  0.80123843234E+03  0.00000000000E+00 0.  1.
<mgrwt>
<rscale>  0 0.27856471E+04</rscale>
<asrwt>0</asrwt>
<pdfrwt beam="1">  1        2 0.21907665E+00 0.27856471E+04</pdfrwt>
<pdfrwt beam="2">  1       -2 0.20958944E+00 0.27856471E+04</pdfrwt>
<totfact> 0.14072934E+00</totfact>
</mgrwt>
</event>
<event>
12    1  0.4672461E-008  0.1831025E+04  0.7818608E-02  0.8689973E-01
          2   -1    0    0  501    0  0.00000000000E+00  0.00000000000E+00  0.15141953207E+04  0.15141953207E+04  0.00000000000E+00 0.  1.
         -2   -1    0    0    0  501 -0.00000000000E+00 -0.00000000000E+00 -0.55353687715E+03  0.55353687715E+03  0.00000000000E+00 0. -1.
         23    2    1    2    0    0 -0.32278294259E+03 -0.39698719937E+03 -0.15672754821E+03  0.54288337470E+03  0.91494096315E+02 0.  0.
        254    2    1    2    0    0  0.32278294259E+03  0.39698719937E+03  0.11173859917E+04  0.15248488231E+04  0.90267647272E+03 0.  0.
         23    2    4    4    0    0 -0.27061191533E+03  0.21896635177E+03  0.65064968698E+03  0.74379883158E+03  0.93352101015E+02 0.  0.
         23    2    4    4    0    0  0.59339485793E+03  0.17802084760E+03  0.46673630476E+03  0.78104999156E+03  0.91582921645E+02 0.  0.
         13    1    3    3    0    0 -0.12077147682E+03 -0.13719769675E+03 -0.10187575402E+03  0.20925493271E+03  0.00000000000E+00 0. -1.
        -13    1    3    3    0    0 -0.20201146577E+03 -0.25978950262E+03 -0.54851794189E+02  0.33362844199E+03  0.00000000000E+00 0.  1.
          2    1    6    6  502    0  0.53556590292E+03  0.18778707975E+03  0.42647571783E+03  0.70991292536E+03  0.00000000000E+00 0. -1.
          2    1    5    5  503    0 -0.17012058415E+03  0.12964502809E+03  0.30155749073E+03  0.36971038216E+03  0.00000000000E+00 0. -1.
         -2    1    5    5    0  503 -0.10049133118E+03  0.89321323677E+02  0.34909219625E+03  0.37408844942E+03  0.00000000000E+00 0.  1.
         -2    1    6    6    0  502  0.57828955008E+02 -0.97662321488E+01  0.40260586924E+02  0.71137066197E+02  0.00000000000E+00 0.  1.
<mgrwt>
<rscale>  0 0.18310248E+04</rscale>
<asrwt>0</asrwt>
<pdfrwt beam="1">  1        2 0.23295312E+00 0.18310248E+04</pdfrwt>
<pdfrwt beam="2">  1       -2 0.85159520E-01 0.18310248E+04</pdfrwt>
<totfact> 0.14080108E+01</totfact>
</mgrwt>
</event>
<event>
12    1  0.4672461E-008  0.1369684E+04  0.7818608E-02  0.8976060E-01
          2   -1    0    0  501    0  0.00000000000E+00  0.00000000000E+00  0.12907420421E+04  0.12907420421E+04  0.00000000000E+00 0. -1.
         -2   -1    0    0    0  501 -0.00000000000E+00 -0.00000000000E+00 -0.36336364976E+03  0.36336364976E+03  0.00000000000E+00 0.  1.
         23    2    1    2    0    0  0.35944584723E+03 -0.51816374565E+02  0.38402532475E+03  0.53699514014E+03  0.94879274457E+02 0.  0.
        254    2    1    2    0    0 -0.35944584723E+03  0.51816374565E+02  0.54335306764E+03  0.11171105518E+04  0.90598961086E+03 0.  0.
         23    2    4    4    0    0 -0.63689541182E+03  0.11574057917E+03  0.25377632033E+03  0.70105747231E+03  0.89707923103E+02 0.  0.
         23    2    4    4    0    0  0.27744956459E+03 -0.63924204603E+02  0.28957674731E+03  0.41605307945E+03  0.90448369309E+02 0.  0.
         11    1    3    3    0    0  0.12853553908E+03  0.56448851196E+00  0.19717900086E+03  0.23537472642E+03  0.00000000000E+00 0. -1.
        -11    1    3    3    0    0  0.23091030814E+03 -0.52380863077E+02  0.18684632389E+03  0.30162041372E+03  0.00000000000E+00 0.  1.
          4    1    5    5  502    0 -0.41731146157E+02 -0.12315147569E+02  0.66033858516E+01  0.44008591478E+02  0.00000000000E+00 0.  1.
          1    1    6    6  503    0  0.26853064803E+03 -0.44463646897E+02  0.28513048459E+03  0.39418919071E+03  0.00000000000E+00 0. -1.
         -4    1    5    5    0  502 -0.59516426566E+03  0.12805572674E+03  0.24717293447E+03  0.65704888083E+03  0.00000000000E+00 0. -1.
         -1    1    6    6    0  503  0.89189165536E+01 -0.19460557706E+02  0.44462627256E+01  0.21863888742E+02  0.00000000000E+00 0.  1.
<mgrwt>
<rscale>  0 0.13696843E+04</rscale>
<asrwt>0</asrwt>
<pdfrwt beam="1">  1        2 0.19857570E+00 0.13696843E+04</pdfrwt>
<pdfrwt beam="2">  1       -2 0.55902101E-01 0.13696843E+04</pdfrwt>
<totfact> 0.49061856E+01</totfact>
</mgrwt>
</event>
<event>
12    1  0.4672461E-008  0.1541806E+04  0.7818608E-02  0.8857118E-01
         -1   -1    0    0    0  501 -0.00000000000E+00  0.00000000000E+00  0.16673484964E+04  0.16673484964E+04  0.00000000000E+00 0.  1.
          1   -1    0    0  501    0  0.00000000000E+00 -0.00000000000E+00 -0.35642917443E+03  0.35642917443E+03  0.00000000000E+00 0. -1.
         23    2    1    2    0    0  0.26120029464E+03  0.95859150580E+02  0.98936980185E+03  0.10315750202E+04  0.88768500944E+02 0.  0.
        254    2    1    2    0    0 -0.26120029464E+03 -0.95859150580E+02  0.32154952016E+03  0.99220265068E+03  0.89646942806E+03 0.  0.
         23    2    4    4    0    0 -0.54711647263E+03 -0.20402149596E+03  0.31754549224E+03  0.67007976604E+03  0.84914944353E+02 0.  0.
         23    2    4    4    0    0  0.28591617799E+03  0.10816234538E+03  0.40040279204E+01  0.32212288465E+03  0.10148875199E+03 0.  0.
         13    1    3    3    0    0  0.16459177883E+03  0.81805069838E+02  0.76706827383E+03  0.78878150322E+03  0.00000000000E+00 0.  1.
        -13    1    3    3    0    0  0.96608515809E+02  0.14054080742E+02  0.22230152802E+03  0.24279351695E+03  0.00000000000E+00 0. -1.
          1    1    5    5  502    0 -0.37972643202E+03 -0.17942283468E+03  0.20949258605E+03  0.46933129065E+03  0.00000000000E+00 0. -1.
          3    1    6    6  503    0  0.22681407881E+03  0.41022108725E+02  0.19600363546E+02  0.23132577461E+03  0.00000000000E+00 0. -1.
         -1    1    5    5    0  502 -0.16739004061E+03 -0.24598661282E+02  0.10805290619E+03  0.20074847539E+03  0.00000000000E+00 0.  1.
         -3    1    6    6    0  503  0.59102099186E+02  0.67140236652E+02 -0.15596335626E+02  0.90797110036E+02  0.00000000000E+00 0.  1.
<mgrwt>
<rscale>  0 0.15418063E+04</rscale>
<asrwt>0</asrwt>
<pdfrwt beam="1">  1        1 0.54835259E-01 0.15418063E+04</pdfrwt>
<pdfrwt beam="2">  1       -1 0.25651515E+00 0.15418063E+04</pdfrwt>
<totfact> 0.42643900E+00</totfact>
</mgrwt>
</event>
<event>
12    1  0.4672461E-008  0.1278277E+04  0.7818608E-02  0.9046971E-01
          2   -1    0    0  501    0  0.00000000000E+00  0.00000000000E+00  0.83573809040E+03  0.83573809040E+03  0.00000000000E+00 0. -1.
         -2   -1    0    0    0  501 -0.00000000000E+00 -0.00000000000E+00 -0.48878732343E+03  0.48878732343E+03  0.00000000000E+00 0.  1.
         23    2    1    2    0    0  0.29226535336E+03  0.52831860044E+02  0.18340526658E+03  0.36101737739E+03  0.92118471325E+02 0.  0.
        254    2    1    2    0    0 -0.29226535336E+03 -0.52831860044E+02  0.16354550038E+03  0.96350803644E+03  0.90188156838E+03 0.  0.
         23    2    4    4    0    0 -0.45834078004E+03  0.74725889227E+02  0.41125014306E+03  0.62761418699E+03  0.95460245040E+02 0.  0.
         23    2    4    4    0    0  0.16607542668E+03 -0.12755774927E+03 -0.24770464268E+03  0.33589384945E+03  0.87264318879E+02 0.  0.
         13    1    3    3    0    0  0.21660555105E+03  0.11431700023E+01  0.15005427641E+03  0.26350627593E+03  0.00000000000E+00 0. -1.
        -13    1    3    3    0    0  0.75659802307E+02  0.51688690042E+02  0.33350990170E+02  0.97511101464E+02  0.00000000000E+00 0.  1.
          2    1    5    5  502    0 -0.10468674325E+03 -0.31291324369E+01  0.49798152490E+02  0.11596965842E+03  0.00000000000E+00 0. -1.
          1    1    6    6  503    0  0.53006369244E+01 -0.46472081549E+02 -0.49068624346E+02  0.67789977213E+02  0.00000000000E+00 0. -1.
         -2    1    5    5    0  502 -0.35365403678E+03  0.77855021664E+02  0.36145199057E+03  0.51164452857E+03  0.00000000000E+00 0.  1.
         -1    1    6    6    0  503  0.16077478976E+03 -0.81085667722E+02 -0.19863601833E+03  0.26810387224E+03  0.00000000000E+00 0.  1.
<mgrwt>
<rscale>  0 0.12782773E+04</rscale>
<asrwt>0</asrwt>
<pdfrwt beam="1">  1        2 0.12857509E+00 0.12782773E+04</pdfrwt>
<pdfrwt beam="2">  1       -2 0.75198050E-01 0.12782773E+04</pdfrwt>
<totfact> 0.50633630E+01</totfact>
</mgrwt>
</event>
<event>
12    1  0.4672461E-008  0.2210739E+04  0.7818608E-02  0.8513971E-01
          2   -1    0    0  501    0  0.00000000000E+00  0.00000000000E+00  0.24147068314E+04  0.24147068314E+04  0.00000000000E+00 0. -1.
         -2   -1    0    0    0  501 -0.00000000000E+00 -0.00000000000E+00 -0.50600018218E+03  0.50600018218E+03  0.00000000000E+00 0.  1.
         23    2    1    2    0    0 -0.38820208728E+03  0.32948379827E+03  0.18150821275E+04  0.18871243085E+04  0.86339981090E+02 0.  0.
        254    2    1    2    0    0  0.38820208728E+03 -0.32948379827E+03  0.93624521708E+02  0.10335827051E+04  0.89457656086E+03 0.  0.
         23    2    4    4    0    0  0.22401627953E+02  0.28654030194E+03 -0.24457351589E+02  0.30192666976E+03  0.89187298978E+02 0.  0.
         23    2    4    4    0    0  0.36580045932E+03 -0.61602410020E+03  0.11808187330E+03  0.73165603529E+03  0.89897481108E+02 0.  0.
         11    1    3    3    0    0 -0.80278348391E+01  0.12009991304E+02  0.18243090679E+02  0.23270074792E+02  0.00000000000E+00 0.  1.
        -11    1    3    3    0    0 -0.38017425244E+03  0.31747380696E+03  0.17968390368E+04  0.18638542337E+04  0.00000000000E+00 0. -1.
          2    1    5    5  502    0 -0.30925527216E+02  0.14891034678E+03 -0.26135523112E+02  0.15431702816E+03  0.00000000000E+00 0. -1.
          3    1    6    6  503    0  0.36890150234E+03 -0.59109389505E+03  0.11692788436E+03  0.70650721251E+03  0.00000000000E+00 0. -1.
         -2    1    5    5    0  502  0.53327155168E+02  0.13762995515E+03  0.16781715223E+01  0.14760964160E+03  0.00000000000E+00 0.  1.
         -3    1    6    6    0  503 -0.31010430170E+01 -0.24930205153E+02  0.11539889409E+01  0.25148822781E+02  0.00000000000E+00 0.  1.
<mgrwt>
<rscale>  0 0.22107393E+04</rscale>
<asrwt>0</asrwt>
<pdfrwt beam="1">  1        2 0.37149335E+00 0.22107393E+04</pdfrwt>
<pdfrwt beam="2">  1       -2 0.77846183E-01 0.22107393E+04</pdfrwt>
<totfact> 0.52327779E+00</totfact>
</mgrwt>
</event>
<event>
12    1  0.4672461E-008  0.1879281E+04  0.7818608E-02  0.8665239E-01
          2   -1    0    0  501    0  0.00000000000E+00  0.00000000000E+00  0.24369641561E+04  0.24369641561E+04  0.00000000000E+00 0. -1.
         -2   -1    0    0    0  501 -0.00000000000E+00 -0.00000000000E+00 -0.36230489758E+03  0.36230489758E+03  0.00000000000E+00 0.  1.
         23    2    1    2    0    0 -0.61267974153E+03 -0.33617120921E+03  0.56037807479E+03  0.90337514180E+03  0.11694234708E+03 0.  0.
        254    2    1    2    0    0  0.61267974153E+03  0.33617120921E+03  0.15142811837E+04  0.18958939118E+04  0.90165330035E+03 0.  0.
         23    2    4    4    0    0  0.44679879711E+03  0.21489465553E+03  0.15820578345E+04  0.16603873795E+04  0.90390154907E+02 0.  0.
         23    2    4    4    0    0  0.16588094442E+03  0.12127655368E+03 -0.67776650851E+02  0.23550653233E+03  0.92979364227E+02 0.  0.
         13    1    3    3    0    0 -0.11937049166E+03 -0.76049738107E+02  0.17695139591E+03  0.22659363067E+03  0.00000000000E+00 0. -1.
        -13    1    3    3    0    0 -0.49330924987E+03 -0.26012147111E+03  0.38342667888E+03  0.67678151114E+03  0.00000000000E+00 0.  1.
          2    1    5    5  502    0  0.29455113235E+03  0.10864542721E+03  0.88530589750E+03  0.93932461406E+03  0.00000000000E+00 0. -1.
          1    1    6    6  503    0  0.51869695155E+02  0.42687389070E+02 -0.69995314550E+02  0.97015578749E+02  0.00000000000E+00 0. -1.
         -2    1    5    5    0  502  0.15224766476E+03  0.10624922833E+03  0.69675193704E+03  0.72106276544E+03  0.00000000000E+00 0.  1.
         -1    1    6    6    0  503  0.11401124927E+03  0.78589164610E+02  0.22186636991E+01  0.13849095358E+03  0.00000000000E+00 0.  1.
<mgrwt>
<rscale>  0 0.18792808E+04</rscale>
<asrwt>0</asrwt>
<pdfrwt beam="1">  1        2 0.37491755E+00 0.18792808E+04</pdfrwt>
<pdfrwt beam="2">  1       -2 0.55739217E-01 0.18792808E+04</pdfrwt>
<totfact> 0.10745851E+01</totfact>
</mgrwt>
</event>
<event>
12    1  0.4672461E-008  0.2352409E+04  0.7818608E-02  0.8457539E-01
         -2   -1    0    0    0  501 -0.00000000000E+00  0.00000000000E+00  0.63029695941E+03  0.63029695941E+03  0.00000000000E+00 0. -1.
          2   -1    0    0  501    0  0.00000000000E+00 -0.00000000000E+00 -0.21949297985E+04  0.21949297985E+04  0.00000000000E+00 0.  1.
         23    2    1    2    0    0 -0.24429512198E+03  0.83114697443E+03 -0.62018271321E+02  0.87268166517E+03  0.85097726364E+02 0.  0.
        254    2    1    2    0    0  0.24429512198E+03 -0.83114697443E+03 -0.15026145678E+04  0.19525450928E+04  0.89671422438E+03 0.  0.
         23    2    4    4    0    0  0.41986397567E+03 -0.88832566146E+03 -0.14280352374E+04  0.17356273441E+04  0.87803186517E+02 0.  0.
         23    2    4    4    0    0 -0.17556885370E+03  0.57178687033E+02 -0.74579330425E+02  0.21691774865E+03  0.86008188652E+02 0.  0.
         13    1    3    3    0    0 -0.18537596203E+03  0.66061959868E+03 -0.15275837776E+02  0.68630594685E+03  0.00000000000E+00 0. -1.
        -13    1    3    3    0    0 -0.58919159947E+02  0.17052737575E+03 -0.46742433545E+02  0.18637571833E+03  0.00000000000E+00 0.  1.
          2    1    5    5  502    0  0.10645111571E+03 -0.30578307420E+03 -0.42993267274E+03  0.53821671434E+03  0.00000000000E+00 0. -1.
          2    1    6    6  503    0 -0.45943895373E+02  0.44244473255E+02 -0.56861585996E+02  0.85449721460E+02  0.00000000000E+00 0. -1.
         -2    1    5    5    0  502  0.31341285996E+03 -0.58254258726E+03 -0.99810256464E+03  0.11974106298E+04  0.00000000000E+00 0.  1.
         -2    1    6    6    0  503 -0.12962495832E+03  0.12934213778E+02 -0.17717744429E+02  0.13146802719E+03  0.00000000000E+00 0.  1.
<mgrwt>
<rscale>  0 0.23524095E+04</rscale>
<asrwt>0</asrwt>
<pdfrwt beam="1">  1        2 0.33768150E+00 0.23524095E+04</pdfrwt>
<pdfrwt beam="2">  1       -2 0.96968764E-01 0.23524095E+04</pdfrwt>
<totfact> 0.41673776E+00</totfact>
</mgrwt>
</event>
<event>
12    1  0.1244543E-007  0.2785136E+04  0.7818608E-02  0.8307898E-01
         -2   -1    0    0    0  501 -0.00000000000E+00  0.00000000000E+00  0.82118642925E+03  0.82118642925E+03  0.00000000000E+00 0.  1.
          2   -1    0    0  501    0  0.00000000000E+00 -0.00000000000E+00 -0.23615160708E+04  0.23615160708E+04  0.00000000000E+00 0. -1.
         23    2    1    2    0    0  0.89992068264E+03 -0.39521249317E+03 -0.15548318683E+04  0.18418032255E+04  0.93203181448E+02 0.  0.
        254    2    1    2    0    0 -0.89992068264E+03  0.39521249317E+03  0.14502226774E+02  0.13408992745E+04  0.91200350876E+03 0.  0.
         23    2    4    4    0    0 -0.79012143927E+03  0.77939238357E+02  0.33599895920E+03  0.86711459653E+03  0.92876311619E+02 0.  0.
         23    2    4    4    0    0 -0.10979924337E+03  0.31727325481E+03 -0.32149673242E+03  0.47378467798E+03  0.91616483584E+02 0.  0.
         13    1    3    3    0    0  0.87670630340E+03 -0.36868658305E+03 -0.15130472963E+04  0.17871362175E+04  0.00000000000E+00 0. -1.
        -13    1    3    3    0    0  0.23214379241E+02 -0.26525910125E+02 -0.41784571973E+02  0.54667008025E+02  0.00000000000E+00 0.  1.
          1    1    5    5  502    0 -0.85112764912E+02 -0.17144126354E+02  0.51474684966E+02  0.10093436982E+03  0.00000000000E+00 0. -1.
          3    1    6    6  503    0 -0.15595609645E+02  0.51871179713E+01 -0.74670057043E+00  0.16452561952E+02  0.00000000000E+00 0. -1.
         -1    1    5    5    0  502 -0.70500867436E+03  0.95083364711E+02  0.28452427423E+03  0.76618022670E+03  0.00000000000E+00 0.  1.
         -3    1    6    6    0  503 -0.94203633726E+02  0.31208613684E+03 -0.32075003185E+03  0.45733211603E+03  0.00000000000E+00 0.  1.
<mgrwt>
<rscale>  0 0.27851355E+04</rscale>
<asrwt>0</asrwt>
<pdfrwt beam="1">  1        2 0.36331016E+00 0.27851355E+04</pdfrwt>
<pdfrwt beam="2">  1       -2 0.12633637E+00 0.27851355E+04</pdfrwt>
<totfact> 0.17007089E+00</totfact>
</mgrwt>
</event>
<event>
12    1  0.4672461E-008  0.1575562E+04  0.7818608E-02  0.8835703E-01
         -1   -1    0    0    0  501 -0.00000000000E+00  0.00000000000E+00  0.10237335730E+04  0.10237335730E+04  0.00000000000E+00 0.  1.
          1   -1    0    0  501    0  0.00000000000E+00 -0.00000000000E+00 -0.60621132962E+03  0.60621132962E+03  0.00000000000E+00 0. -1.
         23    2    1    2    0    0 -0.28857931648E+03 -0.29980472556E+03 -0.16167991431E+03  0.45546411568E+03  0.90256692896E+02 0.  0.
        254    2    1    2    0    0  0.28857931648E+03  0.29980472556E+03  0.57920215764E+03  0.11744807869E+04  0.93315008653E+03 0.  0.
         23    2    4    4    0    0  0.14752742381E+03 -0.30416148223E+03  0.50582443669E+02  0.35456323193E+03  0.94222894134E+02 0.  0.
         23    2    4    4    0    0  0.14105189267E+03  0.60396620779E+03  0.52861971397E+03  0.81991755497E+03  0.90306026199E+02 0.  0.
         13    1    3    3    0    0  0.17470361914E+01 -0.13657138723E+02 -0.19232132850E+02  0.23652579300E+02  0.00000000000E+00 0.  1.
        -13    1    3    3    0    0 -0.29032635267E+03 -0.28614758684E+03 -0.14244778146E+03  0.43181153638E+03  0.00000000000E+00 0. -1.
          2    1    5    5  502    0  0.12637398215E+03 -0.20146925123E+03  0.70043702256E+02  0.24792410690E+03  0.00000000000E+00 0. -1.
          1    1    6    6  503    0  0.14819656416E+03  0.55336352762E+03  0.46195490848E+03  0.73591830579E+03  0.00000000000E+00 0. -1.
         -2    1    5    5    0  502  0.21153441667E+02 -0.10269223099E+03 -0.19461258587E+02  0.10663912503E+03  0.00000000000E+00 0.  1.
         -1    1    6    6    0  503 -0.71446714899E+01  0.50602680170E+02  0.66664805497E+02  0.83999249182E+02  0.00000000000E+00 0.  1.
<mgrwt>
<rscale>  0 0.15755620E+04</rscale>
<asrwt>0</asrwt>
<pdfrwt beam="1">  1        1 0.93263282E-01 0.15755620E+04</pdfrwt>
<pdfrwt beam="2">  1       -1 0.15749747E+00 0.15755620E+04</pdfrwt>
<totfact> 0.99055385E+00</totfact>
</mgrwt>
</event>
<event>
12    1  0.4672461E-008  0.1091853E+04  0.7818608E-02  0.9213169E-01
          2   -1    0    0  501    0  0.00000000000E+00  0.00000000000E+00  0.17204033165E+04  0.17204033165E+04  0.00000000000E+00 0.  1.
         -2   -1    0    0    0  501 -0.00000000000E+00 -0.00000000000E+00 -0.17323590953E+03  0.17323590953E+03  0.00000000000E+00 0. -1.
         23    2    1    2    0    0 -0.11816086440E+03  0.97389031486E+02  0.25231177141E+03  0.30816003506E+03  0.88627105842E+02 0.  0.
        254    2    1    2    0    0  0.11816086440E+03 -0.97389031486E+02  0.12948556356E+04  0.15854791910E+04  0.90202357769E+03 0.  0.
         23    2    4    4    0    0 -0.11757607488E+02  0.26933268729E+03  0.64641239881E+02  0.29188359287E+03  0.91319242886E+02 0.  0.
         23    2    4    4    0    0  0.12991847189E+03 -0.36672171877E+03  0.12302143957E+04  0.12935955981E+04  0.92728009321E+02 0.  0.
         11    1    3    3    0    0  0.11954802115E+01 -0.35124509134E+01  0.61046381998E+02  0.61159032362E+02  0.00000000000E+00 0.  1.
        -11    1    3    3    0    0 -0.11935634462E+03  0.10090148240E+03  0.19126538941E+03  0.24700100270E+03  0.00000000000E+00 0. -1.
          1    1    5    5  502    0 -0.23646830788E+02  0.27141055463E+03  0.63638199251E+02  0.27977255436E+03  0.00000000000E+00 0. -1.
          3    1    6    6  503    0  0.86050198632E+02 -0.33484217886E+03  0.10620733262E+04  0.11169259920E+04  0.00000000000E+00 0. -1.
         -1    1    5    5    0  502  0.11889223300E+02 -0.20778673422E+01  0.10030406304E+01  0.12111038513E+02  0.00000000000E+00 0.  1.
         -3    1    6    6    0  503  0.43868273262E+02 -0.31879539912E+02  0.16814106946E+03  0.17666960606E+03  0.00000000000E+00 0.  1.
<mgrwt>
<rscale>  0 0.10918528E+04</rscale>
<asrwt>0</asrwt>
<pdfrwt beam="1">  1        2 0.26467742E+00 0.10918528E+04</pdfrwt>
<pdfrwt beam="2">  1       -2 0.26651680E-01 0.10918528E+04</pdfrwt>
<totfact> 0.12116076E+02</totfact>
</mgrwt>
</event>
<event>
12    1  0.4672461E-008  0.1569338E+04  0.7818608E-02  0.8839609E-01
         -1   -1    0    0    0  501 -0.00000000000E+00  0.00000000000E+00  0.49353744074E+03  0.49353744074E+03  0.00000000000E+00 0.  1.
          1   -1    0    0  501    0  0.00000000000E+00 -0.00000000000E+00 -0.12475358653E+04  0.12475358653E+04  0.00000000000E+00 0. -1.
         23    2    1    2    0    0 -0.40257056395E+03  0.20812916779E+03 -0.52523702708E+03  0.69982234414E+03  0.92176837063E+02 0.  0.
        254    2    1    2    0    0  0.40257056395E+03 -0.20812916779E+03 -0.22876139745E+03  0.10412509619E+04  0.90911549276E+03 0.  0.
         23    2    4    4    0    0  0.33989627897E+03 -0.40140998561E+03 -0.47205724234E+03  0.71226723242E+03  0.88470974513E+02 0.  0.
         23    2    4    4    0    0  0.62674284985E+02  0.19328081782E+03  0.24329584489E+03  0.32898372945E+03  0.88044792969E+02 0.  0.
         11    1    3    3    0    0 -0.15013809365E+03  0.12860151129E+03 -0.23245206869E+03  0.30514547369E+03  0.00000000000E+00 0.  1.
        -11    1    3    3    0    0 -0.25243247030E+03  0.79527656496E+02 -0.29278495839E+03  0.39467687045E+03  0.00000000000E+00 0. -1.
          4    1    5    5  502    0  0.19455403337E+03 -0.26436990652E+03 -0.34123695504E+03  0.47348218431E+03  0.00000000000E+00 0. -1.
          3    1    6    6  503    0  0.37439604876E+02  0.39154788048E+02  0.22791450228E+02  0.58773052021E+02  0.00000000000E+00 0. -1.
         -4    1    5    5    0  502  0.14534224559E+03 -0.13704007908E+03 -0.13082028730E+03  0.23878504810E+03  0.00000000000E+00 0.  1.
         -3    1    6    6    0  503  0.25234680108E+02  0.15412602977E+03  0.22050439466E+03  0.27021067743E+03  0.00000000000E+00 0.  1.
<mgrwt>
<rscale>  0 0.15693383E+04</rscale>
<asrwt>0</asrwt>
<pdfrwt beam="1">  1        1 0.19192859E+00 0.15693383E+04</pdfrwt>
<pdfrwt beam="2">  1       -1 0.75928838E-01 0.15693383E+04</pdfrwt>
<totfact> 0.16538331E+01</totfact>
</mgrwt>
</event>
<event>
12    1  0.4672461E-008  0.1754998E+04  0.7818608E-02  0.8730604E-01
         -1   -1    0    0    0  501 -0.00000000000E+00  0.00000000000E+00  0.89599464520E+03  0.89599464520E+03  0.00000000000E+00 0.  1.
          1   -1    0    0  501    0  0.00000000000E+00 -0.00000000000E+00 -0.85938478877E+03  0.85938478877E+03  0.00000000000E+00 0. -1.
         23    2    1    2    0    0 -0.37977648755E+03 -0.23416520044E+03 -0.44405278250E+03  0.63655355709E+03  0.94625767151E+02 0.  0.
        254    2    1    2    0    0  0.37977648755E+03  0.23416520044E+03  0.48066263893E+03  0.11188258769E+04  0.90646083683E+03 0.  0.
         23    2    4    4    0    0  0.35867141121E+02  0.38926213296E+03  0.59184459066E+03  0.71505151124E+03  0.90593511164E+02 0.  0.
         23    2    4    4    0    0  0.34390934643E+03 -0.15509693252E+03 -0.11118195173E+03  0.40377436564E+03  0.91343390144E+02 0.  0.
         11    1    3    3    0    0 -0.13086180463E+02 -0.58265939761E+01 -0.49437733827E+02  0.51471223440E+02  0.00000000000E+00 0.  1.
        -11    1    3    3    0    0 -0.36669030708E+03 -0.22833860647E+03 -0.39461504867E+03  0.58508233365E+03  0.00000000000E+00 0. -1.
          4    1    5    5  502    0  0.46072346844E+02  0.84129152141E+02  0.14629913302E+03  0.17493945154E+03  0.00000000000E+00 0. -1.
          1    1    6    6  503    0  0.61391630006E+02 -0.53362938574E+02 -0.55253680713E+02  0.98333639617E+02  0.00000000000E+00 0. -1.
         -4    1    5    5    0  502 -0.10205205723E+02  0.30513298082E+03  0.44554545763E+03  0.54011205969E+03  0.00000000000E+00 0.  1.
         -1    1    6    6    0  503  0.28251771642E+03 -0.10173399394E+03 -0.55928271012E+02  0.30544072602E+03  0.00000000000E+00 0.  1.
<mgrwt>
<rscale>  0 0.17549976E+04</rscale>
<asrwt>0</asrwt>
<pdfrwt beam="1">  1        1 0.13221304E+00 0.17549976E+04</pdfrwt>
<pdfrwt beam="2">  1       -1 0.13784533E+00 0.17549976E+04</pdfrwt>
<totfact> 0.81320752E+00</totfact>
</mgrwt>
</event>
<event>
12    1  0.4672461E-008  0.1309061E+04  0.7818608E-02  0.9022411E-01
          1   -1    0    0  501    0  0.00000000000E+00  0.00000000000E+00  0.21432716183E+03  0.21432716183E+03  0.00000000000E+00 0. -1.
         -1   -1    0    0    0  501 -0.00000000000E+00 -0.00000000000E+00 -0.19988602170E+04  0.19988602170E+04  0.00000000000E+00 0.  1.
         23    2    1    2    0    0 -0.30068468855E+03 -0.13470651589E+02 -0.21622464904E+03  0.38173548501E+03  0.91521261326E+02 0.  0.
        254    2    1    2    0    0  0.30068468855E+03  0.13470651589E+02 -0.15683084061E+04  0.18314518938E+04  0.89667833823E+03 0.  0.
         23    2    4    4    0    0  0.18148807679E+03 -0.38591726399E+03 -0.41479403877E+03  0.60177414110E+03  0.90597823560E+02 0.  0.
         23    2    4    4    0    0  0.11919661177E+03  0.39938791558E+03 -0.11535143673E+04  0.12296777527E+04  0.88280464837E+02 0.  0.
         11    1    3    3    0    0 -0.21951844989E+03 -0.53003347364E+01 -0.10392524546E+03  0.24293394171E+03  0.00000000000E+00 0. -1.
        -11    1    3    3    0    0 -0.81166238659E+02 -0.81703168529E+01 -0.11229940358E+03  0.13880154329E+03  0.00000000000E+00 0.  1.
          1    1    5    5  502    0  0.60049772389E+02 -0.10395993761E+03 -0.65568780204E+02  0.13679513416E+03  0.00000000000E+00 0. -1.
          3    1    6    6  503    0  0.41292033536E+01  0.12753217938E+03 -0.42114378212E+03  0.44004953393E+03  0.00000000000E+00 0. -1.
         -1    1    5    5    0  502  0.12143830440E+03 -0.28195732638E+03 -0.34922525857E+03  0.46497900694E+03  0.00000000000E+00 0.  1.
         -3    1    6    6    0  503  0.11506740841E+03  0.27185573620E+03 -0.73237058521E+03  0.78962821876E+03  0.00000000000E+00 0.  1.
<mgrwt>
<rscale>  0 0.13090608E+04</rscale>
<asrwt>0</asrwt>
<pdfrwt beam="1">  1        1 0.32973411E-01 0.13090608E+04</pdfrwt>
<pdfrwt beam="2">  1       -1 0.30751695E+00 0.13090608E+04</pdfrwt>
<totfact> 0.39593947E+00</totfact>
</mgrwt>
</event>
<event>
12    1  0.4672461E-008  0.1783084E+04  0.7818608E-02  0.8715347E-01
         -2   -1    0    0    0  501 -0.00000000000E+00  0.00000000000E+00  0.58667360057E+03  0.58667360057E+03  0.00000000000E+00 0.  1.
          2   -1    0    0  501    0  0.00000000000E+00 -0.00000000000E+00 -0.13548367282E+04  0.13548367282E+04  0.00000000000E+00 0. -1.
         23    2    1    2    0    0 -0.53755914994E+03 -0.76280163264E+02  0.12324531239E+03  0.56438322252E+03  0.92468977695E+02 0.  0.
        254    2    1    2    0    0  0.53755914994E+03  0.76280163264E+02 -0.89140844002E+03  0.13771271063E+04  0.89837717963E+03 0.  0.
         23    2    4    4    0    0  0.46227980830E+03 -0.35021870020E+03 -0.37211334879E+03  0.69494495908E+03  0.90135412956E+02 0.  0.
         23    2    4    4    0    0  0.75279341647E+02  0.42649886346E+03 -0.51929509123E+03  0.68218214719E+03  0.90204381017E+02 0.  0.
         13    1    3    3    0    0 -0.28531727926E+03 -0.50844012118E+02  0.11172051147E+03  0.31060028347E+03  0.00000000000E+00 0.  1.
        -13    1    3    3    0    0 -0.25224187069E+03 -0.25436151146E+02  0.11524800917E+02  0.25378293904E+03  0.00000000000E+00 0. -1.
          2    1    5    5  502    0  0.33098773298E+03 -0.24741321182E+03 -0.31159558679E+03  0.51754998452E+03  0.00000000000E+00 0. -1.
          1    1    6    6  503    0 -0.11757464637E+02  0.18846657495E+03 -0.21431570378E+03  0.28563807298E+03  0.00000000000E+00 0. -1.
         -2    1    5    5    0  502  0.13129207532E+03 -0.10280548837E+03 -0.60517762006E+02  0.17739497456E+03  0.00000000000E+00 0.  1.
         -1    1    6    6    0  503  0.87036806284E+02  0.23803228852E+03 -0.30497938745E+03  0.39654407421E+03  0.00000000000E+00 0.  1.
<mgrwt>
<rscale>  0 0.17830838E+04</rscale>
<asrwt>0</asrwt>
<pdfrwt beam="1">  1        2 0.20843642E+00 0.17830838E+04</pdfrwt>
<pdfrwt beam="2">  1       -2 0.90257478E-01 0.17830838E+04</pdfrwt>
<totfact> 0.15248660E+01</totfact>
</mgrwt>
</event>
<event>
12    1  0.4672461E-008  0.2238144E+04  0.7818608E-02  0.8502717E-01
          2   -1    0    0  501    0  0.00000000000E+00  0.00000000000E+00  0.33677116545E+04  0.33677116545E+04  0.00000000000E+00 0. -1.
         -2   -1    0    0    0  501 -0.00000000000E+00 -0.00000000000E+00 -0.37186150698E+03  0.37186150698E+03  0.00000000000E+00 0.  1.
         23    2    1    2    0    0  0.28869076533E+03 -0.37492476715E+03 -0.84551776388E+02  0.48937939763E+03  0.91827299437E+02 0.  0.
        254    2    1    2    0    0 -0.28869076533E+03  0.37492476715E+03  0.30804019239E+04  0.32501937639E+04  0.92248173467E+03 0.  0.
         23    2    4    4    0    0 -0.14107296395E+03  0.64334190379E+03  0.25000331375E+04  0.25869468954E+04  0.91313549068E+02 0.  0.
         23    2    4    4    0    0 -0.14761780138E+03 -0.26841713664E+03  0.58036878639E+03  0.66324686852E+03  0.96071358203E+02 0.  0.
         11    1    3    3    0    0  0.70095884763E+01 -0.48569829925E+02  0.41326398228E+01  0.49246740211E+02  0.00000000000E+00 0. -1.
        -11    1    3    3    0    0  0.28168117686E+03 -0.32635493723E+03 -0.88684416210E+02  0.44013265742E+03  0.00000000000E+00 0.  1.
          1    1    5    5  502    0 -0.12132121793E+03  0.34396943813E+03  0.13428699272E+04  0.13915219918E+04  0.00000000000E+00 0. -1.
          3    1    6    6  503    0 -0.13527858866E+02 -0.10262089945E+03  0.14149400736E+03  0.17531288055E+03  0.00000000000E+00 0. -1.
         -1    1    5    5    0  502 -0.19751746025E+02  0.29937246566E+03  0.11571632103E+04  0.11954249036E+04  0.00000000000E+00 0.  1.
         -3    1    6    6    0  503 -0.13408994251E+03 -0.16579623719E+03  0.43887477903E+03  0.48793398797E+03  0.00000000000E+00 0.  1.
<mgrwt>
<rscale>  0 0.22381442E+04</rscale>
<asrwt>0</asrwt>
<pdfrwt beam="1">  1        2 0.51810946E+00 0.22381442E+04</pdfrwt>
<pdfrwt beam="2">  1       -2 0.57209465E-01 0.22381442E+04</pdfrwt>
<totfact> 0.26231611E+00</totfact>
</mgrwt>
</event>
<event>
12    1  0.4672461E-008  0.2603816E+04  0.7818608E-02  0.8366906E-01
         -1   -1    0    0    0  501 -0.00000000000E+00  0.00000000000E+00  0.10609108430E+04  0.10609108430E+04  0.00000000000E+00 0. -1.
          1   -1    0    0  501    0  0.00000000000E+00 -0.00000000000E+00 -0.15976499606E+04  0.15976499606E+04  0.00000000000E+00 0.  1.
         23    2    1    2    0    0  0.10604566984E+04  0.20680730788E+03 -0.61968164140E+03  0.12485896297E+04  0.87367355872E+02 0.  0.
        254    2    1    2    0    0 -0.10604566984E+04 -0.20680730788E+03  0.82942523791E+02  0.14099711739E+04  0.90210951506E+03 0.  0.
         23    2    4    4    0    0 -0.62218348667E+03 -0.46849817293E+03 -0.21375055511E+03  0.81276283285E+03  0.91056540248E+02 0.  0.
         23    2    4    4    0    0 -0.43827321170E+03  0.26169086505E+03  0.29669307890E+03  0.59720834102E+03  0.89808143116E+02 0.  0.
         11    1    3    3    0    0  0.49189450450E+03  0.72668041817E+02 -0.32775800234E+03  0.59553854280E+03  0.00000000000E+00 0.  1.
        -11    1    3    3    0    0  0.56856219387E+03  0.13413926607E+03 -0.29192363906E+03  0.65305108685E+03  0.00000000000E+00 0. -1.
          4    1    5    5  502    0 -0.47445817678E+02 -0.23638506307E+02  0.63232247953E+01  0.53384152774E+02  0.00000000000E+00 0. -1.
          3    1    6    6  503    0 -0.46126189075E+02  0.54167261431E+02  0.18426822164E+02  0.73493301086E+02  0.00000000000E+00 0. -1.
         -4    1    5    5    0  502 -0.57473766899E+03 -0.44485966663E+03 -0.22007377990E+03  0.75937868007E+03  0.00000000000E+00 0.  1.
         -3    1    6    6    0  503 -0.39214702262E+03  0.20752360362E+03  0.27826625673E+03  0.52371503993E+03  0.00000000000E+00 0.  1.
<mgrwt>
<rscale>  0 0.26038158E+04</rscale>
<asrwt>0</asrwt>
<pdfrwt beam="1">  1        1 0.24579230E+00 0.26038158E+04</pdfrwt>
<pdfrwt beam="2">  1       -1 0.16321705E+00 0.26038158E+04</pdfrwt>
<totfact> 0.13628315E+00</totfact>
</mgrwt>
</event>
<event>
12    1  0.4672461E-008  0.2812785E+04  0.7818608E-02  0.8299310E-01
          1   -1    0    0  501    0  0.00000000000E+00  0.00000000000E+00  0.28086195700E+04  0.28086195700E+04  0.00000000000E+00 0. -1.
         -1   -1    0    0    0  501 -0.00000000000E+00 -0.00000000000E+00 -0.70423939745E+03  0.70423939745E+03  0.00000000000E+00 0.  1.
         23    2    1    2    0    0 -0.11776738098E+03  0.59481668882E+03 -0.43559965446E+03  0.75204611199E+03  0.90278714358E+02 0.  0.
        254    2    1    2    0    0  0.11776738098E+03 -0.59481668882E+03  0.25399798270E+04  0.27608128555E+04  0.89605471482E+03 0.  0.
         23    2    4    4    0    0  0.32303421621E+03 -0.58652912098E+03  0.24061101143E+04  0.24992786452E+04  0.93060998755E+02 0.  0.
         23    2    4    4    0    0 -0.20526683523E+03 -0.82875678388E+01  0.13386971271E+03  0.26153421029E+03  0.90971895345E+02 0.  0.
         13    1    3    3    0    0 -0.19546990456E+02  0.22937589174E+02 -0.77697219927E+01  0.31122120957E+02  0.00000000000E+00 0. -1.
        -13    1    3    3    0    0 -0.98220390520E+02  0.57187909964E+03 -0.42782993247E+03  0.72092399103E+03  0.00000000000E+00 0.  1.
          4    1    5    5  502    0  0.19610240905E+03 -0.43494936371E+03  0.16311070504E+04  0.16994550049E+04  0.00000000000E+00 0.  1.
          4    1    6    6  503    0 -0.18452880978E+03 -0.28897260374E+02  0.13769577458E+03  0.23204753744E+03  0.00000000000E+00 0. -1.
         -4    1    5    5    0  502  0.12693180715E+03 -0.15157975727E+03  0.77500306386E+03  0.79982364023E+03  0.00000000000E+00 0. -1.
         -4    1    6    6    0  503 -0.20738025454E+02  0.20609692535E+02 -0.38260618701E+01  0.29486672846E+02  0.00000000000E+00 0.  1.
<mgrwt>
<rscale>  0 0.28127855E+04</rscale>
<asrwt>0</asrwt>
<pdfrwt beam="1">  1        1 0.43209531E+00 0.28127855E+04</pdfrwt>
<pdfrwt beam="2">  1       -1 0.10834452E+00 0.28127855E+04</pdfrwt>
<totfact> 0.56173824E-01</totfact>
</mgrwt>
</event>
<event>
12    1  0.4672461E-008  0.1696965E+04  0.7818608E-02  0.8763097E-01
         -2   -1    0    0    0  501 -0.00000000000E+00  0.00000000000E+00  0.32146594637E+03  0.32146594637E+03  0.00000000000E+00 0.  1.
          2   -1    0    0  501    0  0.00000000000E+00 -0.00000000000E+00 -0.22394974486E+04  0.22394974486E+04  0.00000000000E+00 0. -1.
         23    2    1    2    0    0 -0.13322309103E+03 -0.45463285001E+03 -0.12573926487E+04  0.13468262301E+04  0.92006525651E+02 0.  0.
        254    2    1    2    0    0  0.13322309103E+03  0.45463285001E+03 -0.66063885359E+03  0.12141371649E+04  0.90180149708E+03 0.  0.
         23    2    4    4    0    0  0.33729710644E+03 -0.60869058920E+02 -0.53062097710E+03  0.63755304953E+03  0.86260589349E+02 0.  0.
         23    2    4    4    0    0 -0.20407401541E+03  0.51550190893E+03 -0.13001787649E+03  0.57658411541E+03  0.90311527850E+02 0.  0.
         13    1    3    3    0    0 -0.13867710012E+03 -0.34787840400E+03 -0.93682177336E+03  0.10089032447E+04  0.00000000000E+00 0. -1.
        -13    1    3    3    0    0  0.54540090903E+01 -0.10675444600E+03 -0.32057087532E+03  0.33792298540E+03  0.00000000000E+00 0.  1.
          1    1    6    6  502    0 -0.12365145964E+03  0.40846057038E+03 -0.11408823127E+03  0.44175315001E+03  0.00000000000E+00 0. -1.
          1    1    5    5  503    0  0.33145975099E+03 -0.43405560497E+02 -0.49274824264E+03  0.59544138237E+03  0.00000000000E+00 0. -1.
         -1    1    5    5    0  503  0.58373554571E+01 -0.17463498423E+02 -0.37872734458E+02  0.42111667163E+02  0.00000000000E+00 0.  1.
         -1    1    6    6    0  502 -0.80422555772E+02  0.10704133855E+03 -0.15929645220E+02  0.13483096540E+03  0.00000000000E+00 0.  1.
<mgrwt>
<rscale>  0 0.16969645E+04</rscale>
<asrwt>0</asrwt>
<pdfrwt beam="1">  1        2 0.34453805E+00 0.16969645E+04</pdfrwt>
<pdfrwt beam="2">  1       -2 0.49456301E-01 0.16969645E+04</pdfrwt>
<totfact> 0.18079397E+01</totfact>
</mgrwt>
</event>
<event>
12    1  0.4672461E-008  0.1222211E+04  0.7818608E-02  0.9093634E-01
          2   -1    0    0  501    0  0.00000000000E+00  0.00000000000E+00  0.23810259532E+04  0.23810259532E+04  0.00000000000E+00 0. -1.
         -2   -1    0    0    0  501 -0.00000000000E+00 -0.00000000000E+00 -0.15684422531E+03  0.15684422531E+03  0.00000000000E+00 0.  1.
         23    2    1    2    0    0  0.97843091259E+01  0.55232062433E+00 -0.53020091722E+02  0.10537346467E+03  0.90533966920E+02 0.  0.
        254    2    1    2    0    0 -0.97843091259E+01 -0.55232062433E+00  0.22772018196E+04  0.24324967138E+04  0.85515852206E+03 0.  0.
         23    2    4    4    0    0  0.18678023339E+03  0.35765076425E+03  0.14130484156E+04  0.14723070569E+04  0.90450650349E+02 0.  0.
         23    2    4    4    0    0 -0.19656454252E+03 -0.35820308487E+03  0.86415340398E+03  0.96018965694E+03  0.90862546137E+02 0.  0.
         13    1    3    3    0    0  0.37362193695E+02 -0.27284106703E+02 -0.46602844840E+02  0.65667199906E+02  0.00000000000E+00 0.  1.
        -13    1    3    3    0    0 -0.27577884569E+02  0.27836427327E+02 -0.64172468822E+01  0.39706264760E+02  0.00000000000E+00 0. -1.
          2    1    5    5  502    0  0.99171002924E+02  0.12466222821E+03  0.44079968347E+03  0.46870024527E+03  0.00000000000E+00 0. -1.
          4    1    6    6  503    0 -0.19591115343E+03 -0.32214337986E+03  0.82431802501E+03  0.90645338743E+03  0.00000000000E+00 0. -1.
         -2    1    5    5    0  502  0.87609230466E+02  0.23298853604E+03  0.97224873216E+03  0.10036068116E+04  0.00000000000E+00 0.  1.
         -4    1    6    6    0  503 -0.65338908994E+00 -0.36059705014E+02  0.39835378971E+02  0.53736269509E+02  0.00000000000E+00 0.  1.
<mgrwt>
<rscale>  0 0.12222114E+04</rscale>
<asrwt>0</asrwt>
<pdfrwt beam="1">  1        2 0.36631166E+00 0.12222114E+04</pdfrwt>
<pdfrwt beam="2">  1       -2 0.24129882E-01 0.12222114E+04</pdfrwt>
<totfact> 0.61719037E+01</totfact>
</mgrwt>
</event>
<event>
12    1  0.4672461E-008  0.2098659E+04  0.7818608E-02  0.8561834E-01
         -1   -1    0    0    0  501 -0.00000000000E+00  0.00000000000E+00  0.49613152801E+03  0.49613152801E+03  0.00000000000E+00 0.  1.
          1   -1    0    0  501    0  0.00000000000E+00 -0.00000000000E+00 -0.22193557907E+04  0.22193557907E+04  0.00000000000E+00 0. -1.
         23    2    1    2    0    0  0.24429753486E+03  0.64425575088E+03 -0.13577725638E+04  0.15253165041E+04  0.91089760858E+02 0.  0.
        254    2    1    2    0    0 -0.24429753486E+03 -0.64425575088E+03 -0.36545169885E+03  0.11901708146E+04  0.89900214995E+03 0.  0.
         23    2    4    4    0    0  0.24779405013E+03  0.95883227420E+01  0.46122848601E+02  0.26948616902E+03  0.94877030484E+02 0.  0.
         23    2    4    4    0    0 -0.49209158499E+03 -0.65384407362E+03 -0.41157454745E+03  0.92068464557E+03  0.92738383901E+02 0.  0.
         13    1    3    3    0    0  0.13342516139E+03  0.38842511338E+03 -0.90061137615E+03  0.98983695286E+03  0.00000000000E+00 0.  1.
        -13    1    3    3    0    0  0.11087237347E+03  0.25583063750E+03 -0.45716118764E+03  0.53547955121E+03  0.00000000000E+00 0. -1.
          4    1    5    5  502    0  0.58801655626E+02  0.40762825510E+01  0.54431196866E+02  0.80230953977E+02  0.00000000000E+00 0. -1.
          3    1    6    6  503    0 -0.54425844275E+02 -0.96341561867E+02 -0.25381241412E+02  0.11352566443E+03  0.00000000000E+00 0. -1.
         -4    1    5    5    0  502  0.18899239451E+03  0.55120401910E+01 -0.83083482647E+01  0.18925521504E+03  0.00000000000E+00 0.  1.
         -3    1    6    6    0  503 -0.43766574071E+03 -0.55750251176E+03 -0.38619330604E+03  0.80715898114E+03  0.00000000000E+00 0.  1.
<mgrwt>
<rscale>  0 0.20986590E+04</rscale>
<asrwt>0</asrwt>
<pdfrwt beam="1">  1        1 0.34143935E+00 0.20986590E+04</pdfrwt>
<pdfrwt beam="2">  1       -1 0.76327927E-01 0.20986590E+04</pdfrwt>
<totfact> 0.33493351E+00</totfact>
</mgrwt>
</event>
<event>
12    1  0.4672461E-008  0.1131064E+04  0.7818608E-02  0.9175433E-01
         -2   -1    0    0    0  501 -0.00000000000E+00  0.00000000000E+00  0.18733782656E+03  0.18733782656E+03  0.00000000000E+00 0.  1.
          2   -1    0    0  501    0  0.00000000000E+00 -0.00000000000E+00 -0.17072175274E+04  0.17072175274E+04  0.00000000000E+00 0. -1.
         23    2    1    2    0    0 -0.11117813068E+03  0.31678463090E+02 -0.54480457026E+03  0.56411039566E+03  0.89690673718E+02 0.  0.
        254    2    1    2    0    0  0.11117813068E+03 -0.31678463090E+02 -0.97507513062E+03  0.13304449583E+04  0.89774616404E+03 0.  0.
         23    2    4    4    0    0  0.23689688923E+02 -0.43689181135E+03 -0.67903586236E+03  0.81299519863E+03  0.91846798787E+02 0.  0.
         23    2    4    4    0    0  0.87488441761E+02  0.40521334826E+03 -0.29603926826E+03  0.51744975970E+03  0.90900607325E+02 0.  0.
         11    1    3    3    0    0 -0.43800086956E+02  0.31685556914E+02 -0.95140871793E+02  0.10942672260E+03  0.00000000000E+00 0.  1.
        -11    1    3    3    0    0 -0.67378043729E+02 -0.70938243333E-02 -0.44966369847E+03  0.45468367306E+03  0.00000000000E+00 0. -1.
          2    1    5    5  502    0  0.48176400863E+02 -0.36118693278E+03 -0.59124829193E+03  0.69451530489E+03  0.00000000000E+00 0. -1.
          4    1    6    6  503    0  0.49934853213E+02  0.25429599197E+03 -0.12992617226E+03  0.28989782913E+03  0.00000000000E+00 0. -1.
         -2    1    5    5    0  502 -0.24486711939E+02 -0.75704878567E+02 -0.87787570429E+02  0.11847989375E+03  0.00000000000E+00 0.  1.
         -4    1    6    6    0  503  0.37553588548E+02  0.15091735629E+03 -0.16611309600E+03  0.22755193057E+03  0.00000000000E+00 0.  1.
<mgrwt>
<rscale>  0 0.11310640E+04</rscale>
<asrwt>0</asrwt>
<pdfrwt beam="1">  1        2 0.26264884E+00 0.11310640E+04</pdfrwt>
<pdfrwt beam="2">  1       -2 0.28821205E-01 0.11310640E+04</pdfrwt>
<totfact> 0.10639194E+02</totfact>
</mgrwt>
</event>
<event>
12    1  0.4672461E-008  0.1647742E+04  0.7818608E-02  0.8791744E-01
          1   -1    0    0  501    0  0.00000000000E+00  0.00000000000E+00  0.13650770015E+04  0.13650770015E+04  0.00000000000E+00 0. -1.
         -1   -1    0    0    0  501 -0.00000000000E+00 -0.00000000000E+00 -0.49723439359E+03  0.49723439359E+03  0.00000000000E+00 0.  1.
         23    2    1    2    0    0  0.27973402544E+03 -0.46848037510E+03  0.11595245945E+03  0.56504921565E+03  0.90059182854E+02 0.  0.
        254    2    1    2    0    0 -0.27973402544E+03  0.46848037510E+03  0.75189014850E+03  0.12972621795E+04  0.90544209094E+03 0.  0.
         23    2    4    4    0    0  0.11533362519E+02  0.63711597890E+03  0.68906074208E+03  0.94284998869E+03  0.90064453970E+02 0.  0.
         23    2    4    4    0    0 -0.29126738796E+03 -0.16863560380E+03  0.62829406415E+02  0.35441219079E+03  0.91574060238E+02 0.  0.
         13    1    3    3    0    0  0.74542842895E+02 -0.75716820826E+02 -0.27673561655E+01  0.10628890179E+03  0.00000000000E+00 0. -1.
        -13    1    3    3    0    0  0.20519118254E+03 -0.39276355427E+03  0.11871981562E+03  0.45876031386E+03  0.00000000000E+00 0.  1.
          1    1    6    6  502    0 -0.17514965950E+03 -0.13200694343E+03  0.44199100011E+01  0.21936903141E+03  0.00000000000E+00 0. -1.
          1    1    5    5  503    0 -0.37422040224E+02  0.19025801979E+03  0.21601360255E+03  0.29027641942E+03  0.00000000000E+00 0. -1.
         -1    1    5    5    0  503  0.48955402743E+02  0.44685795911E+03  0.47304713954E+03  0.65257356926E+03  0.00000000000E+00 0.  1.
         -1    1    6    6    0  502 -0.11611772846E+03 -0.36628660372E+02  0.58409496414E+02  0.13504315938E+03  0.00000000000E+00 0.  1.
<mgrwt>
<rscale>  0 0.16477418E+04</rscale>
<asrwt>0</asrwt>
<pdfrwt beam="1">  1        1 0.21001184E+00 0.16477418E+04</pdfrwt>
<pdfrwt beam="2">  1       -1 0.76497600E-01 0.16477418E+04</pdfrwt>
<totfact> 0.13329269E+01</totfact>
</mgrwt>
</event>
<event>
12    1  0.4672461E-008  0.1855896E+04  0.7818608E-02  0.8677127E-01
          1   -1    0    0  501    0  0.00000000000E+00  0.00000000000E+00  0.12693452091E+04  0.12693452091E+04  0.00000000000E+00 0. -1.
         -1   -1    0    0    0  501 -0.00000000000E+00 -0.00000000000E+00 -0.67837112812E+03  0.67837112812E+03  0.00000000000E+00 0.  1.
         23    2    1    2    0    0 -0.52529100997E+03  0.46960561494E+03  0.15431845651E+03  0.72939075000E+03  0.10833559625E+03 0.  0.
        254    2    1    2    0    0  0.52529100997E+03 -0.46960561494E+03  0.43665562450E+03  0.12183255873E+04  0.89285442454E+03 0.  0.
         23    2    4    4    0    0  0.15486787250E+03 -0.67742824767E+03  0.22890668422E+03  0.73692173433E+03  0.88103823862E+02 0.  0.
         23    2    4    4    0    0  0.37042313748E+03  0.20782263273E+03  0.20774894027E+03  0.48140385293E+03  0.90479279277E+02 0.  0.
         13    1    3    3    0    0 -0.49590087070E+03  0.43615799825E+03  0.17040581096E+03  0.68204810197E+03  0.00000000000E+00 0. -1.
        -13    1    3    3    0    0 -0.29390139279E+02  0.33447616692E+02 -0.16087354443E+02  0.47342648027E+02  0.00000000000E+00 0.  1.
          4    1    5    5  502    0  0.41440532367E+02 -0.25004430484E+03  0.12544145184E+03  0.28279856779E+03  0.00000000000E+00 0. -1.
          3    1    6    6  503    0  0.17570161976E+03  0.14175148551E+03  0.80960166455E+02  0.23983138114E+03  0.00000000000E+00 0. -1.
         -4    1    5    5    0  502  0.11342734013E+03 -0.42738394283E+03  0.10346523239E+03  0.45412316654E+03  0.00000000000E+00 0.  1.
         -3    1    6    6    0  503  0.19472151772E+03  0.66071147219E+02  0.12678877382E+03  0.24157247179E+03  0.00000000000E+00 0.  1.
<mgrwt>
<rscale>  0 0.18558956E+04</rscale>
<asrwt>0</asrwt>
<pdfrwt beam="1">  1        1 0.19528388E+00 0.18558956E+04</pdfrwt>
<pdfrwt beam="2">  1       -1 0.10436479E+00 0.18558956E+04</pdfrwt>
<totfact> 0.77171669E+00</totfact>
</mgrwt>
</event>
<event>
12    1  0.4672461E-008  0.1111331E+04  0.7818608E-02  0.9194218E-01
         -1   -1    0    0    0  501 -0.00000000000E+00  0.00000000000E+00  0.77758424074E+02  0.77758424074E+02  0.00000000000E+00 0.  1.
          1   -1    0    0  501    0  0.00000000000E+00 -0.00000000000E+00 -0.39708138737E+04  0.39708138737E+04  0.00000000000E+00 0. -1.
         23    2    1    2    0    0 -0.11556524423E+02 -0.25876822532E+03 -0.10625119473E+04  0.10973025544E+04  0.89703456349E+02 0.  0.
        254    2    1    2    0    0  0.11556524423E+02  0.25876822532E+03 -0.28305435024E+04  0.29512697434E+04  0.79430600640E+03 0.  0.
         23    2    4    4    0    0 -0.56523672607E+02 -0.10530340153E+03 -0.22536717438E+04  0.22587031082E+04  0.91758761265E+02 0.  0.
         23    2    4    4    0    0  0.68080197030E+02  0.36407162686E+03 -0.57687175861E+03  0.69256663523E+03  0.98409631889E+02 0.  0.
         13    1    3    3    0    0 -0.21027790497E+02 -0.82830576981E+01 -0.66619534091E+02  0.70348698215E+02  0.00000000000E+00 0. -1.
        -13    1    3    3    0    0  0.94712660735E+01 -0.25048516763E+03 -0.99589241318E+03  0.10269538562E+04  0.00000000000E+00 0.  1.
          4    1    5    5  502    0 -0.51434108734E+02 -0.14391624554E+02 -0.11676923386E+04  0.11689131636E+04  0.00000000000E+00 0. -1.
          3    1    6    6  503    0  0.27525513002E+02  0.15479778523E+03 -0.33567571645E+03  0.37067262483E+03  0.00000000000E+00 0. -1.
         -4    1    5    5    0  502 -0.50895638722E+01 -0.90911776981E+02 -0.10859794051E+04  0.10897899445E+04  0.00000000000E+00 0.  1.
         -3    1    6    6    0  503  0.40554684028E+02  0.20927384163E+03 -0.24119604216E+03  0.32189401041E+03  0.00000000000E+00 0.  1.
<mgrwt>
<rscale>  0 0.11113311E+04</rscale>
<asrwt>0</asrwt>
<pdfrwt beam="1">  1        1 0.61089465E+00 0.11113311E+04</pdfrwt>
<pdfrwt beam="2">  1       -1 0.11962830E-01 0.11113311E+04</pdfrwt>
<totfact> 0.50031731E+00</totfact>
</mgrwt>
</event>
<event>
12    1  0.4672461E-008  0.1754002E+04  0.7818608E-02  0.8731151E-01
          1   -1    0    0  501    0  0.00000000000E+00  0.00000000000E+00  0.31424122377E+03  0.31424122377E+03  0.00000000000E+00 0. -1.
         -1   -1    0    0    0  501 -0.00000000000E+00 -0.00000000000E+00 -0.24475804530E+04  0.24475804530E+04  0.00000000000E+00 0.  1.
         23    2    1    2    0    0 -0.33842937973E+03  0.31940614691E+03 -0.15495990331E+04  0.16204793150E+04  0.90229238061E+02 0.  0.
        254    2    1    2    0    0  0.33842937973E+03 -0.31940614691E+03 -0.58374019618E+03  0.11413423618E+04  0.86333946879E+03 0.  0.
         23    2    4    4    0    0  0.21232151953E+03 -0.55970195059E+03 -0.60373094057E+03  0.85531281818E+03  0.93393078953E+02 0.  0.
         23    2    4    4    0    0  0.12610786021E+03  0.24029580368E+03  0.19990744394E+02  0.28602954358E+03  0.88136282356E+02 0.  0.
         13    1    3    3    0    0 -0.25176751578E+03  0.25482064897E+03 -0.10532769968E+04  0.11125254501E+04  0.00000000000E+00 0. -1.
        -13    1    3    3    0    0 -0.86661863951E+02  0.64585497947E+02 -0.49632203622E+03  0.50795386488E+03  0.00000000000E+00 0.  1.
          4    1    5    5  502    0  0.62655811081E+02 -0.22314688297E+03 -0.17719234072E+03  0.29174887772E+03  0.00000000000E+00 0. -1.
          3    1    6    6  503    0  0.94083857805E+02  0.21732131125E+03 -0.91882180556E+01  0.23699102931E+03  0.00000000000E+00 0. -1.
         -4    1    5    5    0  502  0.14966570845E+03 -0.33655506762E+03 -0.42653859985E+03  0.56356394046E+03  0.00000000000E+00 0.  1.
         -3    1    6    6    0  503  0.32024002401E+02  0.22974492431E+02  0.29178962450E+02  0.49038514270E+02  0.00000000000E+00 0.  1.
<mgrwt>
<rscale>  0 0.17540019E+04</rscale>
<asrwt>0</asrwt>
<pdfrwt beam="1">  1        1 0.48344805E-01 0.17540019E+04</pdfrwt>
<pdfrwt beam="2">  1       -1 0.37655083E+00 0.17540019E+04</pdfrwt>
<totfact> 0.80962328E-01</totfact>
</mgrwt>
</event>
<event>
12    1  0.4672461E-008  0.2386602E+04  0.7818608E-02  0.8444537E-01
          2   -1    0    0  501    0  0.00000000000E+00  0.00000000000E+00  0.17066537499E+04  0.17066537499E+04  0.00000000000E+00 0.  1.
         -2   -1    0    0    0  501 -0.00000000000E+00 -0.00000000000E+00 -0.83436227526E+03  0.83436227526E+03  0.00000000000E+00 0. -1.
         23    2    1    2    0    0  0.91204868687E+03 -0.14324105848E+03 -0.95652918400E+02  0.93252985609E+03  0.90064663677E+02 0.  0.
        254    2    1    2    0    0 -0.91204868687E+03  0.14324105848E+03  0.96794439308E+03  0.16084861691E+04  0.89328640426E+03 0.  0.
         23    2    4    4    0    0 -0.50880756526E+03 -0.36254834502E+03  0.46442640846E+03  0.78372486067E+03  0.90588781935E+02 0.  0.
         23    2    4    4    0    0 -0.40324112161E+03  0.50578940349E+03  0.50351798462E+03  0.82476130843E+03  0.90964455714E+02 0.  0.
         13    1    3    3    0    0  0.27876499649E+03 -0.83117630059E+02 -0.14640174107E+02  0.29126070520E+03  0.00000000000E+00 0.  1.
        -13    1    3    3    0    0  0.63328369038E+03 -0.60123428420E+02 -0.81012744293E+02  0.64126915089E+03  0.00000000000E+00 0. -1.
          2    1    5    5  502    0 -0.90008869914E+02 -0.35895655554E+02  0.10221475347E+03  0.14084725974E+03  0.00000000000E+00 0. -1.
          4    1    6    6  503    0 -0.91323774786E+02  0.14967836776E+03  0.94746282558E+02  0.19930003430E+03  0.00000000000E+00 0. -1.
         -2    1    5    5    0  502 -0.41879869535E+03 -0.32665268946E+03  0.36221165499E+03  0.64287760092E+03  0.00000000000E+00 0.  1.
         -4    1    6    6    0  503 -0.31191734683E+03  0.35611103574E+03  0.40877170206E+03  0.62546127413E+03  0.00000000000E+00 0.  1.
<mgrwt>
<rscale>  0 0.23866022E+04</rscale>
<asrwt>0</asrwt>
<pdfrwt beam="1">  1        2 0.26256211E+00 0.23866022E+04</pdfrwt>
<pdfrwt beam="2">  1       -2 0.12836343E+00 0.23866022E+04</pdfrwt>
<totfact> 0.39259927E+00</totfact>
</mgrwt>
</event>
<event>
12    1  0.4672461E-008  0.1146138E+04  0.7818608E-02  0.9161354E-01
          2   -1    0    0  501    0  0.00000000000E+00  0.00000000000E+00  0.10491785341E+04  0.10491785341E+04  0.00000000000E+00 0.  1.
         -2   -1    0    0    0  501 -0.00000000000E+00 -0.00000000000E+00 -0.31301433003E+03  0.31301433003E+03  0.00000000000E+00 0. -1.
         23    2    1    2    0    0 -0.11346557622E+03  0.18023734335E+03  0.10555733576E+03  0.25331651203E+03  0.87561219755E+02 0.  0.
        254    2    1    2    0    0  0.11346557622E+03 -0.18023734335E+03  0.63060686831E+03  0.11088763521E+04  0.88689447230E+03 0.  0.
         23    2    4    4    0    0 -0.21854996806E+03 -0.39648820058E+03  0.50261383256E+03  0.68274000797E+03  0.92446049511E+02 0.  0.
         23    2    4    4    0    0  0.33201554428E+03  0.21625085722E+03  0.12799303576E+03  0.42613634415E+03  0.90615736517E+02 0.  0.
         11    1    3    3    0    0 -0.43226340945E+02  0.10782459837E+03  0.13865003335E+02  0.11699102052E+03  0.00000000000E+00 0. -1.
        -11    1    3    3    0    0 -0.70239235278E+02  0.72412744988E+02  0.91692332427E+02  0.13632549151E+03  0.00000000000E+00 0.  1.
          4    1    5    5  502    0 -0.15588230090E+03 -0.24981615662E+03  0.38433698091E+03  0.48417178640E+03  0.00000000000E+00 0. -1.
          1    1    6    6  503    0  0.90171322492E+02  0.58397015373E+02 -0.63503584743E+01  0.10761694038E+03  0.00000000000E+00 0. -1.
         -4    1    5    5    0  502 -0.62667667156E+02 -0.14667204395E+03  0.11827685164E+03  0.19856822157E+03  0.00000000000E+00 0.  1.
         -1    1    6    6    0  503  0.24184422179E+03  0.15785384185E+03  0.13434339423E+03  0.31851940376E+03  0.00000000000E+00 0.  1.
<mgrwt>
<rscale>  0 0.11461377E+04</rscale>
<asrwt>0</asrwt>
<pdfrwt beam="1">  1        2 0.16141208E+00 0.11461377E+04</pdfrwt>
<pdfrwt beam="2">  1       -2 0.48156051E-01 0.11461377E+04</pdfrwt>
<totfact> 0.94763614E+01</totfact>
</mgrwt>
</event>
<event>
12    1  0.4672461E-008  0.1690088E+04  0.7818608E-02  0.8767038E-01
         -1   -1    0    0    0  501 -0.00000000000E+00  0.00000000000E+00  0.72588388382E+03  0.72588388382E+03  0.00000000000E+00 0.  1.
          1   -1    0    0  501    0  0.00000000000E+00 -0.00000000000E+00 -0.98376489719E+03  0.98376489719E+03  0.00000000000E+00 0. -1.
         23    2    1    2    0    0  0.49162975800E+03 -0.45747849044E+02  0.24264402608E+03  0.55759434576E+03  0.90789021318E+02 0.  0.
        254    2    1    2    0    0 -0.49162975800E+03  0.45747849044E+02 -0.50052503945E+03  0.11520544352E+04  0.91263980957E+03 0.  0.
         23    2    4    4    0    0 -0.68987179989E+03 -0.12491351921E+03 -0.18199005668E+03  0.72986905382E+03  0.89788459370E+02 0.  0.
         23    2    4    4    0    0  0.19824204189E+03  0.17066136826E+03 -0.31853498277E+03  0.42218538143E+03  0.91382445000E+02 0.  0.
         11    1    3    3    0    0  0.24915146484E+03 -0.67941022594E+02  0.11540533583E+03  0.28286185060E+03  0.00000000000E+00 0. -1.
        -11    1    3    3    0    0  0.24247829316E+03  0.22193173550E+02  0.12723869025E+03  0.27473249517E+03  0.00000000000E+00 0.  1.
          2    1    5    5  502    0 -0.36977909595E+02  0.44334296973E+01 -0.28291590903E+02  0.46770024725E+02  0.00000000000E+00 0. -1.
          3    1    6    6  503    0  0.40141470616E+02  0.31634274851E+02 -0.12957172557E+03  0.13928710305E+03  0.00000000000E+00 0. -1.
         -2    1    5    5    0  502 -0.65289389029E+03 -0.12934694891E+03 -0.15369846578E+03  0.68309902910E+03  0.00000000000E+00 0.  1.
         -3    1    6    6    0  503  0.15810057127E+03  0.13902709340E+03 -0.18896325720E+03  0.28289827838E+03  0.00000000000E+00 0.  1.
<mgrwt>
<rscale>  0 0.16900877E+04</rscale>
<asrwt>0</asrwt>
<pdfrwt beam="1">  1        1 0.15134845E+00 0.16900877E+04</pdfrwt>
<pdfrwt beam="2">  1       -1 0.11167444E+00 0.16900877E+04</pdfrwt>
<totfact> 0.10929183E+01</totfact>
</mgrwt>
</event>
<event>
12    1  0.4672461E-008  0.1653187E+04  0.7818608E-02  0.8788523E-01
         -1   -1    0    0    0  501 -0.00000000000E+00  0.00000000000E+00  0.39160230387E+03  0.39160230387E+03  0.00000000000E+00 0.  1.
          1   -1    0    0  501    0  0.00000000000E+00 -0.00000000000E+00 -0.17447717807E+04  0.17447717807E+04  0.00000000000E+00 0. -1.
         23    2    1    2    0    0 -0.24789201837E+03  0.79232522546E+02 -0.11514124472E+04  0.11837376864E+04  0.88068388613E+02 0.  0.
        254    2    1    2    0    0  0.24789201837E+03 -0.79232522546E+02 -0.20175702955E+03  0.95263639817E+03  0.89391384526E+03 0.  0.
         23    2    4    4    0    0 -0.12683332635E+03 -0.31725684023E+03  0.14580815453E+03  0.38253485088E+03  0.91292381223E+02 0.  0.
         23    2    4    4    0    0  0.37472534472E+03  0.23802431768E+03 -0.34756518408E+03  0.57010154729E+03  0.84495900776E+02 0.  0.
         11    1    3    3    0    0 -0.23241660595E+03  0.44575269779E+02 -0.97899255614E+03  0.10071895841E+04  0.00000000000E+00 0. -1.
        -11    1    3    3    0    0 -0.15475412428E+02  0.34657252766E+02 -0.17241989109E+03  0.17654810224E+03  0.00000000000E+00 0.  1.
          4    1    5    5  502    0 -0.94474591514E+02 -0.28496981793E+03  0.15182615148E+03  0.33642893135E+03  0.00000000000E+00 0.  1.
          1    1    6    6  503    0  0.14954407056E+03  0.65850971094E+02 -0.87203868977E+02  0.18521418466E+03  0.00000000000E+00 0. -1.
         -4    1    5    5    0  502 -0.32358734836E+02 -0.32287022292E+02 -0.60179969529E+01  0.46105919534E+02  0.00000000000E+00 0. -1.
         -1    1    6    6    0  503  0.22518127416E+03  0.17217334659E+03 -0.26036131511E+03  0.38488736263E+03  0.00000000000E+00 0.  1.
<mgrwt>
<rscale>  0 0.16531868E+04</rscale>
<asrwt>0</asrwt>
<pdfrwt beam="1">  1        1 0.26842643E+00 0.16531868E+04</pdfrwt>
<pdfrwt beam="2">  1       -1 0.60246508E-01 0.16531868E+04</pdfrwt>
<totfact> 0.11856705E+01</totfact>
</mgrwt>
</event>
<event>
12    1  0.4974045E-008  0.1587087E+04  0.7818608E-02  0.8828520E-01
         -2   -1    0    0    0  501 -0.00000000000E+00  0.00000000000E+00  0.50218670019E+03  0.50218670019E+03  0.00000000000E+00 0.  1.
          2   -1    0    0  501    0  0.00000000000E+00 -0.00000000000E+00 -0.12539392664E+04  0.12539392664E+04  0.00000000000E+00 0. -1.
         23    2    1    2    0    0  0.13160234336E+03 -0.26221976905E+03  0.23832008675E+03  0.38875564490E+03  0.90863103825E+02 0.  0.
        254    2    1    2    0    0 -0.13160234336E+03  0.26221976905E+03 -0.99007265291E+03  0.13673703216E+04  0.89631431675E+03 0.  0.
         23    2    4    4    0    0  0.13181427378E+03  0.52730532422E+03 -0.49762419955E+03  0.74241604389E+03  0.90143388699E+02 0.  0.
         23    2    4    4    0    0 -0.26341661714E+03 -0.26508555517E+03 -0.49244845337E+03  0.62495427776E+03  0.91671720388E+02 0.  0.
         13    1    3    3    0    0 -0.36843036668E+00  0.68897523505E+01  0.23551596420E+01  0.72904873174E+01  0.00000000000E+00 0. -1.
        -13    1    3    3    0    0  0.13197077373E+03 -0.26910952140E+03  0.23596492710E+03  0.38146515758E+03  0.00000000000E+00 0.  1.
          1    1    5    5  502    0 -0.97421561932E+01  0.74998110216E+02 -0.87567086601E+02  0.11570488667E+03  0.00000000000E+00 0. -1.
          1    1    6    6  503    0 -0.36043833522E+02 -0.57635666469E+01 -0.75428070361E+02  0.83796004880E+02  0.00000000000E+00 0. -1.
         -1    1    5    5    0  502  0.14155642997E+03  0.45230721400E+03 -0.41005711295E+03  0.62671115722E+03  0.00000000000E+00 0.  1.
         -1    1    6    6    0  503 -0.22737278362E+03 -0.25932198852E+03 -0.41702038301E+03  0.54115827288E+03  0.00000000000E+00 0.  1.
<mgrwt>
<rscale>  0 0.15870874E+04</rscale>
<asrwt>0</asrwt>
<pdfrwt beam="1">  1        2 0.19291373E+00 0.15870874E+04</pdfrwt>
<pdfrwt beam="2">  1       -2 0.77259493E-01 0.15870874E+04</pdfrwt>
<totfact> 0.25243478E+01</totfact>
</mgrwt>
</event>
<event>
12    1  0.4672461E-008  0.1392769E+04  0.7818608E-02  0.8959069E-01
          1   -1    0    0  501    0  0.00000000000E+00  0.00000000000E+00  0.58778631283E+03  0.58778631283E+03  0.00000000000E+00 0. -1.
         -1   -1    0    0    0  501 -0.00000000000E+00 -0.00000000000E+00 -0.82504724725E+03  0.82504724725E+03  0.00000000000E+00 0.  1.
         23    2    1    2    0    0  0.21611888188E+03  0.31036375218E+03 -0.20196713921E+03  0.43796392153E+03  0.89379200470E+02 0.  0.
        254    2    1    2    0    0 -0.21611888188E+03 -0.31036375218E+03 -0.35293795212E+02  0.97486963855E+03  0.89782633645E+03 0.  0.
         23    2    4    4    0    0 -0.35912323723E+03 -0.28263038100E+03  0.33046900926E+03  0.57132790099E+03  0.91413197035E+02 0.  0.
         23    2    4    4    0    0  0.14300435535E+03 -0.27733371180E+02 -0.36576280447E+03  0.40354173756E+03  0.88567032773E+02 0.  0.
         11    1    3    3    0    0  0.77466400549E+00 -0.48095098307E+01 -0.90256064972E+01  0.10256366890E+02  0.00000000000E+00 0. -1.
        -11    1    3    3    0    0  0.21534421787E+03  0.31517326201E+03 -0.19294153271E+03  0.42770755465E+03  0.00000000000E+00 0.  1.
          1    1    5    5  502    0 -0.16120363431E+03 -0.17783240685E+03  0.19783593179E+03  0.31104667262E+03  0.00000000000E+00 0. -1.
          3    1    6    6  503    0  0.11294232309E+03 -0.44930764450E+02 -0.33788069893E+03  0.35907952970E+03  0.00000000000E+00 0. -1.
         -1    1    5    5    0  502 -0.19791960292E+03 -0.10479797415E+03  0.13263307747E+03  0.26028122837E+03  0.00000000000E+00 0.  1.
         -3    1    6    6    0  503  0.30062032255E+02  0.17197393270E+02 -0.27882105540E+02  0.44462207862E+02  0.00000000000E+00 0.  1.
<mgrwt>
<rscale>  0 0.13927692E+04</rscale>
<asrwt>0</asrwt>
<pdfrwt beam="1">  1        1 0.90428664E-01 0.13927692E+04</pdfrwt>
<pdfrwt beam="2">  1       -1 0.12693035E+00 0.13927692E+04</pdfrwt>
<totfact> 0.18544390E+01</totfact>
</mgrwt>
</event>
<event>
12    1  0.4672461E-008  0.1862014E+04  0.7818608E-02  0.8673999E-01
         -1   -1    0    0    0  501 -0.00000000000E+00  0.00000000000E+00  0.61068934578E+03  0.61068934578E+03  0.00000000000E+00 0.  1.
          1   -1    0    0  501    0  0.00000000000E+00 -0.00000000000E+00 -0.14193374995E+04  0.14193374995E+04  0.00000000000E+00 0. -1.
         23    2    1    2    0    0  0.16793896067E+03  0.10096230294E+03  0.43058125838E+03  0.48121431978E+03  0.88148286275E+02 0.  0.
        254    2    1    2    0    0 -0.16793896067E+03 -0.10096230294E+03 -0.12392294121E+04  0.15488125255E+04  0.90814856838E+03 0.  0.
         23    2    4    4    0    0 -0.43033875828E+03  0.11988794956E+03 -0.10538351320E+04  0.11483567502E+04  0.92683185878E+02 0.  0.
         23    2    4    4    0    0  0.26239979761E+03 -0.22085025251E+03 -0.18539428008E+03  0.40045577530E+03  0.91462019819E+02 0.  0.
         13    1    3    3    0    0  0.17837824079E+03  0.92999270898E+02  0.39472754128E+03  0.44303215800E+03  0.00000000000E+00 0.  1.
        -13    1    3    3    0    0 -0.10439280126E+02  0.79630320459E+01  0.35853717093E+02  0.38182161781E+02  0.00000000000E+00 0. -1.
          4    1    5    5  502    0 -0.34267302533E+03  0.12786243721E+03 -0.79867815645E+03  0.87844203151E+03  0.00000000000E+00 0. -1.
          3    1    6    6  503    0  0.25385211772E+03 -0.18665891995E+03 -0.14501722634E+03  0.34686084530E+03  0.00000000000E+00 0. -1.
         -4    1    5    5    0  502 -0.87665732947E+02 -0.79744876483E+01 -0.25515697558E+03  0.26991471871E+03  0.00000000000E+00 0.  1.
         -3    1    6    6    0  503  0.85476798957E+01 -0.34191332559E+02 -0.40377053740E+02  0.53594930007E+02  0.00000000000E+00 0.  1.
<mgrwt>
<rscale>  0 0.18620143E+04</rscale>
<asrwt>0</asrwt>
<pdfrwt beam="1">  1        1 0.21835961E+00 0.18620143E+04</pdfrwt>
<pdfrwt beam="2">  1       -1 0.93952209E-01 0.18620143E+04</pdfrwt>
<totfact> 0.76726485E+00</totfact>
</mgrwt>
</event>
<event>
12    1  0.4672461E-008  0.1980678E+04  0.7818608E-02  0.8615708E-01
         -1   -1    0    0    0  501 -0.00000000000E+00  0.00000000000E+00  0.48565141112E+03  0.48565141112E+03  0.00000000000E+00 0.  1.
          1   -1    0    0  501    0  0.00000000000E+00 -0.00000000000E+00 -0.20194968009E+04  0.20194968009E+04  0.00000000000E+00 0. -1.
         23    2    1    2    0    0  0.44218481184E+03  0.81268023831E+02 -0.14140827469E+04  0.14867092248E+04  0.92425129148E+02 0.  0.
        254    2    1    2    0    0 -0.44218481184E+03 -0.81268023831E+02 -0.11976264283E+03  0.10184389872E+04  0.90594866326E+03 0.  0.
         23    2    4    4    0    0 -0.25981093161E+03 -0.38677801149E+03  0.21495234852E+03  0.52127096255E+03  0.91760306793E+02 0.  0.
         23    2    4    4    0    0 -0.18237388023E+03  0.30550998766E+03 -0.33471499135E+03  0.49716802464E+03  0.92440978669E+02 0.  0.
         13    1    3    3    0    0  0.33344343814E+03  0.19909106946E+02 -0.10428061706E+04  0.10950002778E+04  0.00000000000E+00 0. -1.
        -13    1    3    3    0    0  0.10874137370E+03  0.61358916885E+02 -0.37127657633E+03  0.39170894701E+03  0.00000000000E+00 0.  1.
          1    1    5    5  502    0 -0.21156281598E+03 -0.24558658494E+03  0.12748521147E+03  0.34831605612E+03  0.00000000000E+00 0. -1.
          3    1    6    6  503    0 -0.87946232290E+02  0.23127571064E+03 -0.22985911174E+03  0.33772504402E+03  0.00000000000E+00 0. -1.
         -1    1    5    5    0  502 -0.48248115636E+02 -0.14119142655E+03  0.87467137055E+02  0.17295490643E+03  0.00000000000E+00 0.  1.
         -3    1    6    6    0  503 -0.94427647937E+02  0.74234277011E+02 -0.10485587961E+03  0.15944298062E+03  0.00000000000E+00 0.  1.
<mgrwt>
<rscale>  0 0.19806781E+04</rscale>
<asrwt>0</asrwt>
<pdfrwt beam="1">  1        1 0.31069182E+00 0.19806781E+04</pdfrwt>
<pdfrwt beam="2">  1       -1 0.74715601E-01 0.19806781E+04</pdfrwt>
<totfact> 0.48401828E+00</totfact>
</mgrwt>
</event>
<event>
12    1  0.4672461E-008  0.1509361E+04  0.7818608E-02  0.8878251E-01
          2   -1    0    0  501    0  0.00000000000E+00  0.00000000000E+00  0.11164744985E+04  0.11164744985E+04  0.00000000000E+00 0. -1.
         -2   -1    0    0    0  501 -0.00000000000E+00 -0.00000000000E+00 -0.51012630601E+03  0.51012630601E+03  0.00000000000E+00 0.  1.
         23    2    1    2    0    0 -0.60821469217E+01  0.44719767046E+03  0.37143303069E+03  0.58855932128E+03  0.91743279832E+02 0.  0.
        254    2    1    2    0    0  0.60821469217E+01 -0.44719767046E+03  0.23491516178E+03  0.10380414832E+04  0.90681984907E+03 0.  0.
         23    2    4    4    0    0 -0.14424640080E+03 -0.64689598736E+03  0.34190240185E+03  0.75117641675E+03  0.89929495066E+02 0.  0.
         23    2    4    4    0    0  0.15032854772E+03  0.19969831690E+03 -0.10698724007E+03  0.28686506647E+03  0.91472437323E+02 0.  0.
         11    1    3    3    0    0  0.21847268367E+02  0.20491786045E+03  0.12091779615E+03  0.23893460631E+03  0.00000000000E+00 0.  1.
        -11    1    3    3    0    0 -0.27929415288E+02  0.24227981001E+03  0.25051523455E+03  0.34962471497E+03  0.00000000000E+00 0. -1.
          4    1    5    5  502    0 -0.42382228188E+02 -0.66945456533E+02  0.52712673463E+02  0.95166030495E+02  0.00000000000E+00 0. -1.
          3    1    6    6  503    0  0.52331333101E+02  0.95908210760E+02 -0.92926188431E+02  0.14343022628E+03  0.00000000000E+00 0. -1.
         -4    1    5    5    0  502 -0.10186417261E+03 -0.57995053082E+03  0.28918972839E+03  0.65601038625E+03  0.00000000000E+00 0.  1.
         -3    1    6    6    0  503  0.97997214620E+02  0.10379010614E+03 -0.14061051638E+02  0.14343484018E+03  0.00000000000E+00 0.  1.
<mgrwt>
<rscale>  0 0.15093615E+04</rscale>
<asrwt>0</asrwt>
<pdfrwt beam="1">  1        2 0.17176531E+00 0.15093615E+04</pdfrwt>
<pdfrwt beam="2">  1       -2 0.78480970E-01 0.15093615E+04</pdfrwt>
<totfact> 0.29659949E+01</totfact>
</mgrwt>
</event>
<event>
12    1  0.4672461E-008  0.1526352E+04  0.7818608E-02  0.8867116E-01
         -1   -1    0    0    0  501 -0.00000000000E+00  0.00000000000E+00  0.38787099190E+03  0.38787099190E+03  0.00000000000E+00 0.  1.
          1   -1    0    0  501    0  0.00000000000E+00 -0.00000000000E+00 -0.15016276429E+04  0.15016276429E+04  0.00000000000E+00 0. -1.
         23    2    1    2    0    0 -0.45574809882E+02  0.16614370636E+03  0.19319007488E+03  0.27453041611E+03  0.91453539435E+02 0.  0.
        254    2    1    2    0    0  0.45574809882E+02 -0.16614370636E+03 -0.13069467259E+04  0.16149682187E+04  0.93291575647E+03 0.  0.
         23    2    4    4    0    0 -0.34216963192E+03  0.31248693408E+02 -0.10344626120E+04  0.10936527322E+04  0.88920555969E+02 0.  0.
         23    2    4    4    0    0  0.38774444180E+03 -0.19739239977E+03 -0.27248411395E+03  0.52131548652E+03  0.90624127546E+02 0.  0.
         11    1    3    3    0    0 -0.26991842954E+02  0.14604053114E+03  0.19719267596E+03  0.24686301419E+03  0.00000000000E+00 0.  1.
        -11    1    3    3    0    0 -0.18582966928E+02  0.20103175217E+02 -0.40026010721E+01  0.27667401920E+02  0.00000000000E+00 0. -1.
          3    1    6    6  502    0  0.19890354086E+03 -0.15049711133E+03 -0.16447809190E+03  0.29877255865E+03  0.00000000000E+00 0. -1.
          3    1    5    5  503    0 -0.11663314501E+03  0.47300577049E+02 -0.30489467915E+03  0.32985057295E+03  0.00000000000E+00 0. -1.
         -3    1    5    5    0  503 -0.22553648691E+03 -0.16051883641E+02 -0.72956793280E+03  0.76380215925E+03  0.00000000000E+00 0.  1.
         -3    1    6    6    0  502  0.18884090094E+03 -0.46895288438E+02 -0.10800602205E+03  0.22254292787E+03  0.00000000000E+00 0.  1.
<mgrwt>
<rscale>  0 0.15263523E+04</rscale>
<asrwt>0</asrwt>
<pdfrwt beam="1">  1        1 0.23101964E+00 0.15263523E+04</pdfrwt>
<pdfrwt beam="2">  1       -1 0.59672460E-01 0.15263523E+04</pdfrwt>
<totfact> 0.17931370E+01</totfact>
</mgrwt>
</event>
<event>
12    1  0.4672461E-008  0.2140264E+04  0.7818608E-02  0.8543711E-01
          1   -1    0    0  501    0  0.00000000000E+00  0.00000000000E+00  0.11166541584E+04  0.11166541584E+04  0.00000000000E+00 0. -1.
         -1   -1    0    0    0  501 -0.00000000000E+00 -0.00000000000E+00 -0.10255483709E+04  0.10255483709E+04  0.00000000000E+00 0.  1.
         23    2    1    2    0    0 -0.41704829533E+03  0.96021750334E+02 -0.73173539868E+03  0.85246062110E+03  0.90016441089E+02 0.  0.
        254    2    1    2    0    0  0.41704829533E+03 -0.96021750334E+02  0.82284118622E+03  0.12897419082E+04  0.89622380850E+03 0.  0.
         23    2    4    4    0    0  0.66317626179E+03  0.14413449674E+01  0.39158521768E+03  0.77551086481E+03  0.90957611290E+02 0.  0.
         23    2    4    4    0    0 -0.24612796645E+03 -0.97463095301E+02  0.43125596854E+03  0.51423104342E+03  0.91508605051E+02 0.  0.
         13    1    3    3    0    0 -0.28079152539E+03  0.99949294141E+02 -0.54626510710E+03  0.62228555291E+03  0.00000000000E+00 0.  1.
        -13    1    3    3    0    0 -0.13625676994E+03 -0.39275438071E+01 -0.18547029158E+03  0.23017506818E+03  0.00000000000E+00 0. -1.
          4    1    5    5  502    0  0.64783596379E+03  0.16089875974E+02  0.37631839869E+03  0.74937697942E+03  0.00000000000E+00 0. -1.
          1    1    6    6  503    0 -0.22425579333E+03 -0.57322655659E+02  0.32945582486E+03  0.40263840878E+03  0.00000000000E+00 0. -1.
         -4    1    5    5    0  502  0.15340297994E+02 -0.14648531006E+02  0.15266818996E+02  0.26133885388E+02  0.00000000000E+00 0.  1.
         -1    1    6    6    0  503 -0.21872173128E+02 -0.40140439642E+02  0.10180014369E+03  0.11159263464E+03  0.00000000000E+00 0.  1.
<mgrwt>
<rscale>  0 0.21402643E+04</rscale>
<asrwt>0</asrwt>
<pdfrwt beam="1">  1        1 0.17179295E+00 0.21402643E+04</pdfrwt>
<pdfrwt beam="2">  1       -1 0.15777667E+00 0.21402643E+04</pdfrwt>
<totfact> 0.34305469E+00</totfact>
</mgrwt>
</event>
<event>
12    1  0.4672461E-008  0.2638485E+04  0.7818608E-02  0.8355245E-01
          1   -1    0    0  501    0  0.00000000000E+00  0.00000000000E+00  0.17542127229E+04  0.17542127229E+04  0.00000000000E+00 0. -1.
         -1   -1    0    0    0  501 -0.00000000000E+00 -0.00000000000E+00 -0.99212656704E+03  0.99212656704E+03  0.00000000000E+00 0.  1.
         23    2    1    2    0    0 -0.99456858536E+03  0.11362783174E+03 -0.28138012711E+03  0.10438977824E+04  0.92031782321E+02 0.  0.
        254    2    1    2    0    0  0.99456858536E+03 -0.11362783174E+03  0.10434662830E+04  0.17024415076E+04  0.89855842765E+03 0.  0.
         23    2    4    4    0    0  0.68854613684E+03 -0.38022629951E+03  0.10127899095E+04  0.12856038727E+04  0.91466362031E+02 0.  0.
         23    2    4    4    0    0  0.30602244852E+03  0.26659846776E+03  0.30676373493E+02  0.41683763487E+03  0.89933819813E+02 0.  0.
         11    1    3    3    0    0 -0.49164058472E+02  0.15992868205E+02  0.31307904419E+01  0.51794578168E+02  0.00000000000E+00 0. -1.
        -11    1    3    3    0    0 -0.94540452688E+03  0.97634963536E+02 -0.28451091755E+03  0.99210320419E+03  0.00000000000E+00 0.  1.
          2    1    5    5  502    0  0.51992817257E+02 -0.52401427058E+02  0.69870606138E+02  0.10164184279E+03  0.00000000000E+00 0.  1.
          1    1    6    6  503    0  0.26817120043E+03  0.19147831543E+03  0.75578617726E+01  0.32960106082E+03  0.00000000000E+00 0. -1.
         -2    1    5    5    0  502  0.63655331958E+03 -0.32782487245E+03  0.94291930333E+03  0.11839620299E+04  0.00000000000E+00 0. -1.
         -1    1    6    6    0  503  0.37851248089E+02  0.75120152333E+02  0.23118511721E+02  0.87236574054E+02  0.00000000000E+00 0.  1.
<mgrwt>
<rscale>  0 0.26384852E+04</rscale>
<asrwt>0</asrwt>
<pdfrwt beam="1">  1        1 0.26987888E+00 0.26384852E+04</pdfrwt>
<pdfrwt beam="2">  1       -1 0.15263486E+00 0.26384852E+04</pdfrwt>
<totfact> 0.12787326E+00</totfact>
</mgrwt>
</event>
<event>
12    1  0.4672461E-008  0.1248346E+04  0.7818608E-02  0.9071561E-01
         -2   -1    0    0    0  501 -0.00000000000E+00  0.00000000000E+00  0.91350344023E+02  0.91350344023E+02  0.00000000000E+00 0. -1.
          2   -1    0    0  501    0  0.00000000000E+00 -0.00000000000E+00 -0.42648088245E+04  0.42648088245E+04  0.00000000000E+00 0.  1.
         23    2    1    2    0    0  0.76604190159E+02 -0.33327856761E+02 -0.46942523001E+02  0.13295132628E+03  0.92160223022E+02 0.  0.
        254    2    1    2    0    0 -0.76604190159E+02  0.33327856761E+02 -0.41265159575E+04  0.42232078423E+04  0.89463488838E+03 0.  0.
         23    2    4    4    0    0  0.31214545698E+03 -0.20206439601E+03 -0.25922211994E+04  0.26203804096E+04  0.92292677071E+02 0.  0.
         23    2    4    4    0    0 -0.38874964714E+03  0.23539225277E+03 -0.15342947581E+04  0.16028274326E+04  0.91975938099E+02 0.  0.
         13    1    3    3    0    0 -0.58185718134E+01 -0.30250451591E+02  0.10381428580E+02  0.32507224717E+02  0.00000000000E+00 0. -1.
        -13    1    3    3    0    0  0.82422761972E+02 -0.30774051698E+01 -0.57323951581E+02  0.10044410156E+03  0.00000000000E+00 0.  1.
          4    1    5    5  502    0  0.71572813242E+02 -0.95946733371E+02 -0.75113108651E+03  0.76060919819E+03  0.00000000000E+00 0.  1.
          3    1    6    6  503    0 -0.18029491453E+03  0.59666047775E+02 -0.57573716099E+03  0.60625042022E+03  0.00000000000E+00 0. -1.
         -4    1    5    5    0  502  0.24057264374E+03 -0.10611766264E+03 -0.18410901128E+04  0.18597712114E+04  0.00000000000E+00 0. -1.
         -3    1    6    6    0  503 -0.20845473261E+03  0.17572620499E+03 -0.95855759714E+03  0.99657701243E+03  0.00000000000E+00 0.  1.
<mgrwt>
<rscale>  0 0.12483457E+04</rscale>
<asrwt>0</asrwt>
<pdfrwt beam="1">  1        2 0.65612454E+00 0.12483457E+04</pdfrwt>
<pdfrwt beam="2">  1       -2 0.14053897E-01 0.12483457E+04</pdfrwt>
<totfact> 0.82259595E+00</totfact>
</mgrwt>
</event>
<event>
12    1  0.4672461E-008  0.1717408E+04  0.7818608E-02  0.8751498E-01
         -1   -1    0    0    0  501 -0.00000000000E+00  0.00000000000E+00  0.84254724268E+03  0.84254724268E+03  0.00000000000E+00 0.  1.
          1   -1    0    0  501    0  0.00000000000E+00 -0.00000000000E+00 -0.87517085038E+03  0.87517085038E+03  0.00000000000E+00 0. -1.
         23    2    1    2    0    0 -0.41592573565E+03 -0.46322329203E+03  0.24873824988E+01  0.62923507021E+03  0.91436046817E+02 0.  0.
        254    2    1    2    0    0  0.41592573565E+03  0.46322329203E+03 -0.35110990195E+02  0.10884830229E+04  0.89218410295E+03 0.  0.
         23    2    4    4    0    0  0.21743367339E+03  0.71402481513E+03 -0.52444751333E+02  0.75367803695E+03  0.90395201645E+02 0.  0.
         23    2    4    4    0    0  0.19849206225E+03 -0.25080152311E+03  0.17333761138E+02  0.33480498590E+03  0.97434165159E+02 0.  0.
         13    1    3    3    0    0 -0.58294132825E+02 -0.90388318834E+02 -0.29768510079E+02  0.11159936512E+03  0.00000000000E+00 0. -1.
        -13    1    3    3    0    0 -0.35763160282E+03 -0.37283497319E+03  0.32255892578E+02  0.51763570509E+03  0.00000000000E+00 0.  1.
          2    1    5    5  502    0  0.39524152535E+02  0.91973674723E+02  0.21759418819E+02  0.10244407149E+03  0.00000000000E+00 0. -1.
          3    1    6    6  503    0  0.17028019672E+03 -0.24449085558E+03  0.36421756845E+02  0.30016273624E+03  0.00000000000E+00 0.  1.
         -2    1    5    5    0  502  0.17790952086E+03  0.62205114041E+03 -0.74204170152E+02  0.65123396546E+03  0.00000000000E+00 0.  1.
         -3    1    6    6    0  503  0.28211865535E+02 -0.63106675297E+01 -0.19087995707E+02  0.34642249664E+02  0.00000000000E+00 0. -1.
<mgrwt>
<rscale>  0 0.17174083E+04</rscale>
<asrwt>0</asrwt>
<pdfrwt beam="1">  1        1 0.13464167E+00 0.17174083E+04</pdfrwt>
<pdfrwt beam="2">  1       -1 0.12962265E+00 0.17174083E+04</pdfrwt>
<totfact> 0.92629856E+00</totfact>
</mgrwt>
</event>
<event>
12    1  0.4672461E-008  0.2034461E+04  0.7818608E-02  0.8590676E-01
         -2   -1    0    0    0  501 -0.00000000000E+00  0.00000000000E+00  0.18747979693E+04  0.18747979693E+04  0.00000000000E+00 0.  1.
          2   -1    0    0  501    0  0.00000000000E+00 -0.00000000000E+00 -0.55193041913E+03  0.55193041913E+03  0.00000000000E+00 0. -1.
         23    2    1    2    0    0 -0.33605691901E+03  0.69788391280E+03  0.83454757890E+03  0.11429063061E+04  0.98939145685E+02 0.  0.
        254    2    1    2    0    0  0.33605691901E+03 -0.69788391280E+03  0.48831997122E+03  0.12838220823E+04  0.89987028847E+03 0.  0.
         23    2    4    4    0    0 -0.15536485656E+03  0.69825644725E+02  0.28682709028E+03  0.34608201975E+03  0.92136449675E+02 0.  0.
         23    2    4    4    0    0  0.49142177557E+03 -0.76770955753E+03  0.20149288094E+03  0.93774006252E+03  0.88790301092E+02 0.  0.
         13    1    3    3    0    0 -0.13515504212E+03  0.38535295078E+03  0.46543133821E+03  0.61918503912E+03  0.00000000000E+00 0. -1.
        -13    1    3    3    0    0 -0.20090187689E+03  0.31253096202E+03  0.36911624069E+03  0.52372126699E+03  0.00000000000E+00 0.  1.
          1    1    5    5  502    0 -0.55223172530E+01 -0.13506593970E+02  0.59977324346E+02  0.61726845895E+02  0.00000000000E+00 0. -1.
          3    1    6    6  503    0  0.94023346378E+01 -0.29061877357E+01 -0.40464099317E+01  0.10640641763E+02  0.00000000000E+00 0. -1.
         -1    1    5    5    0  502 -0.14984253931E+03  0.83332238694E+02  0.22684976593E+03  0.28435517385E+03  0.00000000000E+00 0.  1.
         -3    1    6    6    0  503  0.48201944094E+03 -0.76480336979E+03  0.20553929087E+03  0.92709942076E+03  0.00000000000E+00 0.  1.
<mgrwt>
<rscale>  0 0.20344611E+04</rscale>
<asrwt>0</asrwt>
<pdfrwt beam="1">  1        2 0.84912373E-01 0.20344611E+04</pdfrwt>
<pdfrwt beam="2">  1       -2 0.28843045E+00 0.20344611E+04</pdfrwt>
<totfact> 0.19011745E+00</totfact>
</mgrwt>
</event>
<event>
12    1  0.4672461E-008  0.1625560E+04  0.7818608E-02  0.8804997E-01
          1   -1    0    0  501    0  0.00000000000E+00  0.00000000000E+00  0.14091218028E+04  0.14091218028E+04  0.00000000000E+00 0. -1.
         -1   -1    0    0    0  501 -0.00000000000E+00 -0.00000000000E+00 -0.46881086743E+03  0.46881086743E+03  0.00000000000E+00 0.  1.
         23    2    1    2    0    0  0.19920396791E+03 -0.31941615603E+03 -0.15649198038E+03  0.41757039981E+03  0.90368121075E+02 0.  0.
        254    2    1    2    0    0 -0.19920396791E+03  0.31941615603E+03  0.10968029158E+04  0.14603622704E+04  0.88767810794E+03 0.  0.
         23    2    4    4    0    0 -0.65396665794E+01 -0.17624485219E+03  0.83970549887E+03  0.86292213543E+03  0.91783832019E+02 0.  0.
         23    2    4    4    0    0 -0.19266430133E+03  0.49566100822E+03  0.25709741689E+03  0.59744013500E+03  0.89645217698E+02 0.  0.
         13    1    3    3    0    0  0.14903354241E+03 -0.28041710085E+03 -0.15648982222E+03  0.35402515683E+03  0.00000000000E+00 0.  1.
        -13    1    3    3    0    0  0.50170425504E+02 -0.38999055181E+02 -0.21581636770E-02  0.63545242977E+02  0.00000000000E+00 0. -1.
          4    1    5    5  502    0  0.17326172229E+02  0.33215781326E+01  0.79077898493E+02  0.81021868378E+02  0.00000000000E+00 0. -1.
          3    1    6    6  503    0 -0.65416698474E+02  0.75924610791E+02  0.57688577884E+02  0.11563677175E+03  0.00000000000E+00 0. -1.
         -4    1    5    5    0  502 -0.23865838808E+02 -0.17956643032E+03  0.76062760037E+03  0.78190026705E+03  0.00000000000E+00 0.  1.
         -3    1    6    6    0  503 -0.12724760286E+03  0.41973639743E+03  0.19940883900E+03  0.48180336325E+03  0.00000000000E+00 0.  1.
<mgrwt>
<rscale>  0 0.16255604E+04</rscale>
<asrwt>0</asrwt>
<pdfrwt beam="1">  1        1 0.21678797E+00 0.16255604E+04</pdfrwt>
<pdfrwt beam="2">  1       -1 0.72124749E-01 0.16255604E+04</pdfrwt>
<totfact> 0.14059720E+01</totfact>
</mgrwt>
</event>
<event>
12    1  0.4672461E-008  0.1573603E+04  0.7818608E-02  0.8836931E-01
         -1   -1    0    0    0  501 -0.00000000000E+00  0.00000000000E+00  0.21910258409E+03  0.21910258409E+03  0.00000000000E+00 0.  1.
          1   -1    0    0  501    0  0.00000000000E+00 -0.00000000000E+00 -0.28254172501E+04  0.28254172501E+04  0.00000000000E+00 0. -1.
         23    2    1    2    0    0 -0.33329861204E+02 -0.50699138913E+03 -0.63271757764E+03  0.81702695448E+03  0.95133395843E+02 0.  0.
        254    2    1    2    0    0  0.33329861204E+02  0.50699138913E+03 -0.19735970884E+04  0.22274928797E+04  0.89915955960E+03 0.  0.
         23    2    4    4    0    0  0.53052784719E+02  0.65927741939E+03 -0.19330108404E+04  0.20450655202E+04  0.91108502545E+02 0.  0.
         23    2    4    4    0    0 -0.19722923515E+02 -0.15228603026E+03 -0.40586248004E+02  0.18242735951E+03  0.89735551737E+02 0.  0.
         13    1    3    3    0    0 -0.43433294702E+02 -0.26651223393E+03 -0.27113914942E+03  0.38266389988E+03  0.00000000000E+00 0.  1.
        -13    1    3    3    0    0  0.10103433497E+02 -0.24047915520E+03 -0.36157842822E+03  0.43436305460E+03  0.00000000000E+00 0. -1.
          2    1    5    5  502    0  0.69973935490E+02  0.50313662070E+03 -0.13955250562E+04  0.14851036978E+04  0.00000000000E+00 0. -1.
          4    1    6    6  503    0 -0.27291323066E+02 -0.16075872772E+03 -0.27953498747E+02  0.16543754998E+03  0.00000000000E+00 0. -1.
         -2    1    5    5    0  502 -0.16921150771E+02  0.15614079869E+03 -0.53748578421E+03  0.55996182243E+03  0.00000000000E+00 0.  1.
         -4    1    6    6    0  503  0.75683995514E+01  0.84726974561E+01 -0.12632749257E+02  0.16989809526E+02  0.00000000000E+00 0.  1.
<mgrwt>
<rscale>  0 0.15736025E+04</rscale>
<asrwt>0</asrwt>
<pdfrwt beam="1">  1        1 0.43467957E+00 0.15736025E+04</pdfrwt>
<pdfrwt beam="2">  1       -1 0.33708091E-01 0.15736025E+04</pdfrwt>
<totfact> 0.64051113E+00</totfact>
</mgrwt>
</event>
<event>
12    1  0.4672461E-008  0.1361251E+04  0.7818608E-02  0.8982354E-01
         -2   -1    0    0    0  501 -0.00000000000E+00  0.00000000000E+00  0.10126427986E+04  0.10126427986E+04  0.00000000000E+00 0.  1.
          2   -1    0    0  501    0  0.00000000000E+00 -0.00000000000E+00 -0.45746766197E+03  0.45746766197E+03  0.00000000000E+00 0. -1.
         23    2    1    2    0    0 -0.13994231697E+03  0.10861975331E+02  0.53070694410E+03  0.55680171330E+03  0.93147478961E+02 0.  0.
        254    2    1    2    0    0  0.13994231697E+03 -0.10861975331E+02  0.24468192539E+02  0.91330874727E+03  0.90212656585E+03 0.  0.
         23    2    4    4    0    0  0.10706782966E+03  0.28178425201E+03  0.34600550862E+03  0.46795769169E+03  0.91644445493E+02 0.  0.
         23    2    4    4    0    0  0.32874487307E+02 -0.29264622734E+03 -0.32153731608E+03  0.44535105558E+03  0.90712572334E+02 0.  0.
         11    1    3    3    0    0 -0.85838809958E+01  0.33574997789E+02  0.93109765716E+02  0.99349846306E+02  0.00000000000E+00 0. -1.
        -11    1    3    3    0    0 -0.13135843598E+03 -0.22713022458E+02  0.43759717838E+03  0.45745186700E+03  0.00000000000E+00 0.  1.
          4    1    5    5  502    0  0.77590559369E+02  0.24114309183E+03  0.23248521971E+03  0.34383086398E+03  0.00000000000E+00 0. -1.
          1    1    6    6  503    0  0.48040601707E+02 -0.25229016431E+03 -0.23252429586E+03  0.34644736193E+03  0.00000000000E+00 0. -1.
         -4    1    5    5    0  502  0.29477270295E+02  0.40641160183E+02  0.11352028890E+03  0.12412682771E+03  0.00000000000E+00 0.  1.
         -1    1    6    6    0  503 -0.15166114399E+02 -0.40356063031E+02 -0.89013020220E+02  0.98903693652E+02  0.00000000000E+00 0.  1.
<mgrwt>
<rscale>  0 0.13612514E+04</rscale>
<asrwt>0</asrwt>
<pdfrwt beam="1">  1        2 0.70379640E-01 0.13612514E+04</pdfrwt>
<pdfrwt beam="2">  1       -2 0.15579120E+00 0.13612514E+04</pdfrwt>
<totfact> 0.18018048E+01</totfact>
</mgrwt>
</event>
<event>
12    1  0.4672461E-008  0.1713835E+04  0.7818608E-02  0.8753513E-01
         -2   -1    0    0    0  501 -0.00000000000E+00  0.00000000000E+00  0.37881402859E+03  0.37881402859E+03  0.00000000000E+00 0.  1.
          2   -1    0    0  501    0  0.00000000000E+00 -0.00000000000E+00 -0.19384375022E+04  0.19384375022E+04  0.00000000000E+00 0. -1.
         23    2    1    2    0    0  0.94798729822E+02  0.13298702743E+03 -0.13587411306E+04  0.13714184243E+04  0.89099302740E+02 0.  0.
        254    2    1    2    0    0 -0.94798729822E+02 -0.13298702743E+03 -0.20088234296E+03  0.94583310649E+03  0.90971105356E+03 0.  0.
         23    2    4    4    0    0 -0.13193670189E+03  0.34285624484E+03  0.78275777794E+02  0.38562166271E+03  0.87288438121E+02 0.  0.
         23    2    4    4    0    0  0.37137972067E+02 -0.47584327228E+03 -0.27915812076E+03  0.56021144378E+03  0.90008647472E+02 0.  0.
         13    1    3    3    0    0  0.75474936883E+02  0.11090308233E+03 -0.12860499869E+04  0.12930276597E+04  0.00000000000E+00 0. -1.
        -13    1    3    3    0    0  0.19323792939E+02  0.22083945107E+02 -0.72691143689E+02  0.78390764608E+02  0.00000000000E+00 0.  1.
          2    1    5    5  502    0 -0.11687266982E+03  0.20914613061E+03  0.24939590292E+02  0.24088027745E+03  0.00000000000E+00 0. -1.
          3    1    6    6  503    0  0.29541137888E+02 -0.39789653477E+02 -0.26727452143E+02  0.56304991339E+02  0.00000000000E+00 0. -1.
         -2    1    5    5    0  502 -0.15064032069E+02  0.13371011423E+03  0.53336187502E+02  0.14474138526E+03  0.00000000000E+00 0.  1.
         -3    1    6    6    0  503  0.75968341788E+01 -0.43605361880E+03 -0.25243066861E+03  0.50390645244E+03  0.00000000000E+00 0.  1.
<mgrwt>
<rscale>  0 0.17138347E+04</rscale>
<asrwt>0</asrwt>
<pdfrwt beam="1">  1        2 0.29822115E+00 0.17138347E+04</pdfrwt>
<pdfrwt beam="2">  1       -2 0.58279082E-01 0.17138347E+04</pdfrwt>
<totfact> 0.18924550E+01</totfact>
</mgrwt>
</event>
<event>
12    1  0.4672461E-008  0.1253216E+04  0.7818608E-02  0.9067511E-01
         -2   -1    0    0    0  501 -0.00000000000E+00  0.00000000000E+00  0.29204632647E+03  0.29204632647E+03  0.00000000000E+00 0.  1.
          2   -1    0    0  501    0  0.00000000000E+00 -0.00000000000E+00 -0.13444360531E+04  0.13444360531E+04  0.00000000000E+00 0. -1.
         23    2    1    2    0    0  0.53072088337E+02 -0.42437103691E+02 -0.63095716211E+03  0.64123271418E+03  0.91950524670E+02 0.  0.
        254    2    1    2    0    0 -0.53072088337E+02  0.42437103691E+02 -0.42143256453E+03  0.99524966539E+03  0.89905446759E+03 0.  0.
         23    2    4    4    0    0  0.77999404155E+02 -0.35194294807E+03  0.32060573900E+02  0.37342273883E+03  0.92026712033E+02 0.  0.
         23    2    4    4    0    0 -0.13107149249E+03  0.39438005176E+03 -0.45349313843E+03  0.62182692657E+03  0.91089728432E+02 0.  0.
         13    1    3    3    0    0  0.52466419704E+02  0.11181427561E+02 -0.20455642877E+03  0.21147359663E+03  0.00000000000E+00 0.  1.
        -13    1    3    3    0    0  0.60566863300E+00 -0.53618531252E+02 -0.42640073334E+03  0.42975911755E+03  0.00000000000E+00 0. -1.
          2    1    5    5  502    0  0.42290605489E+02 -0.62935260074E+02  0.31785746642E+02  0.82217248573E+02  0.00000000000E+00 0. -1.
          1    1    6    6  503    0 -0.56908419520E+01  0.30093519915E+02 -0.78221971512E+02  0.84004062105E+02  0.00000000000E+00 0. -1.
         -2    1    5    5    0  502  0.35708798666E+02 -0.28900768800E+03  0.27482725776E+00  0.29120549025E+03  0.00000000000E+00 0.  1.
         -1    1    6    6    0  503 -0.12538065054E+03  0.36428653185E+03 -0.37527116692E+03  0.53782286446E+03  0.00000000000E+00 0.  1.
<mgrwt>
<rscale>  0 0.12532160E+04</rscale>
<asrwt>0</asrwt>
<pdfrwt beam="1">  1        2 0.20683631E+00 0.12532160E+04</pdfrwt>
<pdfrwt beam="2">  1       -2 0.44930205E-01 0.12532160E+04</pdfrwt>
<totfact> 0.71922409E+01</totfact>
</mgrwt>
</event>
<event>
12    1  0.4672461E-008  0.2268483E+04  0.7818608E-02  0.8490453E-01
         -1   -1    0    0    0  501 -0.00000000000E+00  0.00000000000E+00  0.74093103008E+03  0.74093103008E+03  0.00000000000E+00 0.  1.
          1   -1    0    0  501    0  0.00000000000E+00 -0.00000000000E+00 -0.17363339352E+04  0.17363339352E+04  0.00000000000E+00 0. -1.
         23    2    1    2    0    0  0.23053047488E+03  0.73872201874E+03 -0.94694255473E+03  0.12261627704E+04  0.88996723690E+02 0.  0.
        254    2    1    2    0    0 -0.23053047488E+03 -0.73872201874E+03 -0.48460350374E+02  0.12511021948E+04  0.98186240152E+03 0.  0.
         23    2    4    4    0    0  0.17757237545E+03 -0.48829198879E+03 -0.38995665887E+03  0.65611250474E+03  0.91958731179E+02 0.  0.
         23    2    4    4    0    0 -0.40810285033E+03 -0.25043002995E+03  0.34149630850E+03  0.59498969009E+03  0.90165770895E+02 0.  0.
         13    1    3    3    0    0  0.11362825403E+03  0.40469564830E+03 -0.58076351079E+03  0.71692133692E+03  0.00000000000E+00 0. -1.
        -13    1    3    3    0    0  0.11690222085E+03  0.33402637044E+03 -0.36617904393E+03  0.50924143351E+03  0.00000000000E+00 0.  1.
          2    1    5    5  502    0 -0.27243679346E+01 -0.92349665430E+02 -0.61486598597E+02  0.11097965891E+03  0.00000000000E+00 0. -1.
          1    1    6    6  503    0 -0.19004317796E+03 -0.83491911254E+02  0.18972954782E+03  0.28121986070E+03  0.00000000000E+00 0. -1.
         -2    1    5    5    0  502  0.18029674338E+03 -0.39594232336E+03 -0.32847006027E+03  0.54513284583E+03  0.00000000000E+00 0.  1.
         -1    1    6    6    0  503 -0.21805967237E+03 -0.16693811869E+03  0.15176676068E+03  0.31376982939E+03  0.00000000000E+00 0.  1.
<mgrwt>
<rscale>  0 0.22684829E+04</rscale>
<asrwt>0</asrwt>
<pdfrwt beam="1">  1        1 0.26712829E+00 0.22684829E+04</pdfrwt>
<pdfrwt beam="2">  1       -1 0.11398939E+00 0.22684829E+04</pdfrwt>
<totfact> 0.28601820E+00</totfact>
</mgrwt>
</event>
<event>
12    1  0.4672461E-008  0.1237760E+04  0.7818608E-02  0.9080432E-01
          2   -1    0    0  501    0  0.00000000000E+00  0.00000000000E+00  0.11403499750E+04  0.11403499750E+04  0.00000000000E+00 0. -1.
         -2   -1    0    0    0  501 -0.00000000000E+00 -0.00000000000E+00 -0.33587284504E+03  0.33587284504E+03  0.00000000000E+00 0.  1.
         23    2    1    2    0    0 -0.22055596454E+03 -0.32034379097E+02  0.39575242574E+03  0.46425945947E+03  0.96154710194E+02 0.  0.
        254    2    1    2    0    0  0.22055596454E+03  0.32034379097E+02  0.40872470421E+03  0.10119633605E+04  0.89852257864E+03 0.  0.
         23    2    4    4    0    0  0.21152827567E+02  0.30453489851E+03  0.54933438784E+03  0.63523915813E+03  0.92582783632E+02 0.  0.
         23    2    4    4    0    0  0.19940313697E+03 -0.27250051942E+03 -0.14060968363E+03  0.37672420242E+03  0.90177033896E+02 0.  0.
         11    1    3    3    0    0 -0.71335420710E+00  0.13826499576E+02  0.50740983103E+02  0.52595896523E+02  0.00000000000E+00 0. -1.
        -11    1    3    3    0    0 -0.21984261033E+03 -0.45860878672E+02  0.34501144264E+03  0.41166356295E+03  0.00000000000E+00 0.  1.
          4    1    5    5  502    0  0.16683707164E+02  0.12673056440E+02  0.13109974866E+02  0.24714851512E+02  0.00000000000E+00 0.  1.
          3    1    6    6  503    0  0.16698818672E+03 -0.16122125122E+03 -0.10991621184E+03  0.25682468724E+03  0.00000000000E+00 0. -1.
         -4    1    5    5    0  502  0.44691204028E+01  0.29186184207E+03  0.53622441298E+03  0.61052430662E+03  0.00000000000E+00 0. -1.
         -3    1    6    6    0  503  0.32414950246E+02 -0.11127926820E+03 -0.30693471795E+02  0.11989951519E+03  0.00000000000E+00 0.  1.
<mgrwt>
<rscale>  0 0.12377602E+04</rscale>
<asrwt>0</asrwt>
<pdfrwt beam="1">  1        2 0.17543846E+00 0.12377602E+04</pdfrwt>
<pdfrwt beam="2">  1       -2 0.51672746E-01 0.12377602E+04</pdfrwt>
<totfact> 0.71639640E+01</totfact>
</mgrwt>
</event>
<event>
12    1  0.4672461E-008  0.1989013E+04  0.7818608E-02  0.8611775E-01
          2   -1    0    0  501    0  0.00000000000E+00  0.00000000000E+00  0.15077460827E+04  0.15077460827E+04  0.00000000000E+00 0. -1.
         -2   -1    0    0    0  501 -0.00000000000E+00 -0.00000000000E+00 -0.65597472134E+03  0.65597472134E+03  0.00000000000E+00 0.  1.
         23    2    1    2    0    0 -0.99974808549E+02  0.42322781534E+03 -0.40747002263E+03  0.60291837696E+03  0.91443993272E+02 0.  0.
        254    2    1    2    0    0  0.99974808549E+02 -0.42322781534E+03  0.12592413840E+04  0.15608024271E+04  0.81320268519E+03 0.  0.
         23    2    4    4    0    0  0.55547498426E+02  0.17891802587E+03  0.63906058976E+02  0.21842594400E+03  0.92351091358E+02 0.  0.
         23    2    4    4    0    0  0.44427310123E+02 -0.60214584121E+03  0.11953353250E+04  0.13423764831E+04  0.92707513948E+02 0.  0.
         11    1    3    3    0    0 -0.10725119086E+03  0.42321791725E+03 -0.39659589352E+03  0.58983432096E+03  0.00000000000E+00 0.  1.
        -11    1    3    3    0    0  0.72763823108E+01  0.98980939092E-02 -0.10874129112E+02  0.13084056001E+02  0.00000000000E+00 0. -1.
          1    1    5    5  502    0  0.70978101863E+02  0.13917088647E+03  0.76524011444E+02  0.17396077407E+03  0.00000000000E+00 0. -1.
          3    1    6    6  503    0  0.73303349938E+02 -0.43926177704E+03  0.88220415081E+03  0.98823501941E+03  0.00000000000E+00 0. -1.
         -1    1    5    5    0  502 -0.15430603438E+02  0.39747139397E+02 -0.12617952468E+02  0.44465169933E+02  0.00000000000E+00 0.  1.
         -3    1    6    6    0  503 -0.28876039815E+02 -0.16288406417E+03  0.31313117417E+03  0.35414146365E+03  0.00000000000E+00 0.  1.
<mgrwt>
<rscale>  0 0.19890131E+04</rscale>
<asrwt>0</asrwt>
<pdfrwt beam="1">  1        2 0.23196093E+00 0.19890131E+04</pdfrwt>
<pdfrwt beam="2">  1       -2 0.10091919E+00 0.19890131E+04</pdfrwt>
<totfact> 0.94454839E+00</totfact>
</mgrwt>
</event>
<event>
12    1  0.4672461E-008  0.2459189E+04  0.7818608E-02  0.8417670E-01
          1   -1    0    0  501    0  0.00000000000E+00  0.00000000000E+00  0.22124075471E+04  0.22124075471E+04  0.00000000000E+00 0. -1.
         -1   -1    0    0    0  501 -0.00000000000E+00 -0.00000000000E+00 -0.68337454094E+03  0.68337454094E+03  0.00000000000E+00 0.  1.
         23    2    1    2    0    0  0.23669687641E+03 -0.78725906997E+03  0.14529466473E+04  0.16718406474E+04  0.90525884276E+02 0.  0.
        254    2    1    2    0    0 -0.23669687641E+03  0.78725906997E+03  0.76086358888E+02  0.12239414407E+04  0.90357139271E+03 0.  0.
         23    2    4    4    0    0 -0.54242752715E+03  0.68291334325E+03 -0.13785011863E+02  0.87682956959E+03  0.89676144872E+02 0.  0.
         23    2    4    4    0    0  0.30573065074E+03  0.10434572672E+03  0.89871370751E+02  0.34711187112E+03  0.89724725169E+02 0.  0.
         13    1    3    3    0    0  0.22837610453E+03 -0.76149907872E+03  0.13630325934E+04  0.15779399047E+04  0.00000000000E+00 0. -1.
        -13    1    3    3    0    0  0.83207718803E+01 -0.25759991251E+02  0.89914053890E+02  0.93900742707E+02  0.00000000000E+00 0.  1.
          2    1    5    5  502    0 -0.10947268579E+03  0.17058436834E+03  0.28722793995E+02  0.20471515467E+03  0.00000000000E+00 0. -1.
          1    1    6    6  503    0  0.12270129447E+03  0.81364966722E+01  0.34941435526E+01  0.12302040189E+03  0.00000000000E+00 0.  1.
         -2    1    5    5    0  502 -0.43295484136E+03  0.51232897492E+03 -0.42507805858E+02  0.67211441493E+03  0.00000000000E+00 0.  1.
         -1    1    6    6    0  503  0.18302935627E+03  0.96209230046E+02  0.86377227198E+02  0.22409146923E+03  0.00000000000E+00 0. -1.
<mgrwt>
<rscale>  0 0.24591893E+04</rscale>
<asrwt>0</asrwt>
<pdfrwt beam="1">  1        1 0.34037039E+00 0.24591893E+04</pdfrwt>
<pdfrwt beam="2">  1       -1 0.10513455E+00 0.24591893E+04</pdfrwt>
<totfact> 0.16163714E+00</totfact>
</mgrwt>
</event>
<event>
12    1  0.4672461E-008  0.1649494E+04  0.7818608E-02  0.8790706E-01
         -2   -1    0    0    0  501 -0.00000000000E+00  0.00000000000E+00  0.60206090116E+03  0.60206090116E+03  0.00000000000E+00 0. -1.
          2   -1    0    0  501    0  0.00000000000E+00 -0.00000000000E+00 -0.11297992002E+04  0.11297992002E+04  0.00000000000E+00 0.  1.
         23    2    1    2    0    0  0.24028943958E+03 -0.28049977132E+03  0.27576564039E+03  0.46975935889E+03  0.90598180787E+02 0.  0.
        254    2    1    2    0    0 -0.24028943958E+03  0.28049977132E+03 -0.80350393948E+03  0.12621007425E+04  0.90047796586E+03 0.  0.
         23    2    4    4    0    0 -0.29713647646E+03 -0.24766894822E+03 -0.51051692723E+03  0.64763830476E+03  0.95801081671E+02 0.  0.
         23    2    4    4    0    0  0.56847036885E+02  0.52816871954E+03 -0.29298701225E+03  0.61446243775E+03  0.97616167485E+02 0.  0.
         11    1    3    3    0    0  0.29703172932E+02 -0.24847680717E+00  0.19701408362E+02  0.35643873448E+02  0.00000000000E+00 0.  1.
        -11    1    3    3    0    0  0.21058626664E+03 -0.28025129452E+03  0.25606423203E+03  0.43411548544E+03  0.00000000000E+00 0. -1.
          2    1    5    5  502    0 -0.71648587590E+02 -0.22657910856E+02 -0.61513618825E+02  0.97112441680E+02  0.00000000000E+00 0. -1.
          1    1    6    6  503    0 -0.27195758668E+02  0.93012443311E+02 -0.53943694616E+02  0.11090917946E+03  0.00000000000E+00 0. -1.
         -2    1    5    5    0  502 -0.22548788887E+03 -0.22501103736E+03 -0.44900330841E+03  0.55052586308E+03  0.00000000000E+00 0.  1.
         -1    1    6    6    0  503  0.84042795553E+02  0.43515627623E+03 -0.23904331763E+03  0.50355325829E+03  0.00000000000E+00 0.  1.
<mgrwt>
<rscale>  0 0.16494944E+04</rscale>
<asrwt>0</asrwt>
<pdfrwt beam="1">  1        2 0.17381526E+00 0.16494944E+04</pdfrwt>
<pdfrwt beam="2">  1       -2 0.92624754E-01 0.16494944E+04</pdfrwt>
<totfact> 0.19730736E+01</totfact>
</mgrwt>
</event>
<event>
12    1  0.4672461E-008  0.1083530E+04  0.7818608E-02  0.9221394E-01
         -2   -1    0    0    0  501 -0.00000000000E+00  0.00000000000E+00  0.27226400106E+03  0.27226400106E+03  0.00000000000E+00 0.  1.
          2   -1    0    0  501    0  0.00000000000E+00 -0.00000000000E+00 -0.10780329674E+04  0.10780329674E+04  0.00000000000E+00 0. -1.
         23    2    1    2    0    0 -0.75574566979E+02 -0.11161241016E+03 -0.23082874572E+03  0.28160678084E+03  0.88609389389E+02 0.  0.
        254    2    1    2    0    0  0.75574566979E+02  0.11161241016E+03 -0.57494022063E+03  0.10686901876E+04  0.89071522643E+03 0.  0.
         23    2    4    4    0    0  0.33559810848E+03 -0.25339233915E+03 -0.18531105134E+03  0.46778098955E+03  0.87436265238E+02 0.  0.
         23    2    4    4    0    0 -0.26002354150E+03  0.36500474931E+03 -0.38962916929E+03  0.60090919810E+03  0.91870918404E+02 0.  0.
         11    1    3    3    0    0 -0.16322237680E+02  0.11920284158E+02 -0.12237834724E+02  0.23627805993E+02  0.00000000000E+00 0.  1.
        -11    1    3    3    0    0 -0.59252329299E+02 -0.12353269432E+03 -0.21859091100E+03  0.25797897485E+03  0.00000000000E+00 0. -1.
          4    1    5    5  502    0  0.14246858530E+03 -0.67005561408E+02 -0.39448071760E+02  0.16230586380E+03  0.00000000000E+00 0. -1.
          1    1    6    6  503    0 -0.12815414523E+03  0.16389715294E+03 -0.24021034414E+03  0.31778415806E+03  0.00000000000E+00 0. -1.
         -4    1    5    5    0  502  0.19312952317E+03 -0.18638677774E+03 -0.14586297958E+03  0.30547512575E+03  0.00000000000E+00 0.  1.
         -1    1    6    6    0  503 -0.13186939627E+03  0.20110759636E+03 -0.14941882515E+03  0.28312504004E+03  0.00000000000E+00 0.  1.
<mgrwt>
<rscale>  0 0.10835305E+04</rscale>
<asrwt>0</asrwt>
<pdfrwt beam="1">  1        2 0.16585123E+00 0.10835305E+04</pdfrwt>
<pdfrwt beam="2">  1       -2 0.41886769E-01 0.10835305E+04</pdfrwt>
<totfact> 0.12059055E+02</totfact>
</mgrwt>
</event>
<event>
12    1  0.4672461E-008  0.1775671E+04  0.7818608E-02  0.8719346E-01
          1   -1    0    0  501    0  0.00000000000E+00  0.00000000000E+00  0.98911414326E+03  0.98911414326E+03  0.00000000000E+00 0. -1.
         -1   -1    0    0    0  501 -0.00000000000E+00 -0.00000000000E+00 -0.79692682932E+03  0.79692682932E+03  0.00000000000E+00 0.  1.
         23    2    1    2    0    0  0.62514599792E+03  0.20721333783E+03  0.75605859911E+02  0.66888173486E+03  0.89115896926E+02 0.  0.
        254    2    1    2    0    0 -0.62514599792E+03 -0.20721333783E+03  0.11658145403E+03  0.11171592377E+04  0.89482324562E+03 0.  0.
         23    2    4    4    0    0 -0.25754712325E+03  0.28356892836E+03 -0.17491953882E+03  0.43125711275E+03  0.92973084316E+02 0.  0.
         23    2    4    4    0    0 -0.36759887468E+03 -0.49078226619E+03  0.29150099285E+03  0.68590212498E+03  0.97430645802E+02 0.  0.
         11    1    3    3    0    0  0.24605019641E+02 -0.69261502359E+01  0.11692777420E+02  0.28108710259E+02  0.00000000000E+00 0.  1.
        -11    1    3    3    0    0  0.60054097828E+03  0.21413948806E+03  0.63913082490E+02  0.64077302460E+03  0.00000000000E+00 0. -1.
          2    1    5    5  502    0 -0.23091623641E+02  0.71325040623E+02 -0.13450794592E+02  0.76166976948E+02  0.00000000000E+00 0.  1.
          3    1    6    6  503    0 -0.10526252555E+03 -0.16481220926E+03  0.14159287778E+03  0.24143696205E+03  0.00000000000E+00 0. -1.
         -2    1    5    5    0  502 -0.23445549960E+03  0.21224388774E+03 -0.16146874423E+03  0.35509013580E+03  0.00000000000E+00 0. -1.
         -3    1    6    6    0  503 -0.26233634912E+03 -0.32597005693E+03  0.14990811506E+03  0.44446516292E+03  0.00000000000E+00 0.  1.
<mgrwt>
<rscale>  0 0.17756707E+04</rscale>
<asrwt>0</asrwt>
<pdfrwt beam="1">  1        1 0.15217141E+00 0.17756707E+04</pdfrwt>
<pdfrwt beam="2">  1       -1 0.12260413E+00 0.17756707E+04</pdfrwt>
<totfact> 0.85693523E+00</totfact>
</mgrwt>
</event>
<event>
12    1  0.4672461E-008  0.9862596E+03  0.7818608E-02  0.9323745E-01
          1   -1    0    0  501    0  0.00000000000E+00  0.00000000000E+00  0.38135489137E+03  0.38135489137E+03  0.00000000000E+00 0. -1.
         -1   -1    0    0    0  501 -0.00000000000E+00 -0.00000000000E+00 -0.63766589308E+03  0.63766589308E+03  0.00000000000E+00 0.  1.
         23    2    1    2    0    0 -0.15627784000E+02 -0.36841576752E+01 -0.44104148623E+00  0.86283249518E+02  0.84775019784E+02 0.  0.
        254    2    1    2    0    0  0.15627784000E+02  0.36841576752E+01 -0.25586996022E+03  0.93273753494E+03  0.89681217202E+03 0.  0.
         23    2    4    4    0    0 -0.13440304766E+03 -0.14709284385E+03  0.27616666788E+03  0.35239288874E+03  0.90621386314E+02 0.  0.
         23    2    4    4    0    0  0.15003083166E+03  0.15077700153E+03 -0.53203662810E+03  0.58034464620E+03  0.92162791257E+02 0.  0.
         11    1    3    3    0    0  0.13627064605E+02 -0.38401258143E+02  0.22010502422E+01  0.40806839364E+02  0.00000000000E+00 0.  1.
        -11    1    3    3    0    0 -0.29254848605E+02  0.34717100468E+02 -0.26420917284E+01  0.45476410154E+02  0.00000000000E+00 0. -1.
          2    1    5    5  502    0 -0.95208417743E+02 -0.11359367678E+03  0.12912739455E+03  0.19657581295E+03  0.00000000000E+00 0. -1.
          3    1    6    6  503    0  0.14127492853E+03  0.14686562945E+03 -0.40921113439E+03  0.45714535003E+03  0.00000000000E+00 0. -1.
         -2    1    5    5    0  502 -0.39194629919E+02 -0.33499167076E+02  0.14703927332E+03  0.15581707579E+03  0.00000000000E+00 0.  1.
         -3    1    6    6    0  503  0.87559031281E+01  0.39113720779E+01 -0.12282549371E+03  0.12319929617E+03  0.00000000000E+00 0.  1.
<mgrwt>
<rscale>  0 0.98625962E+03</rscale>
<asrwt>0</asrwt>
<pdfrwt beam="1">  1        1 0.58669984E-01 0.98625962E+03</pdfrwt>
<pdfrwt beam="2">  1       -1 0.98102443E-01 0.98625962E+03</pdfrwt>
<totfact> 0.63913353E+01</totfact>
</mgrwt>
</event>
<event>
12    1  0.4672461E-008  0.1961089E+04  0.7818608E-02  0.8625032E-01
         -1   -1    0    0    0  501 -0.00000000000E+00  0.00000000000E+00  0.31075012642E+03  0.31075012642E+03  0.00000000000E+00 0.  1.
          1   -1    0    0  501    0  0.00000000000E+00 -0.00000000000E+00 -0.30940220197E+04  0.30940220197E+04  0.00000000000E+00 0. -1.
         23    2    1    2    0    0 -0.52458164127E+03 -0.79707836205E+02 -0.20735947842E+04  0.21425482938E+04  0.95805138919E+02 0.  0.
        254    2    1    2    0    0  0.52458164127E+03  0.79707836205E+02 -0.70967710907E+03  0.12622238523E+04  0.89890389737E+03 0.  0.
         23    2    4    4    0    0  0.41090178979E+03 -0.37400026305E+03 -0.43841441861E+03  0.71392439790E+03  0.93618191965E+02 0.  0.
         23    2    4    4    0    0  0.11367985147E+03  0.45370809925E+03 -0.27126269047E+03  0.54829945442E+03  0.90965358866E+02 0.  0.
         11    1    3    3    0    0 -0.46737428916E+03 -0.43540236736E+02 -0.18692986133E+04  0.19273328161E+04  0.00000000000E+00 0. -1.
        -11    1    3    3    0    0 -0.57207352104E+02 -0.36167599468E+02 -0.20429617094E+03  0.21521547771E+03  0.00000000000E+00 0.  1.
          2    1    5    5  502    0 -0.18660836716E+01 -0.54464638987E+01 -0.18214417529E+02  0.19102650162E+02  0.00000000000E+00 0. -1.
          1    1    6    6  503    0 -0.30353777532E+01  0.17946466539E+01 -0.15861470342E+02  0.16248708137E+02  0.00000000000E+00 0. -1.
         -2    1    5    5    0  502  0.41276787346E+03 -0.36855379915E+03 -0.42020000108E+03  0.69482174774E+03  0.00000000000E+00 0.  1.
         -1    1    6    6    0  503  0.11671522923E+03  0.45191345260E+03 -0.25540122013E+03  0.53205074628E+03  0.00000000000E+00 0.  1.
<mgrwt>
<rscale>  0 0.19610892E+04</rscale>
<asrwt>0</asrwt>
<pdfrwt beam="1">  1        1 0.47600340E+00 0.19610892E+04</pdfrwt>
<pdfrwt beam="2">  1       -1 0.47807710E-01 0.19610892E+04</pdfrwt>
<totfact> 0.20791601E+00</totfact>
</mgrwt>
</event>
<event>
12    1  0.4672461E-008  0.1475730E+04  0.7818608E-02  0.8900755E-01
          2   -1    0    0  501    0  0.00000000000E+00  0.00000000000E+00  0.11388712972E+04  0.11388712972E+04  0.00000000000E+00 0. -1.
         -2   -1    0    0    0  501 -0.00000000000E+00 -0.00000000000E+00 -0.47805626257E+03  0.47805626257E+03  0.00000000000E+00 0.  1.
         23    2    1    2    0    0  0.15214765629E+03 -0.70726273999E+02 -0.26092334671E+03  0.32408307015E+03  0.93796206474E+02 0.  0.
        254    2    1    2    0    0 -0.15214765629E+03  0.70726273999E+02  0.92173838134E+03  0.12928444896E+04  0.89089512041E+03 0.  0.
         23    2    4    4    0    0 -0.34019000296E+03 -0.20382759855E+03  0.12725377143E+03  0.42662497583E+03  0.92414390741E+02 0.  0.
         23    2    4    4    0    0  0.18804234667E+03  0.27455387254E+03  0.79448460991E+03  0.86621951380E+03  0.91600751253E+02 0.  0.
         11    1    3    3    0    0  0.56871160506E+02 -0.53838986648E+02 -0.18564716960E+03  0.20148904924E+03  0.00000000000E+00 0.  1.
        -11    1    3    3    0    0  0.95276495783E+02 -0.16887287351E+02 -0.75276177104E+02  0.12259402091E+03  0.00000000000E+00 0. -1.
          1    1    5    5  502    0 -0.16409144969E+03 -0.47814984535E+02  0.68504600281E+02  0.18413352999E+03  0.00000000000E+00 0. -1.
          3    1    6    6  503    0  0.10122844135E+02  0.16792960768E+02  0.13177221084E+03  0.13322308754E+03  0.00000000000E+00 0. -1.
         -1    1    5    5    0  502 -0.17609855327E+03 -0.15601261401E+03  0.58749171146E+02  0.24249144584E+03  0.00000000000E+00 0.  1.
         -3    1    6    6    0  503  0.17791950253E+03  0.25776091178E+03  0.66271239907E+03  0.73299642626E+03  0.00000000000E+00 0.  1.
<mgrwt>
<rscale>  0 0.14757297E+04</rscale>
<asrwt>0</asrwt>
<pdfrwt beam="1">  1        2 0.17521097E+00 0.14757297E+04</pdfrwt>
<pdfrwt beam="2">  1       -2 0.73547117E-01 0.14757297E+04</pdfrwt>
<totfact> 0.33289085E+01</totfact>
</mgrwt>
</event>
<event>
12    1  0.4672461E-008  0.1839039E+04  0.7818608E-02  0.8685810E-01
          1   -1    0    0  501    0  0.00000000000E+00  0.00000000000E+00  0.16900881048E+04  0.16900881048E+04  0.00000000000E+00 0. -1.
         -1   -1    0    0    0  501 -0.00000000000E+00 -0.00000000000E+00 -0.50027906312E+03  0.50027906312E+03  0.00000000000E+00 0.  1.
         23    2    1    2    0    0 -0.14693579366E+03  0.15687124743E+03  0.12368522702E+04  0.12589401802E+04  0.94488747484E+02 0.  0.
        254    2    1    2    0    0  0.14693579366E+03 -0.15687124743E+03 -0.47043228543E+02  0.93142698765E+03  0.90506599330E+03 0.  0.
         23    2    4    4    0    0  0.34211673197E+02  0.11126094951E+03  0.37940322033E+03  0.40708929083E+03  0.90694264644E+02 0.  0.
         23    2    4    4    0    0  0.11272412047E+03 -0.26813219695E+03 -0.42644644887E+03  0.52433769682E+03  0.92042621509E+02 0.  0.
         11    1    3    3    0    0 -0.83163441974E+02  0.12549652469E+03  0.62045621227E+03  0.63846021578E+03  0.00000000000E+00 0. -1.
        -11    1    3    3    0    0 -0.63772351690E+02  0.31374722738E+02  0.61639605791E+03  0.62047996444E+03  0.00000000000E+00 0.  1.
          1    1    6    6  502    0  0.63325066666E+02 -0.15970394256E+03 -0.17064234659E+03  0.24214504700E+03  0.00000000000E+00 0. -1.
          1    1    5    5  503    0  0.17024305548E+01  0.16570317717E+02  0.21715376699E+01  0.16798490256E+02  0.00000000000E+00 0. -1.
         -1    1    5    5    0  503  0.32509242642E+02  0.94690631798E+02  0.37723168266E+03  0.39029080057E+03  0.00000000000E+00 0.  1.
         -1    1    6    6    0  502  0.49399053801E+02 -0.10842825438E+03 -0.25580410228E+03  0.28219264982E+03  0.00000000000E+00 0.  1.
<mgrwt>
<rscale>  0 0.18390385E+04</rscale>
<asrwt>0</asrwt>
<pdfrwt beam="1">  1        1 0.26001355E+00 0.18390385E+04</pdfrwt>
<pdfrwt beam="2">  1       -1 0.76966011E-01 0.18390385E+04</pdfrwt>
<totfact> 0.77081139E+00</totfact>
</mgrwt>
</event>
<event>
12    1  0.4672461E-008  0.1359466E+04  0.7818608E-02  0.8983693E-01
         -2   -1    0    0    0  501 -0.00000000000E+00  0.00000000000E+00  0.23283078755E+03  0.23283078755E+03  0.00000000000E+00 0.  1.
          2   -1    0    0  501    0  0.00000000000E+00 -0.00000000000E+00 -0.19844335190E+04  0.19844335190E+04  0.00000000000E+00 0. -1.
         23    2    1    2    0    0 -0.45128230669E+02 -0.14312694318E+03 -0.10479468021E+04  0.10626307448E+04  0.92031085365E+02 0.  0.
        254    2    1    2    0    0  0.45128230669E+02  0.14312694318E+03 -0.70365592934E+03  0.11546335618E+04  0.90306429227E+03 0.  0.
         23    2    4    4    0    0 -0.85488039177E+02 -0.36355964626E+03 -0.29371154211E+03  0.48370785470E+03  0.90680744935E+02 0.  0.
         23    2    4    4    0    0  0.13061626985E+03  0.50668658944E+03 -0.40994438723E+03  0.67092570705E+03  0.91076857108E+02 0.  0.
         11    1    3    3    0    0 -0.37480187715E+01 -0.10018407033E+03 -0.41744116642E+03  0.42931110283E+03  0.00000000000E+00 0. -1.
        -11    1    3    3    0    0 -0.41380211898E+02 -0.42942872848E+02 -0.63050563570E+03  0.63331964198E+03  0.00000000000E+00 0.  1.
          4    1    5    5  502    0 -0.18218550644E+02 -0.41984245238E+01 -0.13068558041E+02  0.22810733555E+02  0.00000000000E+00 0. -1.
          1    1    6    6  503    0  0.11080572683E+03  0.36174431735E+03 -0.34047336422E+03  0.50897836101E+03  0.00000000000E+00 0. -1.
         -4    1    5    5    0  502 -0.67269488533E+02 -0.35936122174E+03 -0.28064298407E+03  0.46089712115E+03  0.00000000000E+00 0.  1.
         -1    1    6    6    0  503  0.19810543018E+02  0.14494227208E+03 -0.69471023005E+02  0.16194734604E+03  0.00000000000E+00 0.  1.
<mgrwt>
<rscale>  0 0.13594664E+04</rscale>
<asrwt>0</asrwt>
<pdfrwt beam="1">  1        2 0.30529747E+00 0.13594664E+04</pdfrwt>
<pdfrwt beam="2">  1       -2 0.35820121E-01 0.13594664E+04</pdfrwt>
<totfact> 0.48783488E+01</totfact>
</mgrwt>
</event>
<event>
12    1  0.4672461E-008  0.1390086E+04  0.7818608E-02  0.8961026E-01
          1   -1    0    0  501    0  0.00000000000E+00  0.00000000000E+00  0.45319645269E+03  0.45319645269E+03  0.00000000000E+00 0. -1.
         -1   -1    0    0    0  501 -0.00000000000E+00 -0.00000000000E+00 -0.10659497979E+04  0.10659497979E+04  0.00000000000E+00 0.  1.
         23    2    1    2    0    0 -0.39076773642E+03 -0.40419396586E+02 -0.24933617611E+03  0.47412232859E+03  0.91051097239E+02 0.  0.
        254    2    1    2    0    0  0.39076773642E+03  0.40419396586E+02 -0.36341716908E+03  0.10450239220E+04  0.89759111364E+03 0.  0.
         23    2    4    4    0    0  0.54677165287E+03 -0.22598969996E+03 -0.40127079423E+03  0.72085816210E+03  0.92669599584E+02 0.  0.
         23    2    4    4    0    0 -0.15600391646E+03  0.26640909655E+03  0.37853625153E+02  0.32416575988E+03  0.91320940992E+02 0.  0.
         13    1    3    3    0    0 -0.39444763384E+03 -0.42986986300E+02 -0.23988771348E+03  0.46366251941E+03  0.00000000000E+00 0.  1.
        -13    1    3    3    0    0  0.36798974220E+01  0.25675897139E+01 -0.94484626272E+01  0.10459809176E+02  0.00000000000E+00 0. -1.
          4    1    5    5  502    0  0.53397271963E+03 -0.22807989589E+03 -0.40430698049E+03  0.70753900153E+03  0.00000000000E+00 0. -1.
          1    1    6    6  503    0 -0.13423365930E+03  0.24252363167E+03  0.61730359101E+02  0.28398419752E+03  0.00000000000E+00 0. -1.
         -4    1    5    5    0  502  0.12798933244E+02  0.20901959285E+01  0.30361862576E+01  0.13319160566E+02  0.00000000000E+00 0.  1.
         -1    1    6    6    0  503 -0.21770257159E+02  0.23885464884E+02 -0.23876733948E+02  0.40181562358E+02  0.00000000000E+00 0.  1.
<mgrwt>
<rscale>  0 0.13900858E+04</rscale>
<asrwt>0</asrwt>
<pdfrwt beam="1">  1        1 0.69722532E-01 0.13900858E+04</pdfrwt>
<pdfrwt beam="2">  1       -1 0.16399228E+00 0.13900858E+04</pdfrwt>
<totfact> 0.13493523E+01</totfact>
</mgrwt>
</event>
<event>
12    1  0.4672461E-008  0.1772766E+04  0.7818608E-02  0.8720918E-01
         -2   -1    0    0    0  501 -0.00000000000E+00  0.00000000000E+00  0.17396470990E+04  0.17396470990E+04  0.00000000000E+00 0.  1.
          2   -1    0    0  501    0  0.00000000000E+00 -0.00000000000E+00 -0.45162882225E+03  0.45162882225E+03  0.00000000000E+00 0. -1.
         23    2    1    2    0    0 -0.22815335926E+03 -0.60510491216E+03  0.37669002292E+03  0.75397721516E+03  0.91544292789E+02 0.  0.
        254    2    1    2    0    0  0.22815335926E+03  0.60510491216E+03  0.91132825381E+03  0.14372987061E+04  0.90393720703E+03 0.  0.
         23    2    4    4    0    0  0.55408501639E+03  0.44228920265E+03  0.45495868617E+03  0.84622851077E+03  0.80531621961E+02 0.  0.
         23    2    4    4    0    0 -0.32593165713E+03  0.16281570951E+03  0.45636956763E+03  0.59107019532E+03  0.91380485568E+02 0.  0.
         13    1    3    3    0    0 -0.17361512160E+03 -0.39255950924E+03  0.29011516152E+03  0.51808492131E+03  0.00000000000E+00 0. -1.
        -13    1    3    3    0    0 -0.54538237661E+02 -0.21254540292E+03  0.86574861398E+02  0.23589229385E+03  0.00000000000E+00 0.  1.
          4    1    5    5  502    0  0.26818671197E+03  0.17033586295E+03  0.22771320555E+03  0.39088581794E+03  0.00000000000E+00 0. -1.
          3    1    6    6  503    0 -0.12548836095E+03  0.97903737378E+02  0.14626156059E+03  0.21615946575E+03  0.00000000000E+00 0. -1.
         -4    1    5    5    0  502  0.28589830442E+03  0.27195333971E+03  0.22724548063E+03  0.45534269283E+03  0.00000000000E+00 0.  1.
         -3    1    6    6    0  503 -0.20044329618E+03  0.64911972131E+02  0.31010800705E+03  0.37491072957E+03  0.00000000000E+00 0.  1.
<mgrwt>
<rscale>  0 0.17727659E+04</rscale>
<asrwt>0</asrwt>
<pdfrwt beam="1">  1        2 0.69481358E-01 0.17727659E+04</pdfrwt>
<pdfrwt beam="2">  1       -2 0.26763801E+00 0.17727659E+04</pdfrwt>
<totfact> 0.32850563E+00</totfact>
</mgrwt>
</event>
<event>
12    1  0.4672461E-008  0.2310941E+04  0.7818608E-02  0.8473620E-01
          2   -1    0    0  501    0  0.00000000000E+00  0.00000000000E+00  0.28939714114E+04  0.28939714114E+04  0.00000000000E+00 0.  1.
         -2   -1    0    0    0  501 -0.00000000000E+00 -0.00000000000E+00 -0.46134242748E+03  0.46134242748E+03  0.00000000000E+00 0. -1.
         23    2    1    2    0    0  0.37018123051E+03  0.53763666696E+03  0.20792193112E+04  0.21811431693E+04  0.90251047578E+02 0.  0.
        254    2    1    2    0    0 -0.37018123051E+03 -0.53763666696E+03  0.35340967268E+03  0.11741706696E+04  0.90977526650E+03 0.  0.
         23    2    4    4    0    0 -0.31541015925E+02 -0.34824754158E+03  0.60453360630E+03  0.70385204582E+03  0.87610703407E+02 0.  0.
         23    2    4    4    0    0 -0.33864021458E+03 -0.18938912538E+03 -0.25112393361E+03  0.47031862379E+03  0.87126012806E+02 0.  0.
         13    1    3    3    0    0  0.15365427517E+03  0.21361133941E+03  0.69628497716E+03  0.74434683450E+03  0.00000000000E+00 0.  1.
        -13    1    3    3    0    0  0.21652695534E+03  0.32402532755E+03  0.13829343340E+04  0.14367963348E+04  0.00000000000E+00 0. -1.
          4    1    5    5  502    0 -0.29910248818E+02 -0.16226309281E+03  0.36522205111E+03  0.40076312316E+03  0.00000000000E+00 0. -1.
          3    1    6    6  503    0  0.12626599114E+01  0.14200118751E+01  0.40172947240E+01  0.44440297790E+01  0.00000000000E+00 0. -1.
         -4    1    5    5    0  502 -0.16307671070E+01 -0.18598444877E+03  0.23931155519E+03  0.30308892265E+03  0.00000000000E+00 0.  1.
         -3    1    6    6    0  503 -0.33990287449E+03 -0.19080913726E+03 -0.25514122834E+03  0.46587459401E+03  0.00000000000E+00 0.  1.
<mgrwt>
<rscale>  0 0.23109408E+04</rscale>
<asrwt>0</asrwt>
<pdfrwt beam="1">  1        2 0.44522636E+00 0.23109408E+04</pdfrwt>
<pdfrwt beam="2">  1       -2 0.70975760E-01 0.23109408E+04</pdfrwt>
<totfact> 0.33117804E+00</totfact>
</mgrwt>
</event>
<event>
12    1  0.4672461E-008  0.2858808E+04  0.7818608E-02  0.8285240E-01
          1   -1    0    0  501    0  0.00000000000E+00  0.00000000000E+00  0.15963299438E+04  0.15963299438E+04  0.00000000000E+00 0. -1.
         -1   -1    0    0    0  501 -0.00000000000E+00 -0.00000000000E+00 -0.12799332172E+04  0.12799332172E+04  0.00000000000E+00 0.  1.
         23    2    1    2    0    0 -0.64483953771E+03 -0.42642217407E+03  0.11735890260E+04  0.14081378058E+04  0.88808660895E+02 0.  0.
        254    2    1    2    0    0  0.64483953771E+03  0.42642217407E+03 -0.85719229935E+03  0.14681253552E+04  0.90717116387E+03 0.  0.
         23    2    4    4    0    0  0.34357168964E+03  0.10936766341E+03  0.12240610241E+03  0.39152800007E+03  0.91148939703E+02 0.  0.
         23    2    4    4    0    0  0.30126784807E+03  0.31705451067E+03 -0.97959840175E+03  0.10765973551E+04  0.90349085907E+02 0.  0.
         13    1    3    3    0    0  0.23242821594E+01  0.10399607031E+01  0.32260250524E+01  0.41098714651E+01  0.00000000000E+00 0.  1.
        -13    1    3    3    0    0 -0.64716381987E+03 -0.42746213478E+03  0.11703630009E+04  0.14040279343E+04  0.00000000000E+00 0. -1.
          4    1    5    5  502    0 -0.16709428819E+01  0.38128509079E+01 -0.68939617696E+01  0.80533589911E+01  0.00000000000E+00 0. -1.
          1    1    6    6  503    0  0.34072706388E+02  0.70665221285E+02 -0.24040373545E+03  0.25288036468E+03  0.00000000000E+00 0. -1.
         -4    1    5    5    0  502  0.34524263252E+03  0.10555481250E+03  0.12930006418E+03  0.38347464108E+03  0.00000000000E+00 0.  1.
         -1    1    6    6    0  503  0.26719514168E+03  0.24638928938E+03 -0.73919466630E+03  0.82371699045E+03  0.00000000000E+00 0.  1.
<mgrwt>
<rscale>  0 0.28588079E+04</rscale>
<asrwt>0</asrwt>
<pdfrwt beam="1">  1        1 0.24558922E+00 0.28588079E+04</pdfrwt>
<pdfrwt beam="2">  1       -1 0.19691280E+00 0.28588079E+04</pdfrwt>
<totfact> 0.76438785E-01</totfact>
</mgrwt>
</event>
<event>
12    1  0.4672461E-008  0.1651364E+04  0.7818608E-02  0.8789600E-01
         -2   -1    0    0    0  501 -0.00000000000E+00  0.00000000000E+00  0.71308081849E+03  0.71308081849E+03  0.00000000000E+00 0.  1.
          2   -1    0    0  501    0  0.00000000000E+00 -0.00000000000E+00 -0.95606346441E+03  0.95606346441E+03  0.00000000000E+00 0. -1.
         23    2    1    2    0    0  0.55413267374E+02 -0.34314923516E+03 -0.55268540017E+03  0.65926078486E+03  0.91332377126E+02 0.  0.
        254    2    1    2    0    0 -0.55413267374E+02  0.34314923516E+03  0.30970275425E+03  0.10098834980E+04  0.89617345186E+03 0.  0.
         23    2    4    4    0    0 -0.10331687888E+03  0.63329697931E+03  0.25152799359E+03  0.69675923329E+03  0.10231156410E+03 0.  0.
         23    2    4    4    0    0  0.47903611510E+02 -0.29014774415E+03  0.58174760662E+02  0.31312426475E+03  0.90454590615E+02 0.  0.
         11    1    3    3    0    0  0.76314652438E+02 -0.27198779062E+03 -0.40223422755E+03  0.49152177799E+03  0.00000000000E+00 0. -1.
        -11    1    3    3    0    0 -0.20901385064E+02 -0.71161444539E+02 -0.15045117261E+03  0.16773900688E+03  0.00000000000E+00 0.  1.
          1    1    5    5  502    0  0.17473600406E+02  0.96541172315E+02  0.55378569211E+02  0.11266015529E+03  0.00000000000E+00 0. -1.
          3    1    6    6  503    0 -0.69818625108E+01 -0.20707808771E+03  0.27941914482E+02  0.20907135480E+03  0.00000000000E+00 0. -1.
         -1    1    5    5    0  502 -0.12079047929E+03  0.53675580699E+03  0.19614942438E+03  0.58409907799E+03  0.00000000000E+00 0.  1.
         -3    1    6    6    0  503  0.54885474021E+02 -0.83069656439E+02  0.30232846180E+02  0.10405290994E+03  0.00000000000E+00 0.  1.
<mgrwt>
<rscale>  0 0.16513637E+04</rscale>
<asrwt>0</asrwt>
<pdfrwt beam="1">  1        2 0.14708669E+00 0.16513637E+04</pdfrwt>
<pdfrwt beam="2">  1       -2 0.10970474E+00 0.16513637E+04</pdfrwt>
<totfact> 0.16994611E+01</totfact>
</mgrwt>
</event>
<event>
12    1  0.4672461E-008  0.1345970E+04  0.7818608E-02  0.8993884E-01
         -3   -1    0    0    0  501 -0.00000000000E+00  0.00000000000E+00  0.36647243446E+03  0.36647243446E+03  0.00000000000E+00 0.  1.
          3   -1    0    0  501    0  0.00000000000E+00 -0.00000000000E+00 -0.12358611621E+04  0.12358611621E+04  0.00000000000E+00 0. -1.
         23    2    1    2    0    0  0.44026327328E+03 -0.51368258140E+02 -0.29326278824E+03  0.53904277261E+03  0.89964437366E+02 0.  0.
        254    2    1    2    0    0 -0.44026327328E+03  0.51368258140E+02 -0.57612593936E+03  0.10632908239E+04  0.77601277725E+03 0.  0.
         23    2    4    4    0    0 -0.43530434296E+03  0.22539397862E+03 -0.49175105315E+02  0.50116291468E+03  0.91944328161E+02 0.  0.
         23    2    4    4    0    0 -0.49589303235E+01 -0.17402572048E+03 -0.52695083404E+03  0.56212790922E+03  0.89448658170E+02 0.  0.
         11    1    3    3    0    0  0.29136892608E+03 -0.49904184299E+02 -0.14631019496E+03  0.32983776595E+03  0.00000000000E+00 0.  1.
        -11    1    3    3    0    0  0.14889434720E+03 -0.14640738406E+01 -0.14695259328E+03  0.20920500665E+03  0.00000000000E+00 0. -1.
          4    1    5    5  502    0 -0.74894039360E+02  0.56762670762E+01 -0.21630811229E+02  0.78161557904E+02  0.00000000000E+00 0. -1.
          3    1    6    6  503    0  0.22211663991E+02 -0.84611999523E+02 -0.36321317934E+03  0.37359919984E+03  0.00000000000E+00 0. -1.
         -4    1    5    5    0  502 -0.36041030359E+03  0.21971771154E+03 -0.27544294086E+02  0.42300135678E+03  0.00000000000E+00 0.  1.
         -3    1    6    6    0  503 -0.27170594315E+02 -0.89413720953E+02 -0.16373765470E+03  0.18852870937E+03  0.00000000000E+00 0.  1.
<mgrwt>
<rscale>  0 0.13459704E+04</rscale>
<asrwt>0</asrwt>
<pdfrwt beam="1">  1        3 0.19013249E+00 0.13459704E+04</pdfrwt>
<pdfrwt beam="2">  1       -3 0.56380375E-01 0.13459704E+04</pdfrwt>
<totfact> 0.13504382E+00</totfact>
</mgrwt>
</event>
<event>
12    1  0.4672461E-008  0.1912513E+04  0.7818608E-02  0.8648653E-01
          1   -1    0    0  501    0  0.00000000000E+00  0.00000000000E+00  0.13451096332E+04  0.13451096332E+04  0.00000000000E+00 0. -1.
         -1   -1    0    0    0  501 -0.00000000000E+00 -0.00000000000E+00 -0.67981579558E+03  0.67981579558E+03  0.00000000000E+00 0.  1.
         23    2    1    2    0    0  0.57591893216E+03 -0.11361496485E+02 -0.23306748428E+03  0.62827433269E+03  0.92717230737E+02 0.  0.
        254    2    1    2    0    0 -0.57591893216E+03  0.11361496485E+02  0.89836132195E+03  0.13966510961E+04  0.90098253010E+03 0.  0.
         23    2    4    4    0    0 -0.33460614717E+03 -0.17852481817E+03  0.98937276091E+03  0.10634969248E+04  0.91295480087E+02 0.  0.
         23    2    4    4    0    0 -0.24131278498E+03  0.18988631466E+03 -0.91011438970E+02  0.33315417129E+03  0.91760269894E+02 0.  0.
         11    1    3    3    0    0  0.53808331694E+03  0.12201336773E+02 -0.22292757380E+03  0.58256264191E+03  0.00000000000E+00 0.  1.
        -11    1    3    3    0    0  0.37835615212E+02 -0.23562833257E+02 -0.10139910485E+02  0.45711690783E+02  0.00000000000E+00 0. -1.
          4    1    5    5  502    0 -0.12645739141E+03 -0.10105384953E+03  0.32686268782E+03  0.36475000896E+03  0.00000000000E+00 0. -1.
          1    1    6    6  503    0 -0.87156413523E+02  0.94119828611E+02  0.39351494029E+01  0.12833654178E+03  0.00000000000E+00 0. -1.
         -4    1    5    5    0  502 -0.20814875576E+03 -0.77470968648E+02  0.66251007309E+03  0.69874691588E+03  0.00000000000E+00 0.  1.
         -1    1    6    6    0  503 -0.15415637146E+03  0.95766486047E+02 -0.94946588372E+02  0.20481762950E+03  0.00000000000E+00 0.  1.
<mgrwt>
<rscale>  0 0.19125133E+04</rscale>
<asrwt>0</asrwt>
<pdfrwt beam="1">  1        1 0.20693994E+00 0.19125133E+04</pdfrwt>
<pdfrwt beam="2">  1       -1 0.10458705E+00 0.19125133E+04</pdfrwt>
<totfact> 0.67460043E+00</totfact>
</mgrwt>
</event>
<event>
12    1  0.4672461E-008  0.2061159E+04  0.7818608E-02  0.8578549E-01
         -2   -1    0    0    0  501 -0.00000000000E+00  0.00000000000E+00  0.13481303534E+04  0.13481303534E+04  0.00000000000E+00 0.  1.
          2   -1    0    0  501    0  0.00000000000E+00 -0.00000000000E+00 -0.78782734939E+03  0.78782734939E+03  0.00000000000E+00 0. -1.
         23    2    1    2    0    0  0.46790529771E+03 -0.37716698463E+03 -0.36665673018E+03  0.70970346242E+03  0.89730401016E+02 0.  0.
        254    2    1    2    0    0 -0.46790529771E+03  0.37716698463E+03  0.92695973422E+03  0.14262542404E+04  0.90208453456E+03 0.  0.
         23    2    4    4    0    0 -0.38690181023E+03  0.65466532119E+03  0.76499251617E+03  0.10825779521E+04  0.92096574492E+02 0.  0.
         23    2    4    4    0    0 -0.81003487476E+02 -0.27749833656E+03  0.16196721805E+03  0.34367628832E+03  0.91176310786E+02 0.  0.
         13    1    3    3    0    0  0.39430393945E+03 -0.32068647713E+03 -0.34545675345E+03  0.61453704672E+03  0.00000000000E+00 0. -1.
        -13    1    3    3    0    0  0.73601358255E+02 -0.56480507503E+02 -0.21199976728E+02  0.95166415704E+02  0.00000000000E+00 0.  1.
          4    1    5    5  502    0 -0.30704388007E+03  0.54309687402E+03  0.67123970863E+03  0.91640215261E+03  0.00000000000E+00 0. -1.
          1    1    6    6  503    0  0.82114337188E+01 -0.48250606419E+02 -0.36665521233E+00  0.48945715845E+02  0.00000000000E+00 0. -1.
         -4    1    5    5    0  502 -0.79857930157E+02  0.11156844717E+03  0.93752807533E+02  0.16617579948E+03  0.00000000000E+00 0.  1.
         -1    1    6    6    0  503 -0.89214921194E+02 -0.22924773014E+03  0.16233387327E+03  0.29473057247E+03  0.00000000000E+00 0.  1.
<mgrwt>
<rscale>  0 0.20611589E+04</rscale>
<asrwt>0</asrwt>
<pdfrwt beam="1">  1        2 0.12120421E+00 0.20611589E+04</pdfrwt>
<pdfrwt beam="2">  1       -2 0.20740467E+00 0.20611589E+04</pdfrwt>
<totfact> 0.38658913E+00</totfact>
</mgrwt>
</event>
<event>
12    1  0.4672461E-008  0.2078898E+04  0.7818608E-02  0.8570596E-01
          2   -1    0    0  501    0  0.00000000000E+00  0.00000000000E+00  0.18651908881E+04  0.18651908881E+04  0.00000000000E+00 0. -1.
         -2   -1    0    0    0  501 -0.00000000000E+00 -0.00000000000E+00 -0.57927300713E+03  0.57927300713E+03  0.00000000000E+00 0.  1.
         23    2    1    2    0    0  0.22744777026E+03 -0.46856940156E+03 -0.25209738169E+03  0.58617297360E+03  0.93572927956E+02 0.  0.
        254    2    1    2    0    0 -0.22744777026E+03  0.46856940156E+03  0.15380152627E+04  0.18582909216E+04  0.90358421245E+03 0.  0.
         23    2    4    4    0    0 -0.19845985488E+03 -0.16525019693E+03  0.11539322947E+03  0.29787645187E+03  0.93385446338E+02 0.  0.
         23    2    4    4    0    0 -0.28987915379E+02  0.63381959848E+03  0.14226220332E+04  0.15604144698E+04  0.92045018758E+02 0.  0.
         11    1    3    3    0    0  0.51380409289E+02 -0.18015452148E+03 -0.12469836386E+03  0.22504506219E+03  0.00000000000E+00 0.  1.
        -11    1    3    3    0    0  0.17606736097E+03 -0.28841488007E+03 -0.12739901783E+03  0.36112791140E+03  0.00000000000E+00 0. -1.
          2    1    5    5  502    0 -0.43023159458E+02 -0.81444857233E+02  0.11068437384E+02  0.92772664754E+02  0.00000000000E+00 0. -1.
          3    1    6    6  503    0  0.14477358139E+02  0.15671015586E+02  0.42295616733E+02  0.47371867422E+02  0.00000000000E+00 0. -1.
         -2    1    5    5    0  502 -0.15543669543E+03 -0.83805339693E+02  0.10432479209E+03  0.20510378712E+03  0.00000000000E+00 0.  1.
         -3    1    6    6    0  503 -0.43465273518E+02  0.61814858290E+03  0.13803264165E+04  0.15130426023E+04  0.00000000000E+00 0.  1.
<mgrwt>
<rscale>  0 0.20788985E+04</rscale>
<asrwt>0</asrwt>
<pdfrwt beam="1">  1        2 0.28695244E+00 0.20788985E+04</pdfrwt>
<pdfrwt beam="2">  1       -2 0.89118925E-01 0.20788985E+04</pdfrwt>
<totfact> 0.79224107E+00</totfact>
</mgrwt>
</event>
<event>
12    1  0.4672461E-008  0.2111475E+04  0.7818608E-02  0.8556205E-01
         -1   -1    0    0    0  501 -0.00000000000E+00  0.00000000000E+00  0.77714472370E+03  0.77714472370E+03  0.00000000000E+00 0.  1.
          1   -1    0    0  501    0  0.00000000000E+00 -0.00000000000E+00 -0.14342012324E+04  0.14342012324E+04  0.00000000000E+00 0. -1.
         23    2    1    2    0    0  0.13613982311E+02  0.12647306640E+03  0.62976069597E+03  0.64910204771E+03  0.92488686377E+02 0.  0.
        254    2    1    2    0    0 -0.13613982311E+02 -0.12647306640E+03 -0.12868172046E+04  0.15622439084E+04  0.87665656559E+03 0.  0.
         23    2    4    4    0    0 -0.92796249384E+01  0.15612850975E+03 -0.12497512936E+04  0.12626789539E+04  0.89541174509E+02 0.  0.
         23    2    4    4    0    0 -0.43343573721E+01 -0.28260157616E+03 -0.37065911061E+02  0.29956495441E+03  0.92102348772E+02 0.  0.
         13    1    3    3    0    0 -0.33280278627E+02  0.65163994700E+02  0.21203990828E+03  0.22430970967E+03  0.00000000000E+00 0. -1.
        -13    1    3    3    0    0  0.46894260938E+02  0.61309071703E+02  0.41772078769E+03  0.42479233804E+03  0.00000000000E+00 0.  1.
          2    1    5    5  502    0  0.15217249187E+01  0.18297038688E+02 -0.30395229724E+02  0.35510100837E+02  0.00000000000E+00 0. -1.
          3    1    6    6  503    0  0.38195481722E+02 -0.93844757053E+02  0.54264691922E+01  0.10146516554E+03  0.00000000000E+00 0. -1.
         -2    1    5    5    0  502 -0.10801349857E+02  0.13783147107E+03 -0.12193560639E+04  0.12271688531E+04  0.00000000000E+00 0.  1.
         -3    1    6    6    0  503 -0.42529839094E+02 -0.18875681910E+03 -0.42492380254E+02  0.19809978887E+03  0.00000000000E+00 0.  1.
<mgrwt>
<rscale>  0 0.21114752E+04</rscale>
<asrwt>0</asrwt>
<pdfrwt beam="1">  1        1 0.22064634E+00 0.21114752E+04</pdfrwt>
<pdfrwt beam="2">  1       -1 0.11956073E+00 0.21114752E+04</pdfrwt>
<totfact> 0.41725288E+00</totfact>
</mgrwt>
</event>
<event>
12    1  0.4672461E-008  0.2977232E+04  0.7818608E-02  0.8250263E-01
         -1   -1    0    0    0  501 -0.00000000000E+00  0.00000000000E+00  0.54094916203E+03  0.54094916203E+03  0.00000000000E+00 0.  1.
          1   -1    0    0  501    0  0.00000000000E+00 -0.00000000000E+00 -0.40964608495E+04  0.40964608495E+04  0.00000000000E+00 0. -1.
         23    2    1    2    0    0  0.95630722831E+03  0.55292323469E+03 -0.28304003364E+04  0.30398145701E+04  0.95178454138E+02 0.  0.
        254    2    1    2    0    0 -0.95630722831E+03 -0.55292323469E+03 -0.72511135112E+03  0.15975954415E+04  0.89792934279E+03 0.  0.
         23    2    4    4    0    0 -0.84411474219E+03 -0.18909960710E+03 -0.82035285407E+03  0.11958372062E+04  0.93591982078E+02 0.  0.
         23    2    4    4    0    0 -0.11219248612E+03 -0.36382362759E+03  0.95241502949E+02  0.40175823527E+03  0.85929912087E+02 0.  0.
         13    1    3    3    0    0  0.57628268959E+03  0.28746723660E+03 -0.15760751751E+04  0.17025722034E+04  0.00000000000E+00 0. -1.
        -13    1    3    3    0    0  0.38002453872E+03  0.26545599809E+03 -0.12543251613E+04  0.13372423667E+04  0.00000000000E+00 0.  1.
          2    1    5    5  502    0 -0.38211310656E+03 -0.44001070805E+02 -0.33215159698E+03  0.50820389984E+03  0.00000000000E+00 0. -1.
          3    1    6    6  503    0 -0.89937287248E+02 -0.32649773101E+03  0.56101844287E+02  0.34327379878E+03  0.00000000000E+00 0. -1.
         -2    1    5    5    0  502 -0.46200163563E+03 -0.14509853629E+03 -0.48820125709E+03  0.68763330634E+03  0.00000000000E+00 0.  1.
         -3    1    6    6    0  503 -0.22255198868E+02 -0.37325896575E+02  0.39139658662E+02  0.58484436494E+02  0.00000000000E+00 0.  1.
<mgrwt>
<rscale>  0 0.29772316E+04</rscale>
<asrwt>0</asrwt>
<pdfrwt beam="1">  1        1 0.63022474E+00 0.29772316E+04</pdfrwt>
<pdfrwt beam="2">  1       -1 0.83222948E-01 0.29772316E+04</pdfrwt>
<totfact> 0.96131611E-02</totfact>
</mgrwt>
</event>
<event>
12    1  0.4672461E-008  0.1457141E+04  0.7818608E-02  0.8913465E-01
         -1   -1    0    0    0  501 -0.00000000000E+00  0.00000000000E+00  0.73460387212E+03  0.73460387212E+03  0.00000000000E+00 0.  1.
          1   -1    0    0  501    0  0.00000000000E+00 -0.00000000000E+00 -0.72258626252E+03  0.72258626252E+03  0.00000000000E+00 0. -1.
         23    2    1    2    0    0 -0.30681397064E+03  0.25450861061E+03  0.20699488476E+03  0.45713625670E+03  0.84954278427E+02 0.  0.
        254    2    1    2    0    0  0.30681397064E+03 -0.25450861061E+03 -0.19497727517E+03  0.10000538779E+04  0.89620431571E+03 0.  0.
         23    2    4    4    0    0 -0.14851718811E+02 -0.31284242612E+03 -0.46393693609E+03  0.56705727391E+03  0.90694620007E+02 0.  0.
         23    2    4    4    0    0  0.32166568945E+03  0.58333815509E+02  0.26895966092E+03  0.43299660403E+03  0.90967632133E+02 0.  0.
         13    1    3    3    0    0 -0.12639257311E+03  0.89512807485E+02  0.36655138627E+02  0.15915786009E+03  0.00000000000E+00 0. -1.
        -13    1    3    3    0    0 -0.18042139753E+03  0.16499580312E+03  0.17033974614E+03  0.29797839661E+03  0.00000000000E+00 0.  1.
          2    1    5    5  502    0  0.12884401191E+02 -0.17365556426E+03 -0.18482154119E+03  0.25393161458E+03  0.00000000000E+00 0.  1.
          4    1    6    6  503    0  0.31439806111E+03  0.36746371185E+02  0.25196622981E+03  0.40457807354E+03  0.00000000000E+00 0. -1.
         -2    1    5    5    0  502 -0.27736120002E+02 -0.13918686186E+03 -0.27911539489E+03  0.31312565933E+03  0.00000000000E+00 0. -1.
         -4    1    6    6    0  503  0.72676283395E+01  0.21587444324E+02  0.16993431112E+02  0.28418530488E+02  0.00000000000E+00 0.  1.
<mgrwt>
<rscale>  0 0.14571406E+04</rscale>
<asrwt>0</asrwt>
<pdfrwt beam="1">  1        1 0.11116712E+00 0.14571406E+04</pdfrwt>
<pdfrwt beam="2">  1       -1 0.11301598E+00 0.14571406E+04</pdfrwt>
<totfact> 0.18032875E+01</totfact>
</mgrwt>
</event>
<event>
12    1  0.4672461E-008  0.1965766E+04  0.7818608E-02  0.8622795E-01
         -4   -1    0    0    0  501 -0.00000000000E+00  0.00000000000E+00  0.11674870386E+04  0.11674870386E+04  0.00000000000E+00 0.  1.
          4   -1    0    0  501    0  0.00000000000E+00 -0.00000000000E+00 -0.82746897115E+03  0.82746897115E+03  0.00000000000E+00 0. -1.
         23    2    1    2    0    0  0.51461012234E+03 -0.49977340148E+03  0.43210148361E+03  0.84231824210E+03  0.90505789833E+02 0.  0.
        254    2    1    2    0    0 -0.51461012234E+03  0.49977340148E+03 -0.92083416142E+02  0.11526377677E+04  0.89749509029E+03 0.  0.
         23    2    4    4    0    0 -0.23415032404E+02  0.42231095919E+03 -0.37559738074E+03  0.57300004310E+03  0.91437667230E+02 0.  0.
         23    2    4    4    0    0 -0.49119508994E+03  0.77462442292E+02  0.28351396460E+03  0.57963772457E+03  0.91250628901E+02 0.  0.
         11    1    3    3    0    0  0.27953173600E+02 -0.62766530232E+02  0.34579244061E+02  0.76920357198E+02  0.00000000000E+00 0. -1.
        -11    1    3    3    0    0  0.48665694874E+03 -0.43700687125E+03  0.39752223954E+03  0.76539788490E+03  0.00000000000E+00 0.  1.
          3    1    6    6  502    0 -0.26127683518E+03  0.75975127015E+02  0.18764953091E+03  0.33053010601E+03  0.00000000000E+00 0. -1.
          3    1    5    5  503    0  0.20150606444E+01  0.29047970884E+03 -0.20326689711E+03  0.35454189199E+03  0.00000000000E+00 0. -1.
         -3    1    5    5    0  503 -0.25430093049E+02  0.13183125035E+03 -0.17233048362E+03  0.21845815111E+03  0.00000000000E+00 0.  1.
         -3    1    6    6    0  502 -0.22991825476E+03  0.14873152771E+01  0.95864433683E+02  0.24910761856E+03  0.00000000000E+00 0.  1.
<mgrwt>
<rscale>  0 0.19657663E+04</rscale>
<asrwt>0</asrwt>
<pdfrwt beam="1">  1        4 0.12730292E+00 0.19657663E+04</pdfrwt>
<pdfrwt beam="2">  1       -4 0.17961339E+00 0.19657663E+04</pdfrwt>
<totfact> 0.15379120E-01</totfact>
</mgrwt>
</event>
<event>
12    1  0.4672461E-008  0.1494937E+04  0.7818608E-02  0.8887827E-01
         -1   -1    0    0    0  501 -0.00000000000E+00  0.00000000000E+00  0.20412227902E+03  0.20412227902E+03  0.00000000000E+00 0.  1.
          1   -1    0    0  501    0  0.00000000000E+00 -0.00000000000E+00 -0.27371279132E+04  0.27371279132E+04  0.00000000000E+00 0. -1.
         23    2    1    2    0    0 -0.22841883915E+03 -0.15637546203E+03 -0.67940467668E+02  0.29917537844E+03  0.90893061975E+02 0.  0.
        254    2    1    2    0    0  0.22841883915E+03  0.15637546203E+03 -0.24650651665E+04  0.26420748138E+04  0.90960683555E+03 0.  0.
         23    2    4    4    0    0 -0.31847983053E+03  0.10064967250E+03 -0.13732621640E+04  0.14163787513E+04  0.93381137673E+02 0.  0.
         23    2    4    4    0    0  0.54689866968E+03  0.55725789531E+02 -0.10918030025E+04  0.12256960625E+04  0.89964008995E+02 0.  0.
         13    1    3    3    0    0 -0.21741813408E+03 -0.16836945134E+03 -0.65881967755E+02  0.28277084511E+03  0.00000000000E+00 0.  1.
        -13    1    3    3    0    0 -0.11000705071E+02  0.11993989315E+02 -0.20584999137E+01  0.16404533325E+02  0.00000000000E+00 0. -1.
          4    1    5    5  502    0 -0.43336438737E+02  0.44862672067E+02 -0.17879929597E+03  0.18936708929E+03  0.00000000000E+00 0. -1.
          4    1    6    6  503    0  0.52499442341E+02 -0.21341746652E+02 -0.11015416252E+03  0.12387736322E+03  0.00000000000E+00 0. -1.
         -4    1    5    5    0  502 -0.27514339179E+03  0.55787000430E+02 -0.11944628680E+04  0.12270116620E+04  0.00000000000E+00 0.  1.
         -4    1    6    6    0  503  0.49439922734E+03  0.77067536183E+02 -0.98164883999E+03  0.11018186993E+04  0.00000000000E+00 0.  1.
<mgrwt>
<rscale>  0 0.14949365E+04</rscale>
<asrwt>0</asrwt>
<pdfrwt beam="1">  1        1 0.42109661E+00 0.14949365E+04</pdfrwt>
<pdfrwt beam="2">  1       -1 0.31403427E-01 0.14949365E+04</pdfrwt>
<totfact> 0.84508570E+00</totfact>
</mgrwt>
</event>
<event>
12    1  0.4672461E-008  0.1096896E+04  0.7818608E-02  0.9208222E-01
         -2   -1    0    0    0  501 -0.00000000000E+00  0.00000000000E+00  0.10147165527E+03  0.10147165527E+03  0.00000000000E+00 0.  1.
          2   -1    0    0  501    0  0.00000000000E+00 -0.00000000000E+00 -0.29643280784E+04  0.29643280784E+04  0.00000000000E+00 0. -1.
         23    2    1    2    0    0  0.30963469041E+02 -0.18674788335E+02 -0.37317008617E+02  0.10569635975E+03  0.92041714449E+02 0.  0.
        254    2    1    2    0    0 -0.30963469041E+02  0.18674788335E+02 -0.28255394145E+04  0.29601033739E+04  0.88160734863E+03 0.  0.
         23    2    4    4    0    0 -0.42843059980E+03 -0.84607314492E+02 -0.17233530506E+04  0.17803049199E+04  0.93961132502E+02 0.  0.
         23    2    4    4    0    0  0.39746713076E+03  0.10328210283E+03 -0.11021863639E+04  0.11797984539E+04  0.91990751802E+02 0.  0.
         13    1    3    3    0    0 -0.56342475063E+01  0.28769267385E+02 -0.35105311236E+02  0.45736182261E+02  0.00000000000E+00 0. -1.
        -13    1    3    3    0    0  0.36597716547E+02 -0.47444055720E+02 -0.22116973811E+01  0.59960177493E+02  0.00000000000E+00 0.  1.
          3    1    5    5  502    0 -0.99809722247E+01 -0.58397921341E+01 -0.11567081144E+02  0.16356049184E+02  0.00000000000E+00 0. -1.
          3    1    6    6  503    0  0.52769718327E+02 -0.69524029935E+00 -0.23478475571E+03  0.24064290567E+03  0.00000000000E+00 0. -1.
         -3    1    5    5    0  502 -0.41844962758E+03 -0.78767522358E+02 -0.17117859695E+04  0.17639488708E+04  0.00000000000E+00 0.  1.
         -3    1    6    6    0  503  0.34469741243E+03  0.10397734313E+03 -0.86740160815E+03  0.93915554827E+03  0.00000000000E+00 0.  1.
<mgrwt>
<rscale>  0 0.10968961E+04</rscale>
<asrwt>0</asrwt>
<pdfrwt beam="1">  1        2 0.45605048E+00 0.10968961E+04</pdfrwt>
<pdfrwt beam="2">  1       -2 0.15611024E-01 0.10968961E+04</pdfrwt>
<totfact> 0.60814695E+01</totfact>
</mgrwt>
</event>
<event>
12    1  0.4672461E-008  0.1981013E+04  0.7818608E-02  0.8615550E-01
          1   -1    0    0  501    0  0.00000000000E+00  0.00000000000E+00  0.30764872062E+04  0.30764872062E+04  0.00000000000E+00 0. -1.
         -1   -1    0    0    0  501 -0.00000000000E+00 -0.00000000000E+00 -0.31890364514E+03  0.31890364514E+03  0.00000000000E+00 0.  1.
         23    2    1    2    0    0 -0.63466816510E+03  0.79976971610E+01  0.30671969729E+03  0.71118688449E+03  0.94032808137E+02 0.  0.
        254    2    1    2    0    0  0.63466816510E+03 -0.79976971610E+01  0.24508638638E+04  0.26842039669E+04  0.89182375725E+03 0.  0.
         23    2    4    4    0    0  0.79531201719E+02 -0.26104484963E+03  0.19960294124E+03  0.34996593730E+03  0.90361482713E+02 0.  0.
         23    2    4    4    0    0  0.55513696338E+03  0.25304715247E+03  0.22512609226E+04  0.23342380296E+04  0.91002899925E+02 0.  0.
         13    1    3    3    0    0 -0.26290385811E+03 -0.34236620050E+02  0.15746676607E+03  0.30836077438E+03  0.00000000000E+00 0. -1.
        -13    1    3    3    0    0 -0.37176430699E+03  0.42234317211E+02  0.14925293122E+03  0.40282611011E+03  0.00000000000E+00 0.  1.
          3    1    5    5  502    0  0.41476341336E+02 -0.14422687634E+03  0.16345351242E+03  0.22189801593E+03  0.00000000000E+00 0. -1.
          3    1    6    6  503    0  0.41547553422E+03  0.17725307212E+03  0.15089111762E+04  0.15750719059E+04  0.00000000000E+00 0. -1.
         -3    1    5    5    0  502  0.38054860383E+02 -0.11681797329E+03  0.36149428815E+02  0.12806792138E+03  0.00000000000E+00 0.  1.
         -3    1    6    6    0  503  0.13966142917E+03  0.75794080347E+02  0.74234974636E+03  0.75916612367E+03  0.00000000000E+00 0.  1.
<mgrwt>
<rscale>  0 0.19810129E+04</rscale>
<asrwt>0</asrwt>
<pdfrwt beam="1">  1        1 0.47330570E+00 0.19810129E+04</pdfrwt>
<pdfrwt beam="2">  1       -1 0.49062102E-01 0.19810129E+04</pdfrwt>
<totfact> 0.20355911E+00</totfact>
</mgrwt>
</event>
<event>
12    1  0.4672461E-008  0.1154153E+04  0.7818608E-02  0.9153961E-01
          1   -1    0    0  501    0  0.00000000000E+00  0.00000000000E+00  0.38310115602E+03  0.38310115602E+03  0.00000000000E+00 0. -1.
         -1   -1    0    0    0  501 -0.00000000000E+00 -0.00000000000E+00 -0.86926752449E+03  0.86926752449E+03  0.00000000000E+00 0.  1.
         23    2    1    2    0    0  0.10933135697E+02  0.14739504545E+03 -0.25607654981E+03  0.30937611244E+03  0.91068911859E+02 0.  0.
        254    2    1    2    0    0 -0.10933135697E+02 -0.14739504545E+03 -0.23008981867E+03  0.94299256807E+03  0.90246818554E+03 0.  0.
         23    2    4    4    0    0 -0.16866116949E+02 -0.37193802300E+03  0.21404768466E+03  0.43831414471E+03  0.87638571946E+02 0.  0.
         23    2    4    4    0    0  0.59329812515E+01  0.22454297754E+03 -0.44413750332E+03  0.50467842337E+03  0.83590909340E+02 0.  0.
         13    1    3    3    0    0 -0.15789939956E+02  0.14557874979E+03 -0.20860775484E+03  0.25487190895E+03  0.00000000000E+00 0.  1.
        -13    1    3    3    0    0  0.26723075653E+02  0.18162956670E+01 -0.47468794965E+02  0.54504203486E+02  0.00000000000E+00 0. -1.
          2    1    5    5  502    0  0.34045531848E+02 -0.14513606636E+03  0.99009329562E+02  0.17895927844E+03  0.00000000000E+00 0. -1.
          4    1    6    6  503    0 -0.35125882013E+02  0.80958205975E+02 -0.13387171025E+03  0.16034242579E+03  0.00000000000E+00 0. -1.
         -2    1    5    5    0  502 -0.50911648796E+02 -0.22680195663E+03  0.11503835509E+03  0.25935486627E+03  0.00000000000E+00 0.  1.
         -4    1    6    6    0  503  0.41058863265E+02  0.14358477157E+03 -0.31026579307E+03  0.34433599758E+03  0.00000000000E+00 0.  1.
<mgrwt>
<rscale>  0 0.11541532E+04</rscale>
<asrwt>0</asrwt>
<pdfrwt beam="1">  1        1 0.58938639E-01 0.11541532E+04</pdfrwt>
<pdfrwt beam="2">  1       -1 0.13373347E+00 0.11541532E+04</pdfrwt>
<totfact> 0.29781300E+01</totfact>
</mgrwt>
</event>
<event>
12    1  0.4672461E-008  0.2379899E+04  0.7818608E-02  0.8447068E-01
          1   -1    0    0  501    0  0.00000000000E+00  0.00000000000E+00  0.90875308922E+03  0.90875308922E+03  0.00000000000E+00 0. -1.
         -1   -1    0    0    0  501 -0.00000000000E+00 -0.00000000000E+00 -0.15581566027E+04  0.15581566027E+04  0.00000000000E+00 0.  1.
         23    2    1    2    0    0 -0.84806490284E+03 -0.50879676614E+03 -0.55109594190E+03  0.11357021862E+04  0.89579516801E+02 0.  0.
        254    2    1    2    0    0  0.84806490284E+03  0.50879676614E+03 -0.98307571560E+02  0.13312075057E+04  0.88564147149E+03 0.  0.
         23    2    4    4    0    0 -0.13574469399E+03  0.26202355026E+03 -0.38078593179E+02  0.31098637511E+03  0.90441049366E+02 0.  0.
         23    2    4    4    0    0  0.98380959682E+03  0.24677321588E+03 -0.60228978381E+02  0.10202211306E+04  0.91898218977E+02 0.  0.
         11    1    3    3    0    0 -0.63004699084E+03 -0.39453360082E+03 -0.45429404579E+03  0.87120551702E+03  0.00000000000E+00 0.  1.
        -11    1    3    3    0    0 -0.21801791200E+03 -0.11426316532E+03 -0.96801896104E+02  0.26449666915E+03  0.00000000000E+00 0. -1.
          2    1    5    5  502    0 -0.40330109014E+02  0.13294930513E+03  0.19846691674E+02  0.14034217683E+03  0.00000000000E+00 0.  1.
          1    1    6    6  503    0  0.96963067885E+03  0.25015701318E+03 -0.68029200251E+02  0.10036882767E+04  0.00000000000E+00 0. -1.
         -2    1    5    5    0  502 -0.95414584972E+02  0.12907424513E+03 -0.57925284852E+02  0.17064419828E+03  0.00000000000E+00 0. -1.
         -1    1    6    6    0  503  0.14178917968E+02 -0.33837972955E+01  0.78002218692E+01  0.16532853961E+02  0.00000000000E+00 0.  1.
<mgrwt>
<rscale>  0 0.23798988E+04</rscale>
<asrwt>0</asrwt>
<pdfrwt beam="1">  1        1 0.13980817E+00 0.23798988E+04</pdfrwt>
<pdfrwt beam="2">  1       -1 0.23971640E+00 0.23798988E+04</pdfrwt>
<totfact> 0.13081508E+00</totfact>
</mgrwt>
</event>
<event>
12    1  0.4672461E-008  0.1857813E+04  0.7818608E-02  0.8676145E-01
         -3   -1    0    0    0  501 -0.00000000000E+00  0.00000000000E+00  0.99754475957E+03  0.99754475957E+03  0.00000000000E+00 0.  1.
          3   -1    0    0  501    0  0.00000000000E+00 -0.00000000000E+00 -0.86499086579E+03  0.86499086579E+03  0.00000000000E+00 0. -1.
         23    2    1    2    0    0  0.32679793346E+03  0.43705625575E+03 -0.39635991573E+03  0.68067451560E+03  0.91659987935E+02 0.  0.
        254    2    1    2    0    0 -0.32679793346E+03 -0.43705625575E+03  0.52891380951E+03  0.11818611098E+04  0.90511369721E+03 0.  0.
         23    2    4    4    0    0  0.19451421702E+03 -0.47931756438E+03  0.25096050339E+03  0.58189066736E+03  0.89635184777E+02 0.  0.
         23    2    4    4    0    0 -0.52131215049E+03  0.42261308638E+02  0.27795330612E+03  0.59997044240E+03  0.95677138945E+02 0.  0.
         13    1    3    3    0    0  0.15393381436E+03  0.27295167590E+03 -0.25097742797E+03  0.40148213650E+03  0.00000000000E+00 0.  1.
        -13    1    3    3    0    0  0.17286411910E+03  0.16410457985E+03 -0.14538248776E+03  0.27919237910E+03  0.00000000000E+00 0. -1.
          2    1    5    5  502    0  0.42030395952E+02 -0.88760035884E+02  0.88646784323E+02  0.13229947288E+03  0.00000000000E+00 0. -1.
          3    1    6    6  503    0 -0.84446201095E+02  0.32690458838E+02  0.20668353799E+02  0.92881687255E+02  0.00000000000E+00 0. -1.
         -2    1    5    5    0  502  0.15248382107E+03 -0.39055752850E+03  0.16231371906E+03  0.44959119448E+03  0.00000000000E+00 0.  1.
         -3    1    6    6    0  503 -0.43686594939E+03  0.95708497999E+01  0.25728495232E+03  0.50708875514E+03  0.00000000000E+00 0.  1.
<mgrwt>
<rscale>  0 0.18578128E+04</rscale>
<asrwt>0</asrwt>
<pdfrwt beam="1">  1        3 0.13307552E+00 0.18578128E+04</pdfrwt>
<pdfrwt beam="2">  1       -3 0.15346842E+00 0.18578128E+04</pdfrwt>
<totfact> 0.32769680E-01</totfact>
</mgrwt>
</event>
<event>
12    1  0.4672461E-008  0.3218845E+04  0.7818608E-02  0.8183858E-01
          2   -1    0    0  501    0  0.00000000000E+00  0.00000000000E+00  0.11342602477E+04  0.11342602477E+04  0.00000000000E+00 0. -1.
         -2   -1    0    0    0  501 -0.00000000000E+00 -0.00000000000E+00 -0.22836395123E+04  0.22836395123E+04  0.00000000000E+00 0.  1.
         23    2    1    2    0    0  0.13209139447E+04  0.37414473729E+03 -0.11273802563E+04  0.17787684990E+04  0.90736966094E+02 0.  0.
        254    2    1    2    0    0 -0.13209139447E+04 -0.37414473729E+03 -0.21999008280E+02  0.16391312611E+04  0.89524823432E+03 0.  0.
         23    2    4    4    0    0 -0.11974426235E+04  0.17413844707E+02 -0.12095964762E+03  0.12071205657E+04  0.91305777818E+02 0.  0.
         23    2    4    4    0    0 -0.12347132113E+03 -0.39155858200E+03  0.98960639339E+02  0.43201069541E+03  0.90976604334E+02 0.  0.
         11    1    3    3    0    0  0.11738074617E+04  0.33279662254E+03 -0.10370069531E+04  0.16012373247E+04  0.00000000000E+00 0.  1.
        -11    1    3    3    0    0  0.14710648296E+03  0.41348114746E+02 -0.90373303212E+02  0.17753117432E+03  0.00000000000E+00 0. -1.
          1    1    5    5  502    0 -0.35151470272E+03  0.42093920942E+02 -0.54910432494E+02  0.35825917993E+03  0.00000000000E+00 0. -1.
          3    1    6    6  503    0 -0.77776444426E+02 -0.18587875870E+03  0.56381424360E+01  0.20157350246E+03  0.00000000000E+00 0. -1.
         -1    1    5    5    0  502 -0.84592792082E+03 -0.24680076235E+02 -0.66049215125E+02  0.84886138574E+03  0.00000000000E+00 0.  1.
         -3    1    6    6    0  503 -0.45694876701E+02 -0.20567982330E+03  0.93322496903E+02  0.23043719295E+03  0.00000000000E+00 0.  1.
<mgrwt>
<rscale>  0 0.32188455E+04</rscale>
<asrwt>0</asrwt>
<pdfrwt beam="1">  1        2 0.17450158E+00 0.32188455E+04</pdfrwt>
<pdfrwt beam="2">  1       -2 0.35132915E+00 0.32188455E+04</pdfrwt>
<totfact> 0.26619132E-01</totfact>
</mgrwt>
</event>
<event>
12    1  0.4672461E-008  0.2409907E+04  0.7818608E-02  0.8435804E-01
          1   -1    0    0  501    0  0.00000000000E+00  0.00000000000E+00  0.12317675904E+04  0.12317675904E+04  0.00000000000E+00 0. -1.
         -1   -1    0    0    0  501 -0.00000000000E+00 -0.00000000000E+00 -0.11787227994E+04  0.11787227994E+04  0.00000000000E+00 0.  1.
         23    2    1    2    0    0 -0.10372921016E+04 -0.21355756839E+02 -0.48107839828E+01  0.10413941535E+04  0.89708790092E+02 0.  0.
        254    2    1    2    0    0  0.10372921016E+04  0.21355756839E+02  0.57855574958E+02  0.13690962363E+04  0.89142933784E+03 0.  0.
         23    2    4    4    0    0  0.87211456986E+03  0.27772023232E+03 -0.22093100165E+03  0.94583381596E+03  0.89881864291E+02 0.  0.
         23    2    4    4    0    0  0.16517753171E+03 -0.25636447548E+03  0.27878657661E+03  0.42326242033E+03  0.91775595323E+02 0.  0.
         11    1    3    3    0    0 -0.39067424838E+03  0.11290575807E+02  0.37121079212E+02  0.39259625568E+03  0.00000000000E+00 0. -1.
        -11    1    3    3    0    0 -0.64661785319E+03 -0.32646332646E+02 -0.41931863194E+02  0.64879789784E+03  0.00000000000E+00 0.  1.
          3    1    5    5  502    0  0.27738404850E+03  0.57001170251E+02 -0.98054160241E+02  0.29967592849E+03  0.00000000000E+00 0. -1.
          3    1    6    6  503    0  0.14991089356E+03 -0.18277517285E+03  0.17055093708E+03  0.29149213017E+03  0.00000000000E+00 0.  1.
         -3    1    5    5    0  502  0.59473052136E+03  0.22071906207E+03 -0.12287684141E+03  0.64615788748E+03  0.00000000000E+00 0.  1.
         -3    1    6    6    0  503  0.15266638151E+02 -0.73589302635E+02  0.10823563953E+03  0.13177029016E+03  0.00000000000E+00 0. -1.
<mgrwt>
<rscale>  0 0.24099067E+04</rscale>
<asrwt>0</asrwt>
<pdfrwt beam="1">  1        1 0.18950271E+00 0.24099067E+04</pdfrwt>
<pdfrwt beam="2">  1       -1 0.18134197E+00 0.24099067E+04</pdfrwt>
<totfact> 0.18463281E+00</totfact>
</mgrwt>
</event>
<event>
12    1  0.4672461E-008  0.1102896E+04  0.7818608E-02  0.9202374E-01
          1   -1    0    0  501    0  0.00000000000E+00  0.00000000000E+00  0.10008470334E+04  0.10008470334E+04  0.00000000000E+00 0. -1.
         -1   -1    0    0    0  501 -0.00000000000E+00 -0.00000000000E+00 -0.30383735067E+03  0.30383735067E+03  0.00000000000E+00 0.  1.
         23    2    1    2    0    0  0.12349403935E+03 -0.14097274341E+03  0.24990402122E+03  0.32558369196E+03  0.91807562396E+02 0.  0.
        254    2    1    2    0    0 -0.12349403935E+03  0.14097274341E+03  0.44710566153E+03  0.97910069212E+03  0.85065304361E+03 0.  0.
         23    2    4    4    0    0  0.18211531767E+03 -0.25074093340E+03  0.31003451155E+02  0.32442196695E+03  0.90837184244E+02 0.  0.
         23    2    4    4    0    0 -0.30560935702E+03  0.39171367681E+03  0.41610221037E+03  0.65467872517E+03  0.92878953574E+02 0.  0.
         11    1    3    3    0    0  0.11380003142E+03 -0.10299394003E+03  0.13581256168E+03  0.20494694617E+03  0.00000000000E+00 0. -1.
        -11    1    3    3    0    0  0.96940079220E+01 -0.37978803377E+02  0.11409145954E+03  0.12063674579E+03  0.00000000000E+00 0.  1.
          4    1    5    5  502    0  0.17820308390E+03 -0.25809391739E+03  0.26018965352E+02  0.31471542043E+03  0.00000000000E+00 0. -1.
          1    1    6    6  503    0 -0.31176760487E+03  0.37544716768E+03  0.40293818258E+03  0.63286554192E+03  0.00000000000E+00 0. -1.
         -4    1    5    5    0  502  0.39122337781E+01  0.73529839815E+01  0.49844858027E+01  0.97065465168E+01  0.00000000000E+00 0.  1.
         -1    1    6    6    0  503  0.61582478533E+01  0.16266509129E+02  0.13164027794E+02  0.21813183253E+02  0.00000000000E+00 0.  1.
<mgrwt>
<rscale>  0 0.11028957E+04</rscale>
<asrwt>0</asrwt>
<pdfrwt beam="1">  1        1 0.15397646E+00 0.11028957E+04</pdfrwt>
<pdfrwt beam="2">  1       -1 0.46744208E-01 0.11028957E+04</pdfrwt>
<totfact> 0.68604846E+01</totfact>
</mgrwt>
</event>
<event>
12    1  0.4672461E-008  0.1846595E+04  0.7818608E-02  0.8681906E-01
         -1   -1    0    0    0  501 -0.00000000000E+00  0.00000000000E+00  0.56624853626E+03  0.56624853626E+03  0.00000000000E+00 0.  1.
          1   -1    0    0  501    0  0.00000000000E+00 -0.00000000000E+00 -0.15054845076E+04  0.15054845076E+04  0.00000000000E+00 0. -1.
         23    2    1    2    0    0  0.12440688326E+03 -0.40527845923E+03 -0.98342496983E+03  0.10747072946E+04  0.90240764709E+02 0.  0.
        254    2    1    2    0    0 -0.12440688326E+03  0.40527845923E+03  0.44188998535E+02  0.99702574924E+03  0.90132123848E+03 0.  0.
         23    2    4    4    0    0 -0.11531366101E+03  0.67880007365E+03 -0.44929866573E+02  0.69576266591E+03  0.89443915225E+02 0.  0.
         23    2    4    4    0    0 -0.90932222487E+01 -0.27352161441E+03  0.89118865108E+02  0.30126308333E+03  0.88997264084E+02 0.  0.
         11    1    3    3    0    0 -0.48999255515E+01 -0.40607406790E+01 -0.51329665238E+02  0.51722658658E+02  0.00000000000E+00 0.  1.
        -11    1    3    3    0    0  0.12930680881E+03 -0.40121771855E+03 -0.93209530459E+03  0.10229846359E+04  0.00000000000E+00 0. -1.
          1    1    5    5  502    0 -0.38529480324E+02  0.38802055822E+03  0.99211937214E+01  0.39005500194E+03  0.00000000000E+00 0. -1.
          1    1    6    6  503    0 -0.16006569002E+01 -0.27752931976E+03  0.80077324498E+02  0.28885543672E+03  0.00000000000E+00 0. -1.
         -1    1    5    5    0  502 -0.76784180685E+02  0.29077951542E+03 -0.54851060294E+02  0.30570766397E+03  0.00000000000E+00 0.  1.
         -1    1    6    6    0  503 -0.74925653486E+01  0.40077053407E+01  0.90415406104E+01  0.12407646602E+02  0.00000000000E+00 0.  1.
<mgrwt>
<rscale>  0 0.18465951E+04</rscale>
<asrwt>0</asrwt>
<pdfrwt beam="1">  1        1 0.23161300E+00 0.18465951E+04</pdfrwt>
<pdfrwt beam="2">  1       -1 0.87115160E-01 0.18465951E+04</pdfrwt>
<totfact> 0.79084186E+00</totfact>
</mgrwt>
</event>
<event>
12    1  0.4672461E-008  0.1891845E+04  0.7818608E-02  0.8658926E-01
         -2   -1    0    0    0  501 -0.00000000000E+00  0.00000000000E+00  0.30566664373E+03  0.30566664373E+03  0.00000000000E+00 0.  1.
          2   -1    0    0  501    0  0.00000000000E+00 -0.00000000000E+00 -0.29272722236E+04  0.29272722236E+04  0.00000000000E+00 0. -1.
         23    2    1    2    0    0  0.67582199660E+03 -0.82096933687E+01 -0.59124171952E+03  0.90235918579E+03  0.88783777346E+02 0.  0.
        254    2    1    2    0    0 -0.67582199660E+03  0.82096933687E+01 -0.20303638604E+04  0.23305796816E+04  0.92326674175E+03 0.  0.
         23    2    4    4    0    0 -0.87945699829E+03  0.11306591288E+03 -0.14873807358E+04  0.17340529540E+04  0.91704316070E+02 0.  0.
         23    2    4    4    0    0  0.20363500169E+03 -0.10485621952E+03 -0.54298312456E+03  0.59652672754E+03  0.92473901325E+02 0.  0.
         11    1    3    3    0    0  0.19892273539E+03  0.37470752542E+02 -0.16632639498E+03  0.26199004106E+03  0.00000000000E+00 0. -1.
        -11    1    3    3    0    0  0.47689926122E+03 -0.45680445910E+02 -0.42491532454E+03  0.64036914473E+03  0.00000000000E+00 0.  1.
          3    1    6    6  502    0  0.19627682299E+02 -0.51597727990E+02 -0.13283075842E+03  0.14384568756E+03  0.00000000000E+00 0. -1.
          3    1    5    5  503    0 -0.24852133603E+03  0.65925805755E+02 -0.47821624891E+03  0.54295473756E+03  0.00000000000E+00 0. -1.
         -3    1    5    5    0  503 -0.63093566226E+03  0.47140107129E+02 -0.10091644869E+04  0.11910982165E+04  0.00000000000E+00 0.  1.
         -3    1    6    6    0  502  0.18400731939E+03 -0.53258491526E+02 -0.41015236614E+03  0.45268103998E+03  0.00000000000E+00 0.  1.
<mgrwt>
<rscale>  0 0.18918451E+04</rscale>
<asrwt>0</asrwt>
<pdfrwt beam="1">  1        2 0.45034954E+00 0.18918451E+04</pdfrwt>
<pdfrwt beam="2">  1       -2 0.47025641E-01 0.18918451E+04</pdfrwt>
<totfact> 0.77845045E+00</totfact>
</mgrwt>
</event>
<event>
12    1  0.4672461E-008  0.1780436E+04  0.7818608E-02  0.8716773E-01
          1   -1    0    0  501    0  0.00000000000E+00  0.00000000000E+00  0.60062206465E+03  0.60062206465E+03  0.00000000000E+00 0. -1.
         -1   -1    0    0    0  501 -0.00000000000E+00 -0.00000000000E+00 -0.13194459984E+04  0.13194459984E+04  0.00000000000E+00 0.  1.
         23    2    1    2    0    0 -0.11415984013E+03 -0.10619963395E+03 -0.95959971406E+03  0.97653330084E+03  0.92058921746E+02 0.  0.
        254    2    1    2    0    0  0.11415984013E+03  0.10619963395E+03  0.24077578030E+03  0.94353476221E+03  0.89887376186E+03 0.  0.
         23    2    4    4    0    0  0.66565776158E+01  0.28399121003E+03  0.50988403686E+03  0.59069323476E+03  0.90782427530E+02 0.  0.
         23    2    4    4    0    0  0.10750326252E+03 -0.17779157608E+03 -0.26910825656E+03  0.35284152745E+03  0.94398589850E+02 0.  0.
         11    1    3    3    0    0 -0.12811839116E+03 -0.91710258766E+02 -0.89839146734E+03  0.91210324103E+03  0.00000000000E+00 0.  1.
        -11    1    3    3    0    0  0.13958551025E+02 -0.14489375181E+02 -0.61208246720E+02  0.64430059804E+02  0.00000000000E+00 0. -1.
          1    1    5    5  502    0  0.13485539628E+02  0.15688600643E+03  0.19226436871E+03  0.24851693357E+03  0.00000000000E+00 0. -1.
          3    1    6    6  503    0  0.49513951687E+02 -0.30447183310E+02 -0.28330883619E+02  0.64662982841E+02  0.00000000000E+00 0. -1.
         -1    1    5    5    0  502 -0.68289620124E+01  0.12710520359E+03  0.31761966815E+03  0.34217630120E+03  0.00000000000E+00 0.  1.
         -3    1    6    6    0  503  0.57989310830E+02 -0.14734439277E+03 -0.24077737294E+03  0.28817854461E+03  0.00000000000E+00 0.  1.
<mgrwt>
<rscale>  0 0.17804363E+04</rscale>
<asrwt>0</asrwt>
<pdfrwt beam="1">  1        1 0.92403395E-01 0.17804363E+04</pdfrwt>
<pdfrwt beam="2">  1       -1 0.20299169E+00 0.17804363E+04</pdfrwt>
<totfact> 0.46384479E+00</totfact>
</mgrwt>
</event>
<event>
12    1  0.4672461E-008  0.1557778E+04  0.7818608E-02  0.8846915E-01
          2   -1    0    0  501    0  0.00000000000E+00  0.00000000000E+00  0.23512546595E+04  0.23512546595E+04  0.00000000000E+00 0. -1.
         -2   -1    0    0    0  501 -0.00000000000E+00 -0.00000000000E+00 -0.25801894924E+03  0.25801894924E+03  0.00000000000E+00 0.  1.
         23    2    1    2    0    0  0.26869481335E+03 -0.21550950079E+03  0.61391983360E+02  0.36086847161E+03  0.88407185950E+02 0.  0.
        254    2    1    2    0    0 -0.26869481335E+03  0.21550950079E+03  0.20318437269E+04  0.22484051371E+04  0.89905254711E+03 0.  0.
         23    2    4    4    0    0 -0.30742363834E+03  0.52944852316E+03  0.11240353749E+04  0.12831205940E+04  0.90099403899E+02 0.  0.
         23    2    4    4    0    0  0.38728824986E+02 -0.31393902237E+03  0.90780835196E+03  0.96528454311E+03  0.87181498193E+02 0.  0.
         13    1    3    3    0    0  0.13917657874E+03 -0.69184620663E+02  0.56563209080E+02  0.16539657925E+03  0.00000000000E+00 0.  1.
        -13    1    3    3    0    0  0.12951823461E+03 -0.14632488013E+03  0.48287742798E+01  0.19547189236E+03  0.00000000000E+00 0. -1.
          2    1    5    5  502    0 -0.19388790103E+03  0.40135841789E+03  0.85589293337E+03  0.96500456537E+03  0.00000000000E+00 0.  1.
          3    1    6    6  503    0  0.23615010325E+02 -0.74824801933E+02  0.13453002788E+03  0.15573935950E+03  0.00000000000E+00 0. -1.
         -2    1    5    5    0  502 -0.11353573731E+03  0.12809010527E+03  0.26814244155E+03  0.31811602864E+03  0.00000000000E+00 0. -1.
         -3    1    6    6    0  503  0.15113814661E+02 -0.23911422044E+03  0.77327832409E+03  0.80954518361E+03  0.00000000000E+00 0.  1.
<mgrwt>
<rscale>  0 0.15577782E+04</rscale>
<asrwt>0</asrwt>
<pdfrwt beam="1">  1        2 0.36173147E+00 0.15577782E+04</pdfrwt>
<pdfrwt beam="2">  1       -2 0.39695225E-01 0.15577782E+04</pdfrwt>
<totfact> 0.24521038E+01</totfact>
</mgrwt>
</event>
<event>
12    1  0.4672461E-008  0.1473368E+04  0.7818608E-02  0.8902358E-01
          1   -1    0    0  501    0  0.00000000000E+00  0.00000000000E+00  0.45979231830E+03  0.45979231830E+03  0.00000000000E+00 0. -1.
         -1   -1    0    0    0  501 -0.00000000000E+00 -0.00000000000E+00 -0.11803233676E+04  0.11803233676E+04  0.00000000000E+00 0.  1.
         23    2    1    2    0    0  0.34059075646E+03 -0.29973500311E+03 -0.28091320533E+03  0.54200737300E+03  0.94955926549E+02 0.  0.
        254    2    1    2    0    0 -0.34059075646E+03  0.29973500311E+03 -0.43961784393E+03  0.10981083129E+04  0.89818421417E+03 0.  0.
         23    2    4    4    0    0 -0.63083022425E+03  0.29443906783E+03 -0.29704547920E+03  0.76271901724E+03  0.94144283218E+02 0.  0.
         23    2    4    4    0    0  0.29023946779E+03  0.52959352802E+01 -0.14257236472E+03  0.33538929561E+03  0.88837519309E+02 0.  0.
         11    1    3    3    0    0  0.21974563508E+03 -0.20114307784E+03 -0.13016387775E+03  0.32509893412E+03  0.00000000000E+00 0. -1.
        -11    1    3    3    0    0  0.12084512138E+03 -0.98591925271E+02 -0.15074932759E+03  0.21690843888E+03  0.00000000000E+00 0.  1.
          2    1    5    5  502    0 -0.33416189053E+03  0.16217395511E+03 -0.10766328904E+03  0.38672463667E+03  0.00000000000E+00 0. -1.
          1    1    6    6  503    0  0.56966934123E+02  0.58493896902E+01 -0.71342694467E+02  0.91483479366E+02  0.00000000000E+00 0. -1.
         -2    1    5    5    0  502 -0.29666833371E+03  0.13226511271E+03 -0.18938219017E+03  0.37599438057E+03  0.00000000000E+00 0.  1.
         -1    1    6    6    0  503  0.23327253366E+03 -0.55345441003E+00 -0.71229670254E+02  0.24390581624E+03  0.00000000000E+00 0.  1.
<mgrwt>
<rscale>  0 0.14733684E+04</rscale>
<asrwt>0</asrwt>
<pdfrwt beam="1">  1        1 0.70737280E-01 0.14733684E+04</pdfrwt>
<pdfrwt beam="2">  1       -1 0.18158821E+00 0.14733684E+04</pdfrwt>
<totfact> 0.97710112E+00</totfact>
</mgrwt>
</event>
<event>
12    1  0.4672461E-008  0.2299183E+04  0.7818608E-02  0.8478243E-01
          2   -1    0    0  501    0  0.00000000000E+00  0.00000000000E+00  0.13194105217E+04  0.13194105217E+04  0.00000000000E+00 0. -1.
         -2   -1    0    0    0  501 -0.00000000000E+00 -0.00000000000E+00 -0.10016298378E+04  0.10016298378E+04  0.00000000000E+00 0.  1.
         23    2    1    2    0    0  0.13255512247E+03 -0.29951511636E+03  0.10589444918E+04  0.11123143182E+04  0.92733706907E+02 0.  0.
        254    2    1    2    0    0 -0.13255512247E+03  0.29951511636E+03 -0.74116380792E+03  0.12087260412E+04  0.89689168078E+03 0.  0.
         23    2    4    4    0    0  0.32864020513E+03  0.17689291952E+03 -0.86253205162E+02  0.39304336499E+03  0.88022621870E+02 0.  0.
         23    2    4    4    0    0 -0.46119532760E+03  0.12262219685E+03 -0.65491060276E+03  0.81568267619E+03  0.93236244484E+02 0.  0.
         11    1    3    3    0    0  0.11142185767E+02 -0.53979707555E+02  0.91292756898E+02  0.10664110180E+03  0.00000000000E+00 0.  1.
        -11    1    3    3    0    0  0.12141293670E+03 -0.24553540881E+03  0.96765173491E+03  0.10056732164E+04  0.00000000000E+00 0. -1.
          4    1    5    5  502    0  0.97404788098E+02  0.20761666309E+02 -0.50766211548E+02  0.11178527527E+03  0.00000000000E+00 0. -1.
          3    1    6    6  503    0 -0.35706589262E+03  0.71118940898E+02 -0.54725772283E+03  0.65730127843E+03  0.00000000000E+00 0. -1.
         -4    1    5    5    0  502  0.23123541703E+03  0.15613125321E+03 -0.35486993614E+02  0.28125808972E+03  0.00000000000E+00 0.  1.
         -3    1    6    6    0  503 -0.10412943498E+03  0.51503255947E+02 -0.10765287992E+03  0.15838139777E+03  0.00000000000E+00 0.  1.
<mgrwt>
<rscale>  0 0.22991833E+04</rscale>
<asrwt>0</asrwt>
<pdfrwt beam="1">  1        2 0.20298623E+00 0.22991833E+04</pdfrwt>
<pdfrwt beam="2">  1       -2 0.15409690E+00 0.22991833E+04</pdfrwt>
<totfact> 0.40727415E+00</totfact>
</mgrwt>
</event>
<event>
12    1  0.4672461E-008  0.2130783E+04  0.7818608E-02  0.8547803E-01
          2   -1    0    0  501    0  0.00000000000E+00  0.00000000000E+00  0.12280526053E+04  0.12280526053E+04  0.00000000000E+00 0. -1.
         -2   -1    0    0    0  501 -0.00000000000E+00 -0.00000000000E+00 -0.92427543027E+03  0.92427543027E+03  0.00000000000E+00 0.  1.
         23    2    1    2    0    0 -0.34241510021E+03  0.16821690977E+03 -0.65374145388E+03  0.76237022786E+03  0.91024426512E+02 0.  0.
        254    2    1    2    0    0  0.34241510021E+03 -0.16821690977E+03  0.95751862891E+03  0.13899578077E+04  0.93252118093E+03 0.  0.
         23    2    4    4    0    0  0.23880193921E+03  0.25115005422E+03  0.25755726439E+02  0.35917761225E+03  0.90788125858E+02 0.  0.
         23    2    4    4    0    0  0.10361316100E+03 -0.41936696399E+03  0.93176290247E+03  0.10307801954E+04  0.87871310872E+02 0.  0.
         13    1    3    3    0    0 -0.26174205324E+03  0.16892007150E+03 -0.51620435823E+03  0.60291776590E+03  0.00000000000E+00 0.  1.
        -13    1    3    3    0    0 -0.80673046969E+02 -0.70316172261E+00 -0.13753709565E+03  0.15945246196E+03  0.00000000000E+00 0. -1.
          4    1    6    6  502    0 -0.80271704455E+01 -0.57146924177E+02  0.81530873285E+02  0.99887385123E+02  0.00000000000E+00 0. -1.
          4    1    5    5  503    0  0.12130887372E+03  0.67408038829E+02 -0.53080740440E+01  0.13888074810E+03  0.00000000000E+00 0. -1.
         -4    1    5    5    0  503  0.11749306549E+03  0.18374201539E+03  0.31063800483E+02  0.22029686416E+03  0.00000000000E+00 0.  1.
         -4    1    6    6    0  502  0.11164033145E+03 -0.36222003982E+03  0.85023202919E+03  0.93089281032E+03  0.00000000000E+00 0.  1.
<mgrwt>
<rscale>  0 0.21307828E+04</rscale>
<asrwt>0</asrwt>
<pdfrwt beam="1">  1        2 0.18893117E+00 0.21307828E+04</pdfrwt>
<pdfrwt beam="2">  1       -2 0.14219622E+00 0.21307828E+04</pdfrwt>
<totfact> 0.57785292E+00</totfact>
</mgrwt>
</event>
<event>
12    1  0.4672461E-008  0.2010620E+04  0.7818608E-02  0.8601672E-01
         -1   -1    0    0    0  501 -0.00000000000E+00  0.00000000000E+00  0.84276481659E+03  0.84276481659E+03  0.00000000000E+00 0.  1.
          1   -1    0    0  501    0  0.00000000000E+00 -0.00000000000E+00 -0.11992050485E+04  0.11992050485E+04  0.00000000000E+00 0. -1.
         23    2    1    2    0    0  0.25930458479E+03 -0.28419169642E+03  0.56407048403E+03  0.68911763937E+03  0.93294275927E+02 0.  0.
        254    2    1    2    0    0 -0.25930458479E+03  0.28419169642E+03 -0.92051071590E+03  0.13528522257E+04  0.91370967951E+03 0.  0.
         23    2    4    4    0    0  0.21587491629E+03  0.32707913224E+03 -0.12593263833E+03  0.42149443421E+03  0.90640997576E+02 0.  0.
         23    2    4    4    0    0 -0.47517950108E+03 -0.42887435821E+02 -0.79457807757E+03  0.93135779147E+03  0.91859261810E+02 0.  0.
         11    1    3    3    0    0 -0.52629101188E+01 -0.80240612187E+01  0.35008329308E+02  0.36299681848E+02  0.00000000000E+00 0. -1.
        -11    1    3    3    0    0  0.26456749490E+03 -0.27616763520E+03  0.52906215473E+03  0.65281795752E+03  0.00000000000E+00 0.  1.
          2    1    5    5  502    0  0.69802466925E+02  0.72328338568E+02 -0.70174264179E+02  0.12258956033E+03  0.00000000000E+00 0.  1.
          4    1    6    6  503    0 -0.40079925723E+03 -0.55047555194E+02 -0.71658173016E+03  0.82289711017E+03  0.00000000000E+00 0. -1.
         -2    1    5    5    0  502  0.14607244937E+03  0.25475079368E+03 -0.55758374152E+02  0.29890487388E+03  0.00000000000E+00 0. -1.
         -4    1    6    6    0  503 -0.74380243851E+02  0.12160119372E+02 -0.77996347401E+02  0.10846068129E+03  0.00000000000E+00 0.  1.
<mgrwt>
<rscale>  0 0.20106196E+04</rscale>
<asrwt>0</asrwt>
<pdfrwt beam="1">  1        1 0.18449308E+00 0.20106196E+04</pdfrwt>
<pdfrwt beam="2">  1       -1 0.12965613E+00 0.20106196E+04</pdfrwt>
<totfact> 0.50635005E+00</totfact>
</mgrwt>
</event>
<event>
12    1  0.4672461E-008  0.1396361E+04  0.7818608E-02  0.8956457E-01
          1   -1    0    0  501    0  0.00000000000E+00  0.00000000000E+00  0.50822833661E+03  0.50822833661E+03  0.00000000000E+00 0. -1.
         -1   -1    0    0    0  501 -0.00000000000E+00 -0.00000000000E+00 -0.95912851467E+03  0.95912851467E+03  0.00000000000E+00 0.  1.
         23    2    1    2    0    0  0.40223166662E+03  0.49515784561E+02 -0.31517730085E+03  0.52851141702E+03  0.12548091646E+03 0.  0.
        254    2    1    2    0    0 -0.40223166662E+03 -0.49515784561E+02 -0.13572287721E+03  0.93884543426E+03  0.83592339570E+03 0.  0.
         23    2    4    4    0    0 -0.56032031111E+03 -0.12793968194E+03  0.14064132132E+03  0.59872632674E+03  0.91464855615E+02 0.  0.
         23    2    4    4    0    0  0.15808864449E+03  0.78423897380E+02 -0.27636419853E+03  0.34011910752E+03  0.90341075238E+02 0.  0.
         13    1    3    3    0    0  0.23753461109E+02  0.25755740191E+02 -0.66078954501E+02  0.74793136687E+02  0.00000000000E+00 0.  1.
        -13    1    3    3    0    0  0.37847820551E+03  0.23760044370E+02 -0.24909834635E+03  0.45371828033E+03  0.00000000000E+00 0. -1.
          2    1    6    6  502    0  0.11419317567E+03  0.40684342411E+02 -0.24714499057E+03  0.27527430584E+03  0.00000000000E+00 0. -1.
          2    1    5    5  503    0 -0.24319534152E+03 -0.32608352594E+02  0.10051013534E+03  0.26515951068E+03  0.00000000000E+00 0. -1.
         -2    1    5    5    0  503 -0.31712496959E+03 -0.95331329348E+02  0.40131185986E+02  0.33356681606E+03  0.00000000000E+00 0.  1.
         -2    1    6    6    0  502  0.43895468818E+02  0.37739554969E+02 -0.29219207954E+02  0.64844801685E+02  0.00000000000E+00 0.  1.
<mgrwt>
<rscale>  0 0.13963614E+04</rscale>
<asrwt>0</asrwt>
<pdfrwt beam="1">  1        1 0.78188974E-01 0.13963614E+04</pdfrwt>
<pdfrwt beam="2">  1       -1 0.14755823E+00 0.13963614E+04</pdfrwt>
<totfact> 0.15412372E+01</totfact>
</mgrwt>
</event>
<event>
12    1  0.4672461E-008  0.2079461E+04  0.7818608E-02  0.8570345E-01
          2   -1    0    0  501    0  0.00000000000E+00  0.00000000000E+00  0.31716407423E+04  0.31716407423E+04  0.00000000000E+00 0. -1.
         -2   -1    0    0    0  501 -0.00000000000E+00 -0.00000000000E+00 -0.34084567159E+03  0.34084567159E+03  0.00000000000E+00 0.  1.
         23    2    1    2    0    0  0.28215458674E+03  0.26337243243E+02  0.24930515054E+04  0.25106184131E+04  0.87144399080E+02 0.  0.
        254    2    1    2    0    0 -0.28215458674E+03 -0.26337243243E+02  0.33774356534E+03  0.10018680008E+04  0.89964654947E+03 0.  0.
         23    2    4    4    0    0  0.18015181517E+03  0.10728236475E+02  0.46953769632E+03  0.51114060102E+03  0.90715457205E+02 0.  0.
         23    2    4    4    0    0 -0.46230640191E+03 -0.37065479718E+02 -0.13179413098E+03  0.49072739982E+03  0.91337992883E+02 0.  0.
         11    1    3    3    0    0  0.24578436787E+03  0.47940106661E+02  0.22523612245E+04  0.22662390198E+04  0.00000000000E+00 0. -1.
        -11    1    3    3    0    0  0.36370218876E+02 -0.21602863418E+02  0.24069028093E+03  0.24437939329E+03  0.00000000000E+00 0.  1.
          2    1    5    5  502    0  0.11279838689E+03 -0.28877287812E+02  0.21027759332E+03  0.24036231004E+03  0.00000000000E+00 0.  1.
          1    1    6    6  503    0 -0.30435025218E+02  0.19884992790E+02 -0.30130850572E+01  0.36479890074E+02  0.00000000000E+00 0. -1.
         -2    1    5    5    0  502  0.67353428274E+02  0.39605524286E+02  0.25926010301E+03  0.27077829098E+03  0.00000000000E+00 0. -1.
         -1    1    6    6    0  503 -0.43187137669E+03 -0.56950472508E+02 -0.12878104593E+03  0.45424750975E+03  0.00000000000E+00 0.  1.
<mgrwt>
<rscale>  0 0.20794615E+04</rscale>
<asrwt>0</asrwt>
<pdfrwt beam="1">  1        2 0.48794471E+00 0.20794615E+04</pdfrwt>
<pdfrwt beam="2">  1       -2 0.52437798E-01 0.20794615E+04</pdfrwt>
<totfact> 0.42983401E+00</totfact>
</mgrwt>
</event>
<event>
12    1  0.4672461E-008  0.1548518E+04  0.7818608E-02  0.8852815E-01
         -2   -1    0    0    0  501 -0.00000000000E+00  0.00000000000E+00  0.29249524711E+03  0.29249524711E+03  0.00000000000E+00 0.  1.
          2   -1    0    0  501    0  0.00000000000E+00 -0.00000000000E+00 -0.20495276675E+04  0.20495276675E+04  0.00000000000E+00 0. -1.
         23    2    1    2    0    0 -0.10696420557E+03  0.40467085848E+03 -0.10096358851E+04  0.10967025403E+04  0.90509647773E+02 0.  0.
        254    2    1    2    0    0  0.10696420557E+03 -0.40467085848E+03 -0.74739653522E+03  0.12453203743E+04  0.90389236571E+03 0.  0.
         23    2    4    4    0    0  0.99765267830E+02 -0.65261455228E+03 -0.31202327497E+03  0.73595545868E+03  0.91722682728E+02 0.  0.
         23    2    4    4    0    0  0.71989377434E+01  0.24794369380E+03 -0.43537326025E+03  0.50936491561E+03  0.91514160187E+02 0.  0.
         13    1    3    3    0    0 -0.18608818032E+02  0.14361980037E+03 -0.25411492494E+03  0.29248475216E+03  0.00000000000E+00 0. -1.
        -13    1    3    3    0    0 -0.88355387541E+02  0.26105105810E+03 -0.75552096020E+03  0.80421778813E+03  0.00000000000E+00 0.  1.
          4    1    5    5  502    0  0.89003611743E+01 -0.38811236355E+02 -0.46002666984E+02  0.60842204645E+02  0.00000000000E+00 0.  1.
          1    1    6    6  503    0  0.25627501366E+02  0.45980075891E+02 -0.15231012699E+03  0.16114996428E+03  0.00000000000E+00 0. -1.
         -4    1    5    5    0  502  0.90864906655E+02 -0.61380331592E+03 -0.26602060798E+03  0.67511325403E+03  0.00000000000E+00 0. -1.
         -1    1    6    6    0  503 -0.18428563622E+02  0.20196361791E+03 -0.28306313326E+03  0.34821495133E+03  0.00000000000E+00 0.  1.
<mgrwt>
<rscale>  0 0.15485181E+04</rscale>
<asrwt>0</asrwt>
<pdfrwt beam="1">  1        2 0.31531194E+00 0.15485181E+04</pdfrwt>
<pdfrwt beam="2">  1       -2 0.44999270E-01 0.15485181E+04</pdfrwt>
<totfact> 0.28280030E+01</totfact>
</mgrwt>
</event>
<event>
12    1  0.4672461E-008  0.1047763E+04  0.7818608E-02  0.9257656E-01
         -2   -1    0    0    0  501 -0.00000000000E+00  0.00000000000E+00  0.26268547691E+03  0.26268547691E+03  0.00000000000E+00 0.  1.
          2   -1    0    0  501    0  0.00000000000E+00 -0.00000000000E+00 -0.10447934059E+04  0.10447934059E+04  0.00000000000E+00 0. -1.
         23    2    1    2    0    0 -0.47629840724E+02 -0.13490857138E+02 -0.17907253019E+03  0.20558779975E+03  0.88027083247E+02 0.  0.
        254    2    1    2    0    0  0.47629840724E+02  0.13490857138E+02 -0.60303539885E+03  0.11018910831E+04  0.92090263428E+03 0.  0.
         23    2    4    4    0    0  0.26181708021E+03  0.36676624868E+03 -0.47106784717E+03  0.65862212345E+03  0.93875024355E+02 0.  0.
         23    2    4    4    0    0 -0.21418723949E+03 -0.35327539154E+03 -0.13196755168E+03  0.44326895966E+03  0.91609279395E+02 0.  0.
         13    1    3    3    0    0 -0.46024260578E+02  0.20683330203E+02 -0.15691296619E+03  0.16482630757E+03  0.00000000000E+00 0. -1.
        -13    1    3    3    0    0 -0.16055801460E+01 -0.34174187341E+02 -0.22159564001E+02  0.40761492180E+02  0.00000000000E+00 0.  1.
          4    1    5    5  502    0  0.16813427868E+03  0.25077370655E+03 -0.25009153656E+03  0.39204893090E+03  0.00000000000E+00 0. -1.
          1    1    6    6  503    0 -0.25832332781E+01 -0.67200901338E+02 -0.24311840800E+02  0.71510138008E+02  0.00000000000E+00 0. -1.
         -4    1    5    5    0  502  0.93682801530E+02  0.11599254213E+03 -0.22097631061E+03  0.26657319255E+03  0.00000000000E+00 0.  1.
         -1    1    6    6    0  503 -0.21160400621E+03 -0.28607449021E+03 -0.10765571088E+03  0.37175882165E+03  0.00000000000E+00 0.  1.
<mgrwt>
<rscale>  0 0.10477634E+04</rscale>
<asrwt>0</asrwt>
<pdfrwt beam="1">  1        2 0.16073745E+00 0.10477634E+04</pdfrwt>
<pdfrwt beam="2">  1       -2 0.40413150E-01 0.10477634E+04</pdfrwt>
<totfact> 0.13602912E+02</totfact>
</mgrwt>
</event>
<event>
12    1  0.4672461E-008  0.1844538E+04  0.7818608E-02  0.8682967E-01
          2   -1    0    0  501    0  0.00000000000E+00  0.00000000000E+00  0.15058705392E+04  0.15058705392E+04  0.00000000000E+00 0. -1.
         -2   -1    0    0    0  501 -0.00000000000E+00 -0.00000000000E+00 -0.56484274925E+03  0.56484274925E+03  0.00000000000E+00 0.  1.
         23    2    1    2    0    0 -0.35622226917E+03 -0.57358177170E+03  0.57757765623E+03  0.89306480453E+03  0.89880154832E+02 0.  0.
        254    2    1    2    0    0  0.35622226917E+03  0.57358177170E+03  0.36345013370E+03  0.11776484839E+04  0.89379505372E+03 0.  0.
         23    2    4    4    0    0  0.16431320881E+03 -0.17649103355E+03 -0.94752699295E+02  0.27372591440E+03  0.88316967088E+02 0.  0.
         23    2    4    4    0    0  0.19190906036E+03  0.75007280525E+03  0.45820283299E+03  0.90392256950E+03  0.87680527318E+02 0.  0.
         13    1    3    3    0    0 -0.10486702240E+03 -0.10092113070E+03  0.13395656271E+03  0.19780426614E+03  0.00000000000E+00 0.  1.
        -13    1    3    3    0    0 -0.25135524677E+03 -0.47266064100E+03  0.44362109352E+03  0.69526053839E+03  0.00000000000E+00 0. -1.
          4    1    5    5  502    0 -0.81598433983E+01 -0.14323649282E+02  0.43997612872E+01  0.17061883613E+02  0.00000000000E+00 0. -1.
          1    1    6    6  503    0  0.18285875877E+03  0.73986188323E+03  0.45995859035E+03  0.89016562321E+03  0.00000000000E+00 0.  1.
         -4    1    5    5    0  502  0.17247305221E+03 -0.16216738426E+03 -0.99152460583E+02  0.25666403078E+03  0.00000000000E+00 0.  1.
         -1    1    6    6    0  503  0.90503015904E+01  0.10210922011E+02 -0.17557573519E+01  0.13756946284E+02  0.00000000000E+00 0. -1.
<mgrwt>
<rscale>  0 0.18445379E+04</rscale>
<asrwt>0</asrwt>
<pdfrwt beam="1">  1        2 0.23167239E+00 0.18445379E+04</pdfrwt>
<pdfrwt beam="2">  1       -2 0.86898885E-01 0.18445379E+04</pdfrwt>
<totfact> 0.13575991E+01</totfact>
</mgrwt>
</event>
<event>
12    1  0.4672461E-008  0.1896837E+04  0.7818608E-02  0.8656432E-01
         -1   -1    0    0    0  501 -0.00000000000E+00  0.00000000000E+00  0.28825672939E+03  0.28825672939E+03  0.00000000000E+00 0.  1.
          1   -1    0    0  501    0  0.00000000000E+00 -0.00000000000E+00 -0.31204751184E+04  0.31204751184E+04  0.00000000000E+00 0. -1.
         23    2    1    2    0    0 -0.57647913570E+03 -0.44420606376E+03 -0.12404785983E+04  0.14410343276E+04  0.90252753629E+02 0.  0.
        254    2    1    2    0    0  0.57647913570E+03  0.44420606376E+03 -0.15917397907E+04  0.19676975201E+04  0.89919449986E+03 0.  0.
         23    2    4    4    0    0  0.27256639068E+03  0.68998286192E+03 -0.91154273180E+03  0.11788128522E+04  0.91218427587E+02 0.  0.
         23    2    4    4    0    0  0.30391274502E+03 -0.24577679816E+03 -0.68019705887E+03  0.78888466794E+03  0.83077008394E+02 0.  0.
         13    1    3    3    0    0 -0.50052708309E+02 -0.75463435151E+02 -0.14699115524E+03  0.17264531090E+03  0.00000000000E+00 0. -1.
        -13    1    3    3    0    0 -0.52642642739E+03 -0.36874262861E+03 -0.10934874431E+04  0.12683890167E+04  0.00000000000E+00 0.  1.
          1    1    5    5  502    0  0.41584417150E+02  0.46882890163E+02 -0.57509911824E+02  0.85056799244E+02  0.00000000000E+00 0. -1.
          3    1    6    6  503    0  0.32280291840E+02 -0.55145151161E+02 -0.15469876088E+03  0.16737595872E+03  0.00000000000E+00 0. -1.
         -1    1    5    5    0  502  0.23098197353E+03  0.64309997176E+03 -0.85403281997E+03  0.10937560529E+04  0.00000000000E+00 0.  1.
         -3    1    6    6    0  503  0.27163245318E+03 -0.19063164700E+03 -0.52549829798E+03  0.62150870922E+03  0.00000000000E+00 0.  1.
<mgrwt>
<rscale>  0 0.18968373E+04</rscale>
<asrwt>0</asrwt>
<pdfrwt beam="1">  1        1 0.48007306E+00 0.18968373E+04</pdfrwt>
<pdfrwt beam="2">  1       -1 0.44347192E-01 0.18968373E+04</pdfrwt>
<totfact> 0.23024843E+00</totfact>
</mgrwt>
</event>
<event>
12    1  0.4672461E-008  0.1839360E+04  0.7818608E-02  0.8685644E-01
          1   -1    0    0  501    0  0.00000000000E+00  0.00000000000E+00  0.80511811528E+03  0.80511811528E+03  0.00000000000E+00 0. -1.
         -1   -1    0    0    0  501 -0.00000000000E+00 -0.00000000000E+00 -0.10505433176E+04  0.10505433176E+04  0.00000000000E+00 0.  1.
         23    2    1    2    0    0  0.50225226159E+03 -0.40110712000E+03 -0.17952164887E+03  0.67284484082E+03  0.85719900911E+02 0.  0.
        254    2    1    2    0    0 -0.50225226159E+03  0.40110712000E+03 -0.65903553486E+02  0.11828165921E+04  0.99074091274E+03 0.  0.
         23    2    4    4    0    0  0.26547166903E+03  0.23281473848E+03  0.89365484085E+02  0.37620785927E+03  0.94171408187E+02 0.  0.
         23    2    4    4    0    0 -0.76772393062E+03  0.16829238152E+03 -0.15526903757E+03  0.80660873282E+03  0.93738009959E+02 0.  0.
         13    1    3    3    0    0  0.34960256438E+03 -0.32722202123E+03 -0.13453437038E+03  0.49738888308E+03  0.00000000000E+00 0.  1.
        -13    1    3    3    0    0  0.15264969721E+03 -0.73885098769E+02 -0.44987278497E+02  0.17545595774E+03  0.00000000000E+00 0. -1.
          2    1    5    5  502    0  0.25898157799E+03  0.19928786787E+03  0.62380727045E+02  0.33268373438E+03  0.00000000000E+00 0. -1.
          1    1    6    6  503    0 -0.20430790583E+03  0.71752248753E+02 -0.76105860880E+02  0.22952605004E+03  0.00000000000E+00 0. -1.
         -2    1    5    5    0  502  0.64900910422E+01  0.33526870605E+02  0.26984757041E+02  0.43524124883E+02  0.00000000000E+00 0.  1.
         -1    1    6    6    0  503 -0.56341602479E+03  0.96540132771E+02 -0.79163176690E+02  0.57708268278E+03  0.00000000000E+00 0.  1.
<mgrwt>
<rscale>  0 0.18393602E+04</rscale>
<asrwt>0</asrwt>
<pdfrwt beam="1">  1        1 0.12386433E+00 0.18393602E+04</pdfrwt>
<pdfrwt beam="2">  1       -1 0.16162205E+00 0.18393602E+04</pdfrwt>
<totfact> 0.58469114E+00</totfact>
</mgrwt>
</event>
<event>
12    1  0.4672461E-008  0.1217878E+04  0.7818608E-02  0.9097351E-01
          2   -1    0    0  501    0  0.00000000000E+00  0.00000000000E+00  0.18432009274E+04  0.18432009274E+04  0.00000000000E+00 0. -1.
         -2   -1    0    0    0  501 -0.00000000000E+00 -0.00000000000E+00 -0.20117527715E+03  0.20117527715E+03  0.00000000000E+00 0.  1.
         23    2    1    2    0    0  0.13017233402E+03 -0.78061205409E+02  0.12489020367E+02  0.17738847830E+03  0.90952230705E+02 0.  0.
        254    2    1    2    0    0 -0.13017233402E+03  0.78061205409E+02  0.16295366299E+04  0.18669877263E+04  0.89845153099E+03 0.  0.
         23    2    4    4    0    0 -0.80868262176E+02 -0.39944023653E+03  0.64828940217E+03  0.77114408936E+03  0.91059756200E+02 0.  0.
         23    2    4    4    0    0 -0.49304071842E+02  0.47750144193E+03  0.98124722776E+03  0.10958436369E+04  0.87112778015E+02 0.  0.
         13    1    3    3    0    0 -0.87185645620E+01 -0.27973890870E+02  0.18507146963E+01  0.29359446236E+02  0.00000000000E+00 0. -1.
        -13    1    3    3    0    0  0.13889089858E+03 -0.50087314539E+02  0.10638305671E+02  0.14802903206E+03  0.00000000000E+00 0.  1.
          2    1    5    5  502    0 -0.70765841535E+02 -0.34280655042E+03  0.60569275951E+03  0.69956261640E+03  0.00000000000E+00 0. -1.
          3    1    6    6  503    0 -0.37777075382E+02  0.33324301541E+03  0.58955886048E+03  0.67827550797E+03  0.00000000000E+00 0. -1.
         -2    1    5    5    0  502 -0.10102420641E+02 -0.56633686109E+02  0.42596642661E+02  0.71581472960E+02  0.00000000000E+00 0.  1.
         -3    1    6    6    0  503 -0.11526996460E+02  0.14425842652E+03  0.39168836728E+03  0.41756812897E+03  0.00000000000E+00 0.  1.
<mgrwt>
<rscale>  0 0.12178776E+04</rscale>
<asrwt>0</asrwt>
<pdfrwt beam="1">  1        2 0.28356936E+00 0.12178776E+04</pdfrwt>
<pdfrwt beam="2">  1       -2 0.30950044E-01 0.12178776E+04</pdfrwt>
<totfact> 0.77873350E+01</totfact>
</mgrwt>
</event>
<event>
12    1  0.4672461E-008  0.1377509E+04  0.7818608E-02  0.8970262E-01
         -1   -1    0    0    0  501 -0.00000000000E+00  0.00000000000E+00  0.95241737411E+03  0.95241737411E+03  0.00000000000E+00 0.  1.
          1   -1    0    0  501    0  0.00000000000E+00 -0.00000000000E+00 -0.49808277175E+03  0.49808277175E+03  0.00000000000E+00 0. -1.
         23    2    1    2    0    0  0.25604010934E+03 -0.62725250872E+02  0.42716945750E+03  0.50981662768E+03  0.89152979459E+02 0.  0.
        254    2    1    2    0    0 -0.25604010934E+03  0.62725250872E+02  0.27165144854E+02  0.94068351819E+03  0.90258326021E+03 0.  0.
         23    2    4    4    0    0 -0.37683526059E+02 -0.34668986764E+03 -0.20222844872E+03  0.41352257289E+03  0.92144779318E+02 0.  0.
         23    2    4    4    0    0 -0.21835658328E+03  0.40941511852E+03  0.22939359358E+03  0.52716094530E+03  0.99884456946E+02 0.  0.
         13    1    3    3    0    0  0.19517991411E+03 -0.21212167382E+02  0.36032585017E+03  0.41034116686E+03  0.00000000000E+00 0.  1.
        -13    1    3    3    0    0  0.60860195230E+02 -0.41513083489E+02  0.66843607331E+02  0.99475460819E+02  0.00000000000E+00 0. -1.
          4    1    5    5  502    0  0.23654724154E+02 -0.64698237390E+02 -0.18189788009E+02  0.71247991438E+02  0.00000000000E+00 0. -1.
          4    1    6    6  503    0 -0.45017479285E-01 -0.55599819551E+01  0.12116777056E+01  0.56906580266E+01  0.00000000000E+00 0. -1.
         -4    1    5    5    0  502 -0.61338250213E+02 -0.28199163025E+03 -0.18403866071E+03  0.34227458146E+03  0.00000000000E+00 0.  1.
         -4    1    6    6    0  503 -0.21831156580E+03  0.41497510047E+03  0.22818191587E+03  0.52147028727E+03  0.00000000000E+00 0.  1.
<mgrwt>
<rscale>  0 0.13775089E+04</rscale>
<asrwt>0</asrwt>
<pdfrwt beam="1">  1        1 0.76628119E-01 0.13775089E+04</pdfrwt>
<pdfrwt beam="2">  1       -1 0.14652575E+00 0.13775089E+04</pdfrwt>
<totfact> 0.16173456E+01</totfact>
</mgrwt>
</event>
<event>
12    1  0.4672461E-008  0.1743292E+04  0.7818608E-02  0.8737051E-01
         -1   -1    0    0    0  501 -0.00000000000E+00  0.00000000000E+00  0.11561560627E+04  0.11561560627E+04  0.00000000000E+00 0.  1.
          1   -1    0    0  501    0  0.00000000000E+00 -0.00000000000E+00 -0.65714898530E+03  0.65714898530E+03  0.00000000000E+00 0. -1.
         23    2    1    2    0    0 -0.32344672601E+03  0.30195798983E+03  0.61553331508E+03  0.76382741447E+03  0.93566259673E+02 0.  0.
        254    2    1    2    0    0  0.32344672601E+03 -0.30195798983E+03 -0.11652623764E+03  0.10494776336E+04  0.94447261851E+03 0.  0.
         23    2    4    4    0    0  0.63401014933E+03 -0.86545798180E+02 -0.12981608099E+03  0.66032751822E+03  0.98596002941E+02 0.  0.
         23    2    4    4    0    0 -0.31056342332E+03 -0.21541219165E+03  0.13289843354E+02  0.38915011536E+03  0.91701363832E+02 0.  0.
         11    1    3    3    0    0 -0.21631766400E+03  0.24807701301E+03  0.40883964447E+03  0.52486702224E+03  0.00000000000E+00 0.  1.
        -11    1    3    3    0    0 -0.10712906201E+03  0.53880976816E+02  0.20669367060E+03  0.23896039223E+03  0.00000000000E+00 0. -1.
          1    1    6    6  502    0 -0.13098025103E+03 -0.14616434678E+03  0.12736512405E+02  0.19667755637E+03  0.00000000000E+00 0. -1.
          1    1    5    5  503    0  0.23095193300E+03 -0.11720582787E+02 -0.31880675596E+01  0.23127112053E+03  0.00000000000E+00 0. -1.
         -1    1    5    5    0  503  0.40305821633E+03 -0.74825215393E+02 -0.12662801343E+03  0.42905639769E+03  0.00000000000E+00 0.  1.
         -1    1    6    6    0  502 -0.17958317229E+03 -0.69247844867E+02  0.55333094893E+00  0.19247255899E+03  0.00000000000E+00 0.  1.
<mgrwt>
<rscale>  0 0.17432920E+04</rscale>
<asrwt>0</asrwt>
<pdfrwt beam="1">  1        1 0.10109984E+00 0.17432920E+04</pdfrwt>
<pdfrwt beam="2">  1       -1 0.17787016E+00 0.17432920E+04</pdfrwt>
<totfact> 0.61248514E+00</totfact>
</mgrwt>
</event>
<event>
12    1  0.4672461E-008  0.2065391E+04  0.7818608E-02  0.8576644E-01
          2   -1    0    0  501    0  0.00000000000E+00  0.00000000000E+00  0.10033903986E+04  0.10033903986E+04  0.00000000000E+00 0.  1.
         -2   -1    0    0    0  501 -0.00000000000E+00 -0.00000000000E+00 -0.10628567702E+04  0.10628567702E+04  0.00000000000E+00 0. -1.
         23    2    1    2    0    0  0.39674828267E+03 -0.58600276255E+03  0.41821027871E+03  0.82691374793E+03  0.89878094004E+02 0.  0.
        254    2    1    2    0    0 -0.39674828267E+03  0.58600276255E+03 -0.47767665032E+03  0.12393334209E+04  0.89831169886E+03 0.  0.
         23    2    4    4    0    0  0.24240073814E+03 -0.55583949961E+01 -0.46635886052E+02  0.26332836411E+03  0.91530912093E+02 0.  0.
         23    2    4    4    0    0 -0.63914902081E+03  0.59156115754E+03 -0.43104076427E+03  0.97600505676E+03  0.91288862616E+02 0.  0.
         13    1    3    3    0    0  0.59244362081E+02 -0.51924264914E+02  0.70770065779E+02  0.10589818665E+03  0.00000000000E+00 0. -1.
        -13    1    3    3    0    0  0.33750392059E+03 -0.53407849763E+03  0.34744021293E+03  0.72101556128E+03  0.00000000000E+00 0.  1.
          1    1    6    6  502    0 -0.46961702347E+03  0.39224066746E+03 -0.27038992808E+03  0.66895710113E+03  0.00000000000E+00 0. -1.
          1    1    5    5  503    0  0.41027493089E+02  0.14353605661E+02 -0.42705735453E+02  0.60934891689E+02  0.00000000000E+00 0. -1.
         -1    1    5    5    0  503  0.20137324506E+03 -0.19912000657E+02 -0.39301505991E+01  0.20239347242E+03  0.00000000000E+00 0.  1.
         -1    1    6    6    0  502 -0.16953199735E+03  0.19932049008E+03 -0.16065083618E+03  0.30704795563E+03  0.00000000000E+00 0.  1.
<mgrwt>
<rscale>  0 0.20653913E+04</rscale>
<asrwt>0</asrwt>
<pdfrwt beam="1">  1        2 0.15436775E+00 0.20653913E+04</pdfrwt>
<pdfrwt beam="2">  1       -2 0.16351643E+00 0.20653913E+04</pdfrwt>
<totfact> 0.54963194E+00</totfact>
</mgrwt>
</event>
<event>
12    1  0.4672461E-008  0.1191001E+04  0.7818608E-02  0.9120770E-01
          2   -1    0    0  501    0  0.00000000000E+00  0.00000000000E+00  0.38919751455E+03  0.38919751455E+03  0.00000000000E+00 0. -1.
         -2   -1    0    0    0  501 -0.00000000000E+00 -0.00000000000E+00 -0.91115982216E+03  0.91115982216E+03  0.00000000000E+00 0.  1.
         23    2    1    2    0    0 -0.22364305702E+02 -0.73500044103E+02  0.11776321635E+03  0.16712117853E+03  0.90326599262E+02 0.  0.
        254    2    1    2    0    0  0.22364305702E+02  0.73500044103E+02 -0.63972552395E+03  0.11332361582E+04  0.93224086242E+03 0.  0.
         23    2    4    4    0    0 -0.29487367716E+03 -0.58906905579E+02  0.84398717942E+02  0.32596322938E+03  0.93318670747E+02 0.  0.
         23    2    4    4    0    0  0.31723798286E+03  0.13240694968E+03 -0.72412424190E+03  0.80727292880E+03  0.95718993859E+02 0.  0.
         11    1    3    3    0    0  0.17205640209E+02 -0.56548007426E+02  0.10779041062E+03  0.12293284272E+03  0.00000000000E+00 0. -1.
        -11    1    3    3    0    0 -0.39569945910E+02 -0.16952036677E+02  0.99728057318E+01  0.44188335803E+02  0.00000000000E+00 0.  1.
          2    1    5    5  502    0 -0.16949631118E+03  0.13470824848E+02  0.48414803132E+02  0.17678929772E+03  0.00000000000E+00 0. -1.
          1    1    6    6  503    0  0.11494419633E+03  0.60292850127E+01 -0.28865521362E+03  0.31075770771E+03  0.00000000000E+00 0. -1.
         -2    1    5    5    0  502 -0.12537736598E+03 -0.72377730427E+02  0.35983914811E+02  0.14917393166E+03  0.00000000000E+00 0.  1.
         -1    1    6    6    0  503  0.20229378653E+03  0.12637766467E+03 -0.43546902827E+03  0.49651522110E+03  0.00000000000E+00 0.  1.
<mgrwt>
<rscale>  0 0.11910015E+04</rscale>
<asrwt>0</asrwt>
<pdfrwt beam="1">  1        2 0.59876541E-01 0.11910015E+04</pdfrwt>
<pdfrwt beam="2">  1       -2 0.14017843E+00 0.11910015E+04</pdfrwt>
<totfact> 0.28960702E+01</totfact>
</mgrwt>
</event>
<event>
12    1  0.4672461E-008  0.1782403E+04  0.7818608E-02  0.8715714E-01
         -2   -1    0    0    0  501 -0.00000000000E+00  0.00000000000E+00  0.73140940461E+03  0.73140940461E+03  0.00000000000E+00 0.  1.
          2   -1    0    0  501    0  0.00000000000E+00 -0.00000000000E+00 -0.10859031269E+04  0.10859031269E+04  0.00000000000E+00 0. -1.
         23    2    1    2    0    0  0.63335762832E+03  0.18467836563E+03 -0.16578143212E+03  0.68637107514E+03  0.91508390131E+02 0.  0.
        254    2    1    2    0    0 -0.63335762832E+03 -0.18467836563E+03 -0.18871229018E+03  0.11309414564E+04  0.89898179359E+03 0.  0.
         23    2    4    4    0    0  0.93908354272E+02  0.23073416488E+03  0.92401588375E+01  0.26540589176E+03  0.91092661639E+02 0.  0.
         23    2    4    4    0    0 -0.72726598259E+03 -0.41541253051E+03 -0.19795244902E+03  0.86553556461E+03  0.92104623081E+02 0.  0.
         13    1    3    3    0    0  0.42325880260E+03  0.16055721969E+03 -0.13685657618E+03  0.47292320435E+03  0.00000000000E+00 0. -1.
        -13    1    3    3    0    0  0.21009882572E+03  0.24121145945E+02 -0.28924855941E+02  0.21344787079E+03  0.00000000000E+00 0.  1.
          2    1    5    5  502    0  0.54139557001E+02  0.18641410046E+03 -0.26560765260E+02  0.19592545198E+03  0.00000000000E+00 0.  1.
          4    1    6    6  503    0 -0.39846234569E+03 -0.19991795114E+03 -0.14537834108E+03  0.46890754971E+03  0.00000000000E+00 0. -1.
         -2    1    5    5    0  502  0.39768797270E+02  0.44320064416E+02  0.35800924098E+02  0.69480439782E+02  0.00000000000E+00 0. -1.
         -4    1    6    6    0  503 -0.32880363690E+03 -0.21549457936E+03 -0.52574107938E+02  0.39662801490E+03  0.00000000000E+00 0.  1.
<mgrwt>
<rscale>  0 0.17824026E+04</rscale>
<asrwt>0</asrwt>
<pdfrwt beam="1">  1        2 0.16706202E+00 0.17824026E+04</pdfrwt>
<pdfrwt beam="2">  1       -2 0.11252452E+00 0.17824026E+04</pdfrwt>
<totfact> 0.13068686E+01</totfact>
</mgrwt>
</event>
<event>
12    1  0.4672461E-008  0.2742553E+04  0.7818608E-02  0.8321329E-01
         -1   -1    0    0    0  501 -0.00000000000E+00  0.00000000000E+00  0.62144699037E+03  0.62144699037E+03  0.00000000000E+00 0.  1.
          1   -1    0    0  501    0  0.00000000000E+00 -0.00000000000E+00 -0.30258397676E+04  0.30258397676E+04  0.00000000000E+00 0. -1.
         23    2    1    2    0    0 -0.78086092870E+03  0.75133245239E+03 -0.18333252005E+04  0.21315527666E+04  0.90507801423E+02 0.  0.
        254    2    1    2    0    0  0.78086092870E+03 -0.75133245239E+03 -0.57106757674E+03  0.15157339914E+04  0.89279735180E+03 0.  0.
         23    2    4    4    0    0 -0.74111215788E+01 -0.58255850634E+03 -0.18840582850E+03  0.61831225064E+03  0.85929884508E+02 0.  0.
         23    2    4    4    0    0  0.78827205028E+03 -0.16877394605E+03 -0.38266174825E+03  0.89742174072E+03  0.95280097740E+02 0.  0.
         11    1    3    3    0    0 -0.59205602600E+03  0.54015321013E+03 -0.14182674706E+04  0.16290421868E+04  0.00000000000E+00 0.  1.
        -11    1    3    3    0    0 -0.18880490270E+03  0.21117924225E+03 -0.41505772990E+03  0.50251057978E+03  0.00000000000E+00 0. -1.
          2    1    5    5  502    0 -0.12165824677E+02 -0.15387177062E+03 -0.89191946834E+02  0.17826870859E+03  0.00000000000E+00 0. -1.
          4    1    6    6  503    0  0.23984465960E+03 -0.73019406189E+02 -0.76810441178E+02  0.26221582388E+03  0.00000000000E+00 0. -1.
         -2    1    5    5    0  502  0.47547030987E+01 -0.42868673572E+03 -0.99213881661E+02  0.44004354205E+03  0.00000000000E+00 0.  1.
         -4    1    6    6    0  503  0.54842739068E+03 -0.95754539859E+02 -0.30585130707E+03  0.63520591684E+03  0.00000000000E+00 0.  1.
<mgrwt>
<rscale>  0 0.27425528E+04</rscale>
<asrwt>0</asrwt>
<pdfrwt beam="1">  1        1 0.46551382E+00 0.27425528E+04</pdfrwt>
<pdfrwt beam="2">  1       -1 0.95607228E-01 0.27425528E+04</pdfrwt>
<totfact> 0.52524646E-01</totfact>
</mgrwt>
</event>
<event>
12    1  0.4672461E-008  0.2264741E+04  0.7818608E-02  0.8491954E-01
         -2   -1    0    0    0  501 -0.00000000000E+00  0.00000000000E+00  0.30818642037E+03  0.30818642037E+03  0.00000000000E+00 0.  1.
          2   -1    0    0  501    0  0.00000000000E+00 -0.00000000000E+00 -0.41606743180E+04  0.41606743180E+04  0.00000000000E+00 0. -1.
         23    2    1    2    0    0 -0.78420125785E+03  0.99413979586E+02 -0.58606217026E+03  0.98828260803E+03  0.91536297598E+02 0.  0.
        254    2    1    2    0    0  0.78420125785E+03 -0.99413979586E+02 -0.32664257274E+04  0.34805781303E+04  0.90555636865E+03 0.  0.
         23    2    4    4    0    0 -0.97368697536E+02  0.19751028341E+03 -0.10202173374E+04  0.10476798847E+04  0.91097475070E+02 0.  0.
         23    2    4    4    0    0  0.88156995538E+03 -0.29692426300E+03 -0.22462083900E+04  0.24328982457E+04  0.90620848891E+02 0.  0.
         11    1    3    3    0    0 -0.14011926779E+03  0.53038196873E+02 -0.10203296155E+03  0.18126550906E+03  0.00000000000E+00 0. -1.
        -11    1    3    3    0    0 -0.64408199006E+03  0.46375782713E+02 -0.48402920872E+03  0.80701709897E+03  0.00000000000E+00 0.  1.
          1    1    5    5  502    0 -0.10458929871E+03  0.19004957134E+03 -0.85338158323E+03  0.88052137258E+03  0.00000000000E+00 0. -1.
          3    1    6    6  503    0  0.68368018382E+03 -0.25938038316E+03 -0.18236793634E+04  0.19648163267E+04  0.00000000000E+00 0. -1.
         -1    1    5    5    0  502  0.72206011772E+01  0.74607120709E+01 -0.16683575413E+03  0.16715851209E+03  0.00000000000E+00 0.  1.
         -3    1    6    6    0  503  0.19788977156E+03 -0.37543879841E+02 -0.42252902658E+03  0.46808191901E+03  0.00000000000E+00 0.  1.
<mgrwt>
<rscale>  0 0.22647413E+04</rscale>
<asrwt>0</asrwt>
<pdfrwt beam="1">  1        2 0.64010376E+00 0.22647413E+04</pdfrwt>
<pdfrwt beam="2">  1       -2 0.47413294E-01 0.22647413E+04</pdfrwt>
<totfact> 0.97092806E-01</totfact>
</mgrwt>
</event>
<event>
12    1  0.4672461E-008  0.1656007E+04  0.7818608E-02  0.8786861E-01
         -1   -1    0    0    0  501 -0.00000000000E+00  0.00000000000E+00  0.32252482446E+03  0.32252482446E+03  0.00000000000E+00 0.  1.
          1   -1    0    0  501    0  0.00000000000E+00 -0.00000000000E+00 -0.21256961322E+04  0.21256961322E+04  0.00000000000E+00 0. -1.
         23    2    1    2    0    0 -0.28570933264E+03 -0.26789548178E+03 -0.37805088570E+01  0.40204180637E+03  0.90694596885E+02 0.  0.
        254    2    1    2    0    0  0.28570933264E+03  0.26789548178E+03 -0.17993907988E+04  0.20461791502E+04  0.89198882059E+03 0.  0.
         23    2    4    4    0    0 -0.17924537988E+03 -0.78413196277E+02 -0.81565271148E+02  0.23091438303E+03  0.91602528756E+02 0.  0.
         23    2    4    4    0    0  0.46495471251E+03  0.34630867806E+03 -0.17178255277E+04  0.18152647672E+04  0.90272068405E+02 0.  0.
         13    1    3    3    0    0 -0.11848762209E+03 -0.16533649541E+03  0.20220179945E+02  0.20441215467E+03  0.00000000000E+00 0.  1.
        -13    1    3    3    0    0 -0.16722171055E+03 -0.10255898637E+03 -0.24000688802E+02  0.19762965169E+03  0.00000000000E+00 0. -1.
          4    1    5    5  502    0 -0.41071063743E+01  0.11625396172E+02  0.78727054341E+01  0.14628658509E+02  0.00000000000E+00 0.  1.
          1    1    6    6  503    0  0.44874663143E+03  0.33129744265E+03 -0.15775197081E+04  0.16732303978E+04  0.00000000000E+00 0. -1.
         -4    1    5    5    0  502 -0.17513827350E+03 -0.90038592449E+02 -0.89437976582E+02  0.21628572452E+03  0.00000000000E+00 0. -1.
         -1    1    6    6    0  503  0.16208081084E+02  0.15011235407E+02 -0.14030581961E+03  0.14203436942E+03  0.00000000000E+00 0.  1.
<mgrwt>
<rscale>  0 0.16560070E+04</rscale>
<asrwt>0</asrwt>
<pdfrwt beam="1">  1        1 0.32703018E+00 0.16560070E+04</pdfrwt>
<pdfrwt beam="2">  1       -1 0.49619202E-01 0.16560070E+04</pdfrwt>
<totfact> 0.95278253E+00</totfact>
</mgrwt>
</event>
<event>
12    1  0.4672461E-008  0.1851367E+04  0.7818608E-02  0.8679450E-01
         -2   -1    0    0    0  501 -0.00000000000E+00  0.00000000000E+00  0.39666256110E+03  0.39666256110E+03  0.00000000000E+00 0.  1.
          2   -1    0    0  501    0  0.00000000000E+00 -0.00000000000E+00 -0.21602501107E+04  0.21602501107E+04  0.00000000000E+00 0. -1.
         23    2    1    2    0    0 -0.68763903385E+03  0.35247556307E+02 -0.87952268860E+03  0.11206695742E+04  0.90831182575E+02 0.  0.
        254    2    1    2    0    0  0.68763903385E+03 -0.35247556307E+02 -0.88406486103E+03  0.14362430976E+04  0.89840621426E+03 0.  0.
         23    2    4    4    0    0  0.18685343462E+03 -0.37945998287E+03 -0.64485971858E+03  0.77658598039E+03  0.91310698485E+02 0.  0.
         23    2    4    4    0    0  0.50078559923E+03  0.34421242656E+03 -0.23920514245E+03  0.65965711722E+03  0.93059127111E+02 0.  0.
         13    1    3    3    0    0 -0.15058282616E+03  0.23152004244E+02 -0.14216142558E+03  0.20837723906E+03  0.00000000000E+00 0.  1.
        -13    1    3    3    0    0 -0.53705620769E+03  0.12095552063E+02 -0.73736126301E+03  0.91229233516E+03  0.00000000000E+00 0. -1.
          4    1    5    5  502    0  0.10423686601E+03 -0.30177054464E+03 -0.47108507383E+03  0.56907990004E+03  0.00000000000E+00 0. -1.
          3    1    6    6  503    0  0.26691491458E+03  0.12942222957E+03 -0.12990036929E+03  0.32383296786E+03  0.00000000000E+00 0. -1.
         -4    1    5    5    0  502  0.82616568614E+02 -0.77689438230E+02 -0.17377464475E+03  0.20750608034E+03  0.00000000000E+00 0.  1.
         -3    1    6    6    0  503  0.23387068465E+03  0.21479019699E+03 -0.10930477316E+03  0.33582414937E+03  0.00000000000E+00 0.  1.
<mgrwt>
<rscale>  0 0.18513674E+04</rscale>
<asrwt>0</asrwt>
<pdfrwt beam="1">  1        2 0.33234617E+00 0.18513674E+04</pdfrwt>
<pdfrwt beam="2">  1       -2 0.61025009E-01 0.18513674E+04</pdfrwt>
<totfact> 0.12772740E+01</totfact>
</mgrwt>
</event>
<event>
12    1  0.4672461E-008  0.1469172E+04  0.7818608E-02  0.8905216E-01
         -2   -1    0    0    0  501 -0.00000000000E+00  0.00000000000E+00  0.25464562395E+03  0.25464562395E+03  0.00000000000E+00 0.  1.
          2   -1    0    0  501    0  0.00000000000E+00 -0.00000000000E+00 -0.21190877958E+04  0.21190877958E+04  0.00000000000E+00 0. -1.
         23    2    1    2    0    0 -0.15563722097E+03 -0.18945306389E+03 -0.11836530272E+04  0.12123390139E+04  0.92822346055E+02 0.  0.
        254    2    1    2    0    0  0.15563722097E+03  0.18945306389E+03 -0.68078914467E+03  0.11613944058E+04  0.90843144950E+03 0.  0.
         23    2    4    4    0    0 -0.78620016264E+02 -0.32500775868E+03 -0.38287196211E+03  0.51599930766E+03  0.88618259851E+02 0.  0.
         23    2    4    4    0    0  0.23425723723E+03  0.51446082257E+03 -0.29791718256E+03  0.64539509818E+03  0.90740255328E+02 0.  0.
         13    1    3    3    0    0 -0.79284425720E+02 -0.11650558597E+03 -0.87119297059E+03  0.88251728806E+03  0.00000000000E+00 0. -1.
        -13    1    3    3    0    0 -0.76352795247E+02 -0.72947477924E+02 -0.31246005663E+03  0.32982172588E+03  0.00000000000E+00 0.  1.
          2    1    5    5  502    0 -0.44268145842E+02 -0.10660733253E+03 -0.77655633194E+02  0.13912292928E+03  0.00000000000E+00 0. -1.
          1    1    6    6  503    0  0.63485609211E+02  0.62252403935E+02 -0.39778049484E+02  0.97406763591E+02  0.00000000000E+00 0. -1.
         -2    1    5    5    0  502 -0.34351870422E+02 -0.21840042615E+03 -0.30521632892E+03  0.37687637838E+03  0.00000000000E+00 0.  1.
         -1    1    6    6    0  503  0.17077162802E+03  0.45220841863E+03 -0.25813913308E+03  0.54798833459E+03  0.00000000000E+00 0.  1.
<mgrwt>
<rscale>  0 0.14691718E+04</rscale>
<asrwt>0</asrwt>
<pdfrwt beam="1">  1        2 0.32601351E+00 0.14691718E+04</pdfrwt>
<pdfrwt beam="2">  1       -2 0.39176249E-01 0.14691718E+04</pdfrwt>
<totfact> 0.34230394E+01</totfact>
</mgrwt>
</event>
<event>
12    1  0.4672461E-008  0.2826318E+04  0.7818608E-02  0.8295144E-01
          2   -1    0    0  501    0  0.00000000000E+00  0.00000000000E+00  0.37923367726E+04  0.37923367726E+04  0.00000000000E+00 0. -1.
         -2   -1    0    0    0  501 -0.00000000000E+00 -0.00000000000E+00 -0.52659321779E+03  0.52659321779E+03  0.00000000000E+00 0.  1.
         23    2    1    2    0    0  0.47371474651E+03 -0.27502362873E+02  0.32616228960E+04  0.32972839630E+04  0.93464303227E+02 0.  0.
        254    2    1    2    0    0 -0.47371474651E+03  0.27502362873E+02  0.41206587854E+01  0.10216460274E+04  0.90475498582E+03 0.  0.
         23    2    4    4    0    0 -0.63688483727E+03 -0.64270653466E+02  0.25479127863E+03  0.69509221984E+03  0.92095524213E+02 0.  0.
         23    2    4    4    0    0  0.16317009075E+03  0.91773016338E+02 -0.25067061985E+03  0.32655380752E+03  0.93567432953E+02 0.  0.
         13    1    3    3    0    0  0.32496264069E+03 -0.22638662555E+00  0.24763751109E+04  0.24976057453E+04  0.00000000000E+00 0. -1.
        -13    1    3    3    0    0  0.14875210582E+03 -0.27275976247E+02  0.78524778517E+03  0.79967821778E+03  0.00000000000E+00 0.  1.
          4    1    5    5  502    0 -0.27840038353E+03 -0.11720128555E+02  0.65214811600E+02  0.28617670523E+03  0.00000000000E+00 0. -1.
          1    1    6    6  503    0 -0.59181381933E+00  0.76847219514E+01  0.66390365568E+01  0.10172610357E+02  0.00000000000E+00 0. -1.
         -4    1    5    5    0  502 -0.35848445373E+03 -0.52550524911E+02  0.18957646703E+03  0.40891551461E+03  0.00000000000E+00 0.  1.
         -1    1    6    6    0  503  0.16376190457E+03  0.84088294387E+02 -0.25730965640E+03  0.31638119717E+03  0.00000000000E+00 0.  1.
<mgrwt>
<rscale>  0 0.28263183E+04</rscale>
<asrwt>0</asrwt>
<pdfrwt beam="1">  1        2 0.58343641E+00 0.28263183E+04</pdfrwt>
<pdfrwt beam="2">  1       -2 0.81014344E-01 0.28263183E+04</pdfrwt>
<totfact> 0.58076492E-01</totfact>
</mgrwt>
</event>
<event>
12    1  0.4672461E-008  0.2920402E+04  0.7818608E-02  0.8266833E-01
          2   -1    0    0  501    0  0.00000000000E+00  0.00000000000E+00  0.12536585005E+04  0.12536585005E+04  0.00000000000E+00 0. -1.
         -2   -1    0    0    0  501 -0.00000000000E+00 -0.00000000000E+00 -0.17007717366E+04  0.17007717366E+04  0.00000000000E+00 0.  1.
         23    2    1    2    0    0  0.44688368794E+03 -0.41186288094E+03  0.97826474483E+03  0.11551870630E+04  0.90106471460E+02 0.  0.
        254    2    1    2    0    0 -0.44688368794E+03  0.41186288094E+03 -0.14253779810E+04  0.17992431741E+04  0.91446024938E+03 0.  0.
         23    2    4    4    0    0 -0.15049781427E+03  0.17218544837E+03  0.67760964558E+02  0.25556449581E+03  0.91783672150E+02 0.  0.
         23    2    4    4    0    0 -0.29638587367E+03  0.23967743257E+03 -0.14931389456E+04  0.15436786783E+04  0.90499134509E+02 0.  0.
         11    1    3    3    0    0  0.34703010926E+03 -0.26553819801E+03  0.71106304234E+03  0.83459635843E+03  0.00000000000E+00 0. -1.
        -11    1    3    3    0    0  0.99853578683E+02 -0.14632468293E+03  0.26720170249E+03  0.32059070452E+03  0.00000000000E+00 0.  1.
          1    1    5    5  502    0  0.94609807126E+01  0.12106389360E+02 -0.74726483354E+01  0.17085528745E+02  0.00000000000E+00 0. -1.
          3    1    6    6  503    0 -0.22277650385E+03  0.12874666625E+03 -0.10426709191E+04  0.10739495893E+04  0.00000000000E+00 0. -1.
         -1    1    5    5    0  502 -0.15995879498E+03  0.16007905901E+03  0.75233612893E+02  0.23847896707E+03  0.00000000000E+00 0.  1.
         -3    1    6    6    0  503 -0.73609369815E+02  0.11093076632E+03 -0.45046802647E+03  0.46972908907E+03  0.00000000000E+00 0.  1.
<mgrwt>
<rscale>  0 0.29204020E+04</rscale>
<asrwt>0</asrwt>
<pdfrwt beam="1">  1        2 0.19287054E+00 0.29204020E+04</pdfrwt>
<pdfrwt beam="2">  1       -2 0.26165719E+00 0.29204020E+04</pdfrwt>
<totfact> 0.82653469E-01</totfact>
</mgrwt>
</event>
<event>
12    1  0.4672461E-008  0.3120069E+04  0.7818608E-02  0.8210252E-01
          1   -1    0    0  501    0  0.00000000000E+00  0.00000000000E+00  0.19175623852E+04  0.19175623852E+04  0.00000000000E+00 0. -1.
         -1   -1    0    0    0  501 -0.00000000000E+00 -0.00000000000E+00 -0.12691676837E+04  0.12691676837E+04  0.00000000000E+00 0.  1.
         23    2    1    2    0    0  0.10569795736E+04  0.95660216778E+03  0.27193589815E+03  0.14540144537E+04  0.88968378188E+02 0.  0.
        254    2    1    2    0    0 -0.10569795736E+04 -0.95660216778E+03  0.37645880340E+03  0.17327156153E+04  0.91010364585E+03 0.  0.
         23    2    4    4    0    0 -0.91214132014E+03 -0.10854066781E+04  0.15952066987E+03  0.14295799082E+04  0.90235387559E+02 0.  0.
         23    2    4    4    0    0 -0.14483825351E+03  0.12880451029E+03  0.21693813353E+03  0.30313570703E+03  0.85207872579E+02 0.  0.
         13    1    3    3    0    0  0.15228642309E+03  0.10117918638E+03  0.47040359296E+02  0.18878871210E+03  0.00000000000E+00 0. -1.
        -13    1    3    3    0    0  0.90469315055E+03  0.85542298140E+03  0.22489553885E+03  0.12652257416E+04  0.00000000000E+00 0.  1.
          2    1    5    5  502    0 -0.79389149709E+03 -0.98010868166E+03  0.15866719589E+03  0.12712403455E+04  0.00000000000E+00 0. -1.
          1    1    6    6  503    0 -0.15626438199E+03  0.11766843733E+03  0.19731389516E+03  0.27784382563E+03  0.00000000000E+00 0. -1.
         -2    1    5    5    0  502 -0.11824982305E+03 -0.10529799641E+03  0.85347397445E+00  0.15833956270E+03  0.00000000000E+00 0.  1.
         -1    1    6    6    0  503  0.11426128479E+02  0.11136072965E+02  0.19624238371E+02  0.25291881400E+02  0.00000000000E+00 0.  1.
<mgrwt>
<rscale>  0 0.31200694E+04</rscale>
<asrwt>0</asrwt>
<pdfrwt beam="1">  1        1 0.29500960E+00 0.31200694E+04</pdfrwt>
<pdfrwt beam="2">  1       -1 0.19525657E+00 0.31200694E+04</pdfrwt>
<totfact> 0.46360058E-01</totfact>
</mgrwt>
</event>
<event>
12    1  0.4672461E-008  0.2039448E+04  0.7818608E-02  0.8588396E-01
          2   -1    0    0  501    0  0.00000000000E+00  0.00000000000E+00  0.16365110281E+04  0.16365110281E+04  0.00000000000E+00 0. -1.
         -2   -1    0    0    0  501 -0.00000000000E+00 -0.00000000000E+00 -0.63539881463E+03  0.63539881463E+03  0.00000000000E+00 0.  1.
         23    2    1    2    0    0 -0.72014055255E+03  0.31749230819E+03  0.64627143929E+03  0.10226068687E+04  0.93028240098E+02 0.  0.
        254    2    1    2    0    0  0.72014055255E+03 -0.31749230819E+03  0.35484077413E+03  0.12493029740E+04  0.90301836341E+03 0.  0.
         23    2    4    4    0    0  0.30258525921E+03  0.18552073270E+03 -0.17028538477E+03  0.40519323012E+03  0.95961763820E+02 0.  0.
         23    2    4    4    0    0  0.41755529334E+03 -0.50301304089E+03  0.52512615889E+03  0.84410974387E+03  0.96898063105E+02 0.  0.
         13    1    3    3    0    0 -0.71625170950E+03  0.32194048225E+03  0.63505426051E+03  0.10099287595E+04  0.00000000000E+00 0. -1.
        -13    1    3    3    0    0 -0.38888430590E+01 -0.44481740669E+01  0.11217178780E+02  0.12678109191E+02  0.00000000000E+00 0.  1.
          4    1    5    5  502    0  0.26382015827E+03  0.13462137620E+03 -0.16940527966E+03  0.34120688682E+03  0.00000000000E+00 0. -1.
          3    1    6    6  503    0  0.15167473043E+03 -0.17297107423E+03  0.24502334743E+03  0.33609620223E+03  0.00000000000E+00 0. -1.
         -4    1    5    5    0  502  0.38765100949E+02  0.50899356507E+02 -0.88010510768E+00  0.63986343304E+02  0.00000000000E+00 0.  1.
         -3    1    6    6    0  503  0.26588056291E+03 -0.33004196666E+03  0.28010281147E+03  0.50801354164E+03  0.00000000000E+00 0.  1.
<mgrwt>
<rscale>  0 0.20394481E+04</rscale>
<asrwt>0</asrwt>
<pdfrwt beam="1">  1        2 0.25177093E+00 0.20394481E+04</pdfrwt>
<pdfrwt beam="2">  1       -2 0.97753664E-01 0.20394481E+04</pdfrwt>
<totfact> 0.85882457E+00</totfact>
</mgrwt>
</event>
<event>
12    1  0.4672461E-008  0.1636702E+04  0.7818608E-02  0.8798312E-01
          1   -1    0    0  501    0  0.00000000000E+00  0.00000000000E+00  0.11416969619E+04  0.11416969619E+04  0.00000000000E+00 0. -1.
         -1   -1    0    0    0  501 -0.00000000000E+00 -0.00000000000E+00 -0.58658165303E+03  0.58658165303E+03  0.00000000000E+00 0.  1.
         23    2    1    2    0    0  0.25448701363E+03  0.49283707996E+03  0.12090374228E+03  0.57455479682E+03  0.88563379331E+02 0.  0.
        254    2    1    2    0    0 -0.25448701363E+03 -0.49283707996E+03  0.43421156663E+03  0.11537238181E+04  0.91372147642E+03 0.  0.
         23    2    4    4    0    0  0.15431786793E+03  0.94182070959E+02 -0.12861934100E+03  0.23889204021E+03  0.88556225897E+02 0.  0.
         23    2    4    4    0    0 -0.40880488156E+03 -0.58701915092E+03  0.56283090763E+03  0.91483177794E+03  0.91791266545E+02 0.  0.
         11    1    3    3    0    0  0.24135259347E+03  0.44492580863E+03  0.84998768896E+02  0.51325903818E+03  0.00000000000E+00 0.  1.
        -11    1    3    3    0    0  0.13134420165E+02  0.47911271336E+02  0.35904973384E+02  0.61295758644E+02  0.00000000000E+00 0. -1.
          4    1    5    5  502    0  0.12408581638E+03  0.10332513260E+03 -0.12996613945E+03  0.20727896723E+03  0.00000000000E+00 0. -1.
          4    1    6    6  503    0 -0.60164193779E+02 -0.56818666334E+02  0.97836384371E+02  0.12814073967E+03  0.00000000000E+00 0.  1.
         -4    1    5    5    0  502  0.30232051551E+02 -0.91430616388E+01  0.13467984544E+01  0.31613072979E+02  0.00000000000E+00 0.  1.
         -4    1    6    6    0  503 -0.34864068778E+03 -0.53020048459E+03  0.46499452326E+03  0.78669103827E+03  0.00000000000E+00 0. -1.
<mgrwt>
<rscale>  0 0.16367022E+04</rscale>
<asrwt>0</asrwt>
<pdfrwt beam="1">  1        1 0.17564569E+00 0.16367022E+04</pdfrwt>
<pdfrwt beam="2">  1       -1 0.90243331E-01 0.16367022E+04</pdfrwt>
<totfact> 0.13555069E+01</totfact>
</mgrwt>
</event>
<event>
12    1  0.4672461E-008  0.3127372E+04  0.7818608E-02  0.8208266E-01
         -2   -1    0    0    0  501 -0.00000000000E+00  0.00000000000E+00  0.77614126274E+03  0.77614126274E+03  0.00000000000E+00 0.  1.
          2   -1    0    0  501    0  0.00000000000E+00 -0.00000000000E+00 -0.31503458980E+04  0.31503458980E+04  0.00000000000E+00 0. -1.
         23    2    1    2    0    0 -0.42658022349E+03 -0.66876233089E+03 -0.25930733380E+04  0.27134474245E+04  0.97743780738E+02 0.  0.
        254    2    1    2    0    0  0.42658022349E+03  0.66876233089E+03  0.21886870279E+03  0.12130397362E+04  0.89126211092E+03 0.  0.
         23    2    4    4    0    0  0.40032878046E+03  0.50733952264E+03  0.53624561154E+03  0.84472088425E+03  0.91309871866E+02 0.  0.
         23    2    4    4    0    0  0.26251443033E+02  0.16142280826E+03 -0.31737690875E+03  0.36831885199E+03  0.90466641583E+02 0.  0.
         13    1    3    3    0    0 -0.38343851949E+03 -0.64319439852E+03 -0.24465307897E+04  0.25585615172E+04  0.00000000000E+00 0. -1.
        -13    1    3    3    0    0 -0.43141704003E+02 -0.25567932377E+02 -0.14654254832E+03  0.15488590723E+03  0.00000000000E+00 0.  1.
          1    1    5    5  502    0  0.38860254589E+03  0.46299737706E+03  0.47824770585E+03  0.77077842341E+03  0.00000000000E+00 0. -1.
          3    1    6    6  503    0  0.15114371616E+02  0.13307877048E+03 -0.30893276090E+03  0.33671628137E+03  0.00000000000E+00 0. -1.
         -1    1    5    5    0  502  0.11726234570E+02  0.44342145574E+02  0.57997905687E+02  0.73942460842E+02  0.00000000000E+00 0.  1.
         -3    1    6    6    0  503  0.11137071417E+02  0.28344037779E+02 -0.84441478533E+01  0.31602570628E+02  0.00000000000E+00 0.  1.
<mgrwt>
<rscale>  0 0.31273717E+04</rscale>
<asrwt>0</asrwt>
<pdfrwt beam="1">  1        2 0.48466860E+00 0.31273717E+04</pdfrwt>
<pdfrwt beam="2">  1       -2 0.11940635E+00 0.31273717E+04</pdfrwt>
<totfact> 0.63555914E-01</totfact>
</mgrwt>
</event>
<event>
12    1  0.4672461E-008  0.2162917E+04  0.7818608E-02  0.8534023E-01
          2   -1    0    0  501    0  0.00000000000E+00  0.00000000000E+00  0.17491533878E+04  0.17491533878E+04  0.00000000000E+00 0.  1.
         -2   -1    0    0    0  501 -0.00000000000E+00 -0.00000000000E+00 -0.66863917663E+03  0.66863917663E+03  0.00000000000E+00 0. -1.
         23    2    1    2    0    0  0.70420450402E+03  0.27138684090E+03  0.97600791360E+03  0.12383089988E+04  0.10612694440E+03 0.  0.
        254    2    1    2    0    0 -0.70420450402E+03 -0.27138684090E+03  0.10450629762E+03  0.11794835656E+04  0.90039164503E+03 0.  0.
         23    2    4    4    0    0 -0.12234947611E+03 -0.32315147735E+03  0.38587639157E+03  0.52581926253E+03  0.90493290691E+02 0.  0.
         23    2    4    4    0    0 -0.58185502791E+03  0.51764636453E+02 -0.28137009395E+03  0.65366430309E+03  0.82903801319E+02 0.  0.
         13    1    3    3    0    0  0.44156729798E+02  0.36395442676E+02  0.11335159016E+03  0.12697648611E+03  0.00000000000E+00 0. -1.
        -13    1    3    3    0    0  0.66004777422E+03  0.23499139822E+03  0.86265632344E+03  0.11113325127E+04  0.00000000000E+00 0.  1.
          2    1    5    5  502    0 -0.66018033079E+02 -0.15910222432E+03  0.12618287748E+03  0.21352755570E+03  0.00000000000E+00 0. -1.
          1    1    6    6  503    0 -0.15681442740E+03  0.43630861467E+02 -0.10313180060E+03  0.19269298121E+03  0.00000000000E+00 0. -1.
         -2    1    5    5    0  502 -0.56331443029E+02 -0.16404925303E+03  0.25969351409E+03  0.31229170683E+03  0.00000000000E+00 0.  1.
         -1    1    6    6    0  503 -0.42504060051E+03  0.81337749861E+01 -0.17823829335E+03  0.46097132188E+03  0.00000000000E+00 0.  1.
<mgrwt>
<rscale>  0 0.21629170E+04</rscale>
<asrwt>0</asrwt>
<pdfrwt beam="1">  1        2 0.26910052E+00 0.21629170E+04</pdfrwt>
<pdfrwt beam="2">  1       -2 0.10286757E+00 0.21629170E+04</pdfrwt>
<totfact> 0.65192379E+00</totfact>
</mgrwt>
</event>
<event>
12    1  0.4672461E-008  0.1118824E+04  0.7818608E-02  0.9187036E-01
          1   -1    0    0  501    0  0.00000000000E+00  0.00000000000E+00  0.68842655232E+03  0.68842655232E+03  0.00000000000E+00 0. -1.
         -1   -1    0    0    0  501 -0.00000000000E+00 -0.00000000000E+00 -0.45457541919E+03  0.45457541919E+03  0.00000000000E+00 0.  1.
         23    2    1    2    0    0 -0.41871233578E+02  0.16045667562E+03  0.10058651790E+03  0.21554400200E+03  0.94032038506E+02 0.  0.
        254    2    1    2    0    0  0.41871233578E+02 -0.16045667562E+03  0.13326461523E+03  0.92745796951E+03  0.90272879792E+03 0.  0.
         23    2    4    4    0    0 -0.14466231323E+03  0.87032632123E+02  0.44116884405E+03  0.48128210089E+03  0.92198957425E+02 0.  0.
         23    2    4    4    0    0  0.18653354681E+03 -0.24748930774E+03 -0.30790422882E+03  0.44617586862E+03  0.90676182566E+02 0.  0.
         11    1    3    3    0    0  0.90004145041E+01  0.91776450124E+02  0.12934463344E+02  0.93119410439E+02  0.00000000000E+00 0. -1.
        -11    1    3    3    0    0 -0.50871648082E+02  0.68680225493E+02  0.87652054552E+02  0.12242459156E+03  0.00000000000E+00 0.  1.
          2    1    6    6  502    0  0.70787129198E+02 -0.13901433951E+03 -0.10255250472E+03  0.18668910111E+03  0.00000000000E+00 0. -1.
          2    1    5    5  503    0 -0.33569235591E+02  0.54231063065E+02  0.81923427591E+02  0.10382364744E+03  0.00000000000E+00 0. -1.
         -2    1    5    5    0  503 -0.11109307764E+03  0.32801569057E+02  0.35924541646E+03  0.37745845345E+03  0.00000000000E+00 0.  1.
         -2    1    6    6    0  502  0.11574641761E+03 -0.10847496823E+03 -0.20535172410E+03  0.25948676751E+03  0.00000000000E+00 0.  1.
<mgrwt>
<rscale>  0 0.11188240E+04</rscale>
<asrwt>0</asrwt>
<pdfrwt beam="1">  1        1 0.10591178E+00 0.11188240E+04</pdfrwt>
<pdfrwt beam="2">  1       -1 0.69934680E-01 0.11188240E+04</pdfrwt>
<totfact> 0.57510857E+01</totfact>
</mgrwt>
</event>
<event>
12    1  0.4672461E-008  0.4026791E+04  0.7818608E-02  0.7999164E-01
          2   -1    0    0  501    0  0.00000000000E+00  0.00000000000E+00  0.33675695178E+04  0.33675695178E+04  0.00000000000E+00 0. -1.
         -2   -1    0    0    0  501 -0.00000000000E+00 -0.00000000000E+00 -0.12037645689E+04  0.12037645689E+04  0.00000000000E+00 0.  1.
         23    2    1    2    0    0 -0.57625763126E+03  0.49463489352E+03 -0.95996338699E+03  0.12272632072E+04  0.88931096528E+02 0.  0.
        254    2    1    2    0    0  0.57625763126E+03 -0.49463489352E+03  0.31237683359E+04  0.33440708794E+04  0.92094782419E+03 0.  0.
         23    2    4    4    0    0  0.13168905228E+03  0.23298205652E+03  0.12776128270E+04  0.13084835219E+04  0.90619789332E+02 0.  0.
         23    2    4    4    0    0  0.44456857898E+03 -0.72761695004E+03  0.18461555089E+04  0.20355873575E+04  0.90873977199E+02 0.  0.
         13    1    3    3    0    0 -0.28816831747E+03  0.19941543896E+03 -0.48175098430E+03  0.59572771243E+03  0.00000000000E+00 0. -1.
        -13    1    3    3    0    0 -0.28808931379E+03  0.29521945456E+03 -0.47821240269E+03  0.63153549478E+03  0.00000000000E+00 0.  1.
          2    1    6    6  502    0  0.39669406548E+03 -0.66918330051E+03  0.17322283660E+04  0.18988911457E+04  0.00000000000E+00 0. -1.
          2    1    5    5  503    0  0.99513727085E+02  0.21723914332E+03  0.97939861751E+03  0.10081257259E+04  0.00000000000E+00 0. -1.
         -2    1    5    5    0  503  0.32175325198E+02  0.15742913195E+02  0.29821420950E+03  0.30035779600E+03  0.00000000000E+00 0.  1.
         -2    1    6    6    0  502  0.47874513503E+02 -0.58433649528E+02  0.11392714291E+03  0.13669621184E+03  0.00000000000E+00 0.  1.
<mgrwt>
<rscale>  0 0.40267907E+04</rscale>
<asrwt>0</asrwt>
<pdfrwt beam="1">  1        2 0.51808762E+00 0.40267907E+04</pdfrwt>
<pdfrwt beam="2">  1       -2 0.18519455E+00 0.40267907E+04</pdfrwt>
<totfact> 0.13171387E-01</totfact>
</mgrwt>
</event>
<event>
12    1  0.4672461E-008  0.1818914E+04  0.7818608E-02  0.8696305E-01
          1   -1    0    0  501    0  0.00000000000E+00  0.00000000000E+00  0.63852466281E+03  0.63852466281E+03  0.00000000000E+00 0. -1.
         -1   -1    0    0    0  501 -0.00000000000E+00 -0.00000000000E+00 -0.12953491359E+04  0.12953491359E+04  0.00000000000E+00 0.  1.
         23    2    1    2    0    0 -0.40828802440E+03 -0.11628161751E+03 -0.82399556724E+03  0.93131136425E+03  0.90286415956E+02 0.  0.
        254    2    1    2    0    0  0.40828802440E+03  0.11628161751E+03  0.16717109420E+03  0.10025624344E+04  0.89272881365E+03 0.  0.
         23    2    4    4    0    0  0.47836419223E+02  0.82600250132E+02  0.49083476525E+03  0.50839331817E+03  0.91836130469E+02 0.  0.
         23    2    4    4    0    0  0.36045160517E+03  0.33681367378E+02 -0.32366367105E+03  0.49416911624E+03  0.91570460899E+02 0.  0.
         13    1    3    3    0    0 -0.37820409149E+03 -0.11629896708E+03 -0.80115350523E+03  0.89353831676E+03  0.00000000000E+00 0.  1.
        -13    1    3    3    0    0 -0.30083932902E+02  0.17349571052E-01 -0.22842062010E+02  0.37773047491E+02  0.00000000000E+00 0. -1.
          1    1    6    6  502    0  0.16514476573E+03  0.17328792106E+02 -0.20959559567E+03  0.26740118626E+03  0.00000000000E+00 0. -1.
          1    1    5    5  503    0  0.63020746655E+02  0.57360829524E+02  0.45026765294E+03  0.45826066660E+03  0.00000000000E+00 0. -1.
         -1    1    5    5    0  503 -0.15184327432E+02  0.25239420608E+02  0.40567112311E+02  0.50132651570E+02  0.00000000000E+00 0.  1.
         -1    1    6    6    0  502  0.19530683944E+03  0.16352575272E+02 -0.11406807538E+03  0.22676792999E+03  0.00000000000E+00 0.  1.
<mgrwt>
<rscale>  0 0.18189144E+04</rscale>
<asrwt>0</asrwt>
<pdfrwt beam="1">  1        1 0.98234565E-01 0.18189144E+04</pdfrwt>
<pdfrwt beam="2">  1       -1 0.19928448E+00 0.18189144E+04</pdfrwt>
<totfact> 0.44837427E+00</totfact>
</mgrwt>
</event>
<event>
12    1  0.4672461E-008  0.3436333E+04  0.7818608E-02  0.8129046E-01
          2   -1    0    0  501    0  0.00000000000E+00  0.00000000000E+00  0.18158665410E+04  0.18158665410E+04  0.00000000000E+00 0. -1.
         -2   -1    0    0    0  501 -0.00000000000E+00 -0.00000000000E+00 -0.16257229074E+04  0.16257229074E+04  0.00000000000E+00 0.  1.
         23    2    1    2    0    0 -0.10850263319E+04  0.10583675132E+03 -0.10645446352E+04  0.15266069844E+04  0.93755242963E+02 0.  0.
        254    2    1    2    0    0  0.10850263319E+04 -0.10583675132E+03  0.12546882687E+04  0.19149824641E+04  0.95101610252E+03 0.  0.
         23    2    4    4    0    0  0.12426705384E+04 -0.89312778966E+02  0.99649396278E+03  0.15980730693E+04  0.92900362836E+02 0.  0.
         23    2    4    4    0    0 -0.15764420649E+03 -0.16523972357E+02  0.25819430592E+03  0.31690939481E+03  0.92965194583E+02 0.  0.
         11    1    3    3    0    0 -0.55932209408E+02  0.25705482422E+02 -0.50358632275E+02  0.79530973340E+02  0.00000000000E+00 0. -1.
        -11    1    3    3    0    0 -0.10290941225E+04  0.80131268901E+02 -0.10141860029E+04  0.14470760110E+04  0.00000000000E+00 0.  1.
          2    1    5    5  502    0  0.42193680156E+03 -0.54676960459E+02  0.29361491890E+03  0.51694289348E+03  0.00000000000E+00 0. -1.
          3    1    6    6  503    0 -0.35531986786E+02  0.33738910550E+02  0.95786793626E+02  0.10759157032E+03  0.00000000000E+00 0. -1.
         -2    1    5    5    0  502  0.82073373682E+03 -0.34635818507E+02  0.70287904388E+03  0.10811301758E+04  0.00000000000E+00 0.  1.
         -3    1    6    6    0  503 -0.12211221970E+03 -0.50262882907E+02  0.16240751230E+03  0.20931782449E+03  0.00000000000E+00 0.  1.
<mgrwt>
<rscale>  0 0.34363328E+04</rscale>
<asrwt>0</asrwt>
<pdfrwt beam="1">  1        2 0.27936408E+00 0.34363328E+04</pdfrwt>
<pdfrwt beam="2">  1       -2 0.25011122E+00 0.34363328E+04</pdfrwt>
<totfact> 0.44813177E-01</totfact>
</mgrwt>
</event>
<event>
12    1  0.4672461E-008  0.2973867E+04  0.7818608E-02  0.8251233E-01
          1   -1    0    0  501    0  0.00000000000E+00  0.00000000000E+00  0.21078441562E+04  0.21078441562E+04  0.00000000000E+00 0. -1.
         -1   -1    0    0    0  501 -0.00000000000E+00 -0.00000000000E+00 -0.10489252343E+04  0.10489252343E+04  0.00000000000E+00 0.  1.
         23    2    1    2    0    0  0.56107484870E+03  0.77149349454E+03  0.15125030650E+04  0.17904386970E+04  0.89431583087E+02 0.  0.
        254    2    1    2    0    0 -0.56107484870E+03 -0.77149349454E+03 -0.45358414305E+03  0.13663306936E+04  0.86666821299E+03 0.  0.
         23    2    4    4    0    0 -0.57392499828E+03 -0.81645002465E+02 -0.27227752353E+03  0.64753097266E+03  0.95422747080E+02 0.  0.
         23    2    4    4    0    0  0.12850149583E+02 -0.68984849208E+03 -0.18130661952E+03  0.71879972091E+03  0.88005000607E+02 0.  0.
         13    1    3    3    0    0  0.34637723596E+03  0.47277058794E+03  0.10090050656E+04  0.11668677906E+04  0.00000000000E+00 0. -1.
        -13    1    3    3    0    0  0.21469761273E+03  0.29872290661E+03  0.50349799940E+03  0.62357090635E+03  0.00000000000E+00 0.  1.
          2    1    5    5  502    0 -0.77433457550E+02 -0.55844044018E+01 -0.31694747240E+01  0.77699237388E+02  0.00000000000E+00 0. -1.
          3    1    6    6  503    0 -0.27137061517E+02 -0.23336618576E+03 -0.89837515626E+02  0.25152927460E+03  0.00000000000E+00 0. -1.
         -2    1    5    5    0  502 -0.49649154073E+03 -0.76060598063E+02 -0.26910804881E+03  0.56983173528E+03  0.00000000000E+00 0.  1.
         -3    1    6    6    0  503  0.39987211101E+02 -0.45648230632E+03 -0.91469103891E+02  0.46727044631E+03  0.00000000000E+00 0.  1.
<mgrwt>
<rscale>  0 0.29738668E+04</rscale>
<asrwt>0</asrwt>
<pdfrwt beam="1">  1        1 0.32428371E+00 0.29738668E+04</pdfrwt>
<pdfrwt beam="2">  1       -1 0.16137311E+00 0.29738668E+04</pdfrwt>
<totfact> 0.61259980E-01</totfact>
</mgrwt>
</event>
<event>
12    1  0.4672461E-008  0.1693352E+04  0.7818608E-02  0.8765165E-01
          1   -1    0    0  501    0  0.00000000000E+00  0.00000000000E+00  0.29182348003E+04  0.29182348003E+04  0.00000000000E+00 0. -1.
         -1   -1    0    0    0  501 -0.00000000000E+00 -0.00000000000E+00 -0.24564857593E+03  0.24564857593E+03  0.00000000000E+00 0.  1.
         23    2    1    2    0    0  0.54438571789E+03  0.24276904058E+03  0.11207651708E+04  0.12724926851E+04  0.88489821525E+02 0.  0.
        254    2    1    2    0    0 -0.54438571789E+03 -0.24276904058E+03  0.15518210535E+04  0.18913906911E+04  0.90217379004E+03 0.  0.
         23    2    4    4    0    0 -0.22553624104E+03  0.21125343313E+03  0.11662124972E+04  0.12099969357E+04  0.92446669212E+02 0.  0.
         23    2    4    4    0    0 -0.31884947685E+03 -0.45402247371E+03  0.38560855623E+03  0.68139375539E+03  0.88329472587E+02 0.  0.
         11    1    3    3    0    0  0.60022577591E+02  0.25140676377E+02  0.19093709124E+03  0.20172192801E+03  0.00000000000E+00 0.  1.
        -11    1    3    3    0    0  0.48436314030E+03  0.21762836421E+03  0.92982807960E+03  0.10707707571E+04  0.00000000000E+00 0. -1.
          2    1    5    5  502    0 -0.48810210112E+02  0.98091108320E+02  0.48358285236E+03  0.49583936637E+03  0.00000000000E+00 0. -1.
          1    1    6    6  503    0 -0.31723986248E+03 -0.41358007948E+03  0.36062249468E+03  0.63382820713E+03  0.00000000000E+00 0. -1.
         -2    1    5    5    0  502 -0.17672603093E+03  0.11316232481E+03  0.68262964489E+03  0.71415756934E+03  0.00000000000E+00 0.  1.
         -1    1    6    6    0  503 -0.16096143745E+01 -0.40442394230E+02  0.24986061550E+02  0.47565548260E+02  0.00000000000E+00 0.  1.
<mgrwt>
<rscale>  0 0.16933520E+04</rscale>
<asrwt>0</asrwt>
<pdfrwt beam="1">  1        1 0.44895917E+00 0.16933520E+04</pdfrwt>
<pdfrwt beam="2">  1       -1 0.37792091E-01 0.16933520E+04</pdfrwt>
<totfact> 0.44243645E+00</totfact>
</mgrwt>
</event>
<event>
12    1  0.4672461E-008  0.1503760E+04  0.7818608E-02  0.8881956E-01
          2   -1    0    0  501    0  0.00000000000E+00  0.00000000000E+00  0.20359114393E+04  0.20359114393E+04  0.00000000000E+00 0. -1.
         -2   -1    0    0    0  501 -0.00000000000E+00 -0.00000000000E+00 -0.27767586168E+03  0.27767586168E+03  0.00000000000E+00 0.  1.
         23    2    1    2    0    0 -0.35379832535E+03 -0.32580776372E+03  0.44455678306E+03  0.66141982483E+03  0.92311956935E+02 0.  0.
        254    2    1    2    0    0  0.35379832535E+03  0.32580776372E+03  0.13136787946E+04  0.16521674762E+04  0.87896612000E+03 0.  0.
         23    2    4    4    0    0  0.15025061734E+03 -0.27503369870E+03  0.66457094626E+03  0.74057635317E+03  0.92628337081E+02 0.  0.
         23    2    4    4    0    0  0.20354770801E+03  0.60084146242E+03  0.64910784834E+03  0.91159112302E+03  0.84942594743E+02 0.  0.
         13    1    3    3    0    0 -0.32889504730E+03 -0.31890121397E+03  0.39234440888E+03  0.60316172922E+03  0.00000000000E+00 0.  1.
        -13    1    3    3    0    0 -0.24903278049E+02 -0.69065497467E+01  0.52212374179E+02  0.58258095613E+02  0.00000000000E+00 0. -1.
          2    1    5    5  502    0 -0.73770258784E+01  0.12990862989E+01  0.27343054971E+02  0.28350498958E+02  0.00000000000E+00 0. -1.
          1    1    6    6  503    0  0.18115511906E+03  0.56625037479E+03  0.62979873909E+03  0.86608493571E+03  0.00000000000E+00 0.  1.
         -2    1    5    5    0  502  0.15762764321E+03 -0.27633278500E+03  0.63722789129E+03  0.71222585421E+03  0.00000000000E+00 0.  1.
         -1    1    6    6    0  503  0.22392588952E+02  0.34591087633E+02  0.19309109245E+02  0.45506187310E+02  0.00000000000E+00 0. -1.
<mgrwt>
<rscale>  0 0.15037599E+04</rscale>
<asrwt>0</asrwt>
<pdfrwt beam="1">  1        2 0.31321713E+00 0.15037599E+04</pdfrwt>
<pdfrwt beam="2">  1       -2 0.42719365E-01 0.15037599E+04</pdfrwt>
<totfact> 0.32030671E+01</totfact>
</mgrwt>
</event>
<event>
12    1  0.4672461E-008  0.1632922E+04  0.7818608E-02  0.8800574E-01
          2   -1    0    0  501    0  0.00000000000E+00  0.00000000000E+00  0.12255706456E+04  0.12255706456E+04  0.00000000000E+00 0. -1.
         -2   -1    0    0    0  501 -0.00000000000E+00 -0.00000000000E+00 -0.54391702975E+03  0.54391702975E+03  0.00000000000E+00 0.  1.
         23    2    1    2    0    0  0.13994492405E+03 -0.13973627117E+03 -0.33258343383E+03  0.39868891697E+03  0.96074475339E+02 0.  0.
        254    2    1    2    0    0 -0.13994492405E+03  0.13973627117E+03  0.10142370497E+04  0.13707987584E+04  0.90072284072E+03 0.  0.
         23    2    4    4    0    0 -0.36245288158E+03 -0.15697221816E+03  0.87539637718E+03  0.96428556603E+03  0.86691793375E+02 0.  0.
         23    2    4    4    0    0  0.22250795752E+03  0.29670848933E+03  0.13884067249E+03  0.40651319234E+03  0.91817887210E+02 0.  0.
         11    1    3    3    0    0  0.14142351872E+03 -0.86503965122E+02 -0.26596035180E+03  0.31339823924E+03  0.00000000000E+00 0.  1.
        -11    1    3    3    0    0 -0.14785946692E+01 -0.53232306044E+02 -0.66623082033E+02  0.85290677735E+02  0.00000000000E+00 0. -1.
          1    1    5    5  502    0 -0.31656049305E+03 -0.11013484000E+03  0.67876712066E+03  0.75701058965E+03  0.00000000000E+00 0. -1.
          1    1    6    6  503    0  0.20695502617E+03  0.26335839048E+03  0.15147807484E+03  0.36760526635E+03  0.00000000000E+00 0. -1.
         -1    1    5    5    0  502 -0.45892388529E+02 -0.46837378158E+02  0.19662925651E+03  0.20727497638E+03  0.00000000000E+00 0.  1.
         -1    1    6    6    0  503  0.15552931350E+02  0.33350098847E+02 -0.12637402348E+02  0.38907925989E+02  0.00000000000E+00 0.  1.
<mgrwt>
<rscale>  0 0.16329222E+04</rscale>
<asrwt>0</asrwt>
<pdfrwt beam="1">  1        2 0.18854933E+00 0.16329222E+04</pdfrwt>
<pdfrwt beam="2">  1       -2 0.83679544E-01 0.16329222E+04</pdfrwt>
<totfact> 0.21843505E+01</totfact>
</mgrwt>
</event>
<event>
12    1  0.4672461E-008  0.1838947E+04  0.7818608E-02  0.8685858E-01
          2   -1    0    0  501    0  0.00000000000E+00  0.00000000000E+00  0.89512547786E+03  0.89512547786E+03  0.00000000000E+00 0.  1.
         -2   -1    0    0    0  501 -0.00000000000E+00 -0.00000000000E+00 -0.94448356601E+03  0.94448356601E+03  0.00000000000E+00 0. -1.
         23    2    1    2    0    0 -0.50303511567E+03 -0.14045675778E+03 -0.47701092781E+03  0.71319770417E+03  0.91318736201E+02 0.  0.
        254    2    1    2    0    0  0.50303511567E+03  0.14045675778E+03  0.42765283966E+03  0.11264113397E+04  0.90174449072E+03 0.  0.
         23    2    4    4    0    0  0.40330897432E+03 -0.19484600923E+03  0.57595141656E+03  0.73533313228E+03  0.91496913128E+02 0.  0.
         23    2    4    4    0    0  0.99726141347E+02  0.33530276700E+03 -0.14829857690E+03  0.39107820742E+03  0.92609111747E+02 0.  0.
         13    1    3    3    0    0 -0.20901496182E+03 -0.20726596578E+02 -0.15525842987E+03  0.26119346492E+03  0.00000000000E+00 0.  1.
        -13    1    3    3    0    0 -0.29402015384E+03 -0.11973016120E+03 -0.32175249794E+03  0.45200423925E+03  0.00000000000E+00 0. -1.
          4    1    5    5  502    0  0.32287486686E+03 -0.13453121124E+03  0.38950569069E+03  0.52350884380E+03  0.00000000000E+00 0. -1.
          3    1    6    6  503    0  0.98369711111E+02  0.20471460758E+03 -0.12216698263E+03  0.25789424629E+03  0.00000000000E+00 0. -1.
         -4    1    5    5    0  502  0.80434107462E+02 -0.60314797983E+02  0.18644572586E+03  0.21182428848E+03  0.00000000000E+00 0.  1.
         -3    1    6    6    0  503  0.13564302357E+01  0.13058815942E+03 -0.26131594269E+02  0.13318396113E+03  0.00000000000E+00 0.  1.
<mgrwt>
<rscale>  0 0.18389468E+04</rscale>
<asrwt>0</asrwt>
<pdfrwt beam="1">  1        2 0.13771161E+00 0.18389468E+04</pdfrwt>
<pdfrwt beam="2">  1       -2 0.14530516E+00 0.18389468E+04</pdfrwt>
<totfact> 0.90594684E+00</totfact>
</mgrwt>
</event>
<event>
12    1  0.4672461E-008  0.2119123E+04  0.7818608E-02  0.8552866E-01
          1   -1    0    0  501    0  0.00000000000E+00  0.00000000000E+00  0.18531669545E+04  0.18531669545E+04  0.00000000000E+00 0. -1.
         -1   -1    0    0    0  501 -0.00000000000E+00 -0.00000000000E+00 -0.60581187548E+03  0.60581187548E+03  0.00000000000E+00 0.  1.
         23    2    1    2    0    0  0.44107186356E+03 -0.43854684232E+03  0.12127694635E+04  0.13659428809E+04  0.90124693906E+02 0.  0.
        254    2    1    2    0    0 -0.44107186356E+03  0.43854684232E+03  0.34585615472E+02  0.10930359491E+04  0.89814458714E+03 0.  0.
         23    2    4    4    0    0 -0.47852555496E+03 -0.78437212168E+02  0.21365718053E+03  0.53768608489E+03  0.91202149572E+02 0.  0.
         23    2    4    4    0    0  0.37453691405E+02  0.51698405449E+03 -0.17907156506E+03  0.55534986417E+03  0.87587411316E+02 0.  0.
         11    1    3    3    0    0  0.27661633686E+03 -0.21260356543E+03  0.65870057292E+03  0.74538803224E+03  0.00000000000E+00 0. -1.
        -11    1    3    3    0    0  0.16445552670E+03 -0.22594327689E+03  0.55406889059E+03  0.62055484863E+03  0.00000000000E+00 0.  1.
          3    1    5    5  502    0 -0.10324291004E+03  0.14142289888E+02  0.23113638704E+02  0.10673960432E+03  0.00000000000E+00 0. -1.
          3    1    6    6  503    0 -0.52414427314E+01  0.11778713764E+03 -0.77934708011E+02  0.14133329837E+03  0.00000000000E+00 0. -1.
         -3    1    5    5    0  502 -0.37528264492E+03 -0.92579502056E+02  0.19054354183E+03  0.43094648057E+03  0.00000000000E+00 0.  1.
         -3    1    6    6    0  503  0.42695134136E+02  0.39919691685E+03 -0.10113685705E+03  0.41401656580E+03  0.00000000000E+00 0.  1.
<mgrwt>
<rscale>  0 0.21191230E+04</rscale>
<asrwt>0</asrwt>
<pdfrwt beam="1">  1        1 0.28510261E+00 0.21191230E+04</pdfrwt>
<pdfrwt beam="2">  1       -1 0.93201828E-01 0.21191230E+04</pdfrwt>
<totfact> 0.38463449E+00</totfact>
</mgrwt>
</event>
<event>
12    1  0.4672461E-008  0.1593373E+04  0.7818608E-02  0.8824629E-01
         -2   -1    0    0    0  501 -0.00000000000E+00  0.00000000000E+00  0.87289417360E+03  0.87289417360E+03  0.00000000000E+00 0.  1.
          2   -1    0    0  501    0  0.00000000000E+00 -0.00000000000E+00 -0.72713225973E+03  0.72713225973E+03  0.00000000000E+00 0. -1.
         23    2    1    2    0    0  0.53008709380E+03 -0.55530057813E+02  0.10195018201E+03  0.55003370206E+03  0.89818257923E+02 0.  0.
        254    2    1    2    0    0 -0.53008709380E+03  0.55530057813E+02  0.43811731860E+02  0.10499927313E+04  0.90359800438E+03 0.  0.
         23    2    4    4    0    0  0.42081069955E+02  0.21757208657E+03  0.31057863528E+03  0.39182090353E+03  0.89196986794E+02 0.  0.
         23    2    4    4    0    0 -0.57216816376E+03 -0.16204202875E+03 -0.26676690342E+03  0.65817182773E+03  0.91605389358E+02 0.  0.
         11    1    3    3    0    0  0.18363803995E+03 -0.37251966231E+02  0.75764338207E+02  0.20211599058E+03  0.00000000000E+00 0. -1.
        -11    1    3    3    0    0  0.34644905385E+03 -0.18278091581E+02  0.26185843806E+02  0.34791771148E+03  0.00000000000E+00 0.  1.
          1    1    5    5  502    0 -0.17423948603E+02  0.37824196520E+02  0.23188858717E+02  0.47665364741E+02  0.00000000000E+00 0. -1.
          3    1    6    6  503    0 -0.16304379090E+03 -0.14132957335E+02 -0.10276742969E+03  0.19324637859E+03  0.00000000000E+00 0. -1.
         -1    1    5    5    0  502  0.59505018558E+02  0.17974789005E+03  0.28738977656E+03  0.34415553879E+03  0.00000000000E+00 0.  1.
         -3    1    6    6    0  503 -0.40912437285E+03 -0.14790907142E+03 -0.16399947373E+03  0.46492544913E+03  0.00000000000E+00 0.  1.
<mgrwt>
<rscale>  0 0.15933732E+04</rscale>
<asrwt>0</asrwt>
<pdfrwt beam="1">  1        2 0.11186650E+00 0.15933732E+04</pdfrwt>
<pdfrwt beam="2">  1       -2 0.13429141E+00 0.15933732E+04</pdfrwt>
<totfact> 0.14968538E+01</totfact>
</mgrwt>
</event>
<event>
12    1  0.4672461E-008  0.1030125E+04  0.7818608E-02  0.9276108E-01
         -1   -1    0    0    0  501 -0.00000000000E+00  0.00000000000E+00  0.53994226220E+03  0.53994226220E+03  0.00000000000E+00 0.  1.
          1   -1    0    0  501    0  0.00000000000E+00 -0.00000000000E+00 -0.49132881719E+03  0.49132881719E+03  0.00000000000E+00 0. -1.
         23    2    1    2    0    0  0.18723701036E+02 -0.11258897890E+02  0.10767267966E+03  0.15783145417E+03  0.11331382182E+03 0.  0.
        254    2    1    2    0    0 -0.18723701036E+02  0.11258897890E+02 -0.59059234657E+02  0.87343962522E+03  0.87116671536E+03 0.  0.
         23    2    4    4    0    0  0.37160363662E+03 -0.94382162853E+02  0.13382402525E+03  0.41611827293E+03  0.90820107484E+02 0.  0.
         23    2    4    4    0    0 -0.39032733765E+03  0.10564106074E+03 -0.19288325990E+03  0.45732135229E+03  0.91779099327E+02 0.  0.
         13    1    3    3    0    0  0.47105452798E+02  0.68871700508E+01  0.11401320385E+03  0.12355309566E+03  0.00000000000E+00 0.  1.
        -13    1    3    3    0    0 -0.28381751762E+02 -0.18146067941E+02 -0.63405241901E+01  0.34278358505E+02  0.00000000000E+00 0. -1.
          4    1    5    5  502    0  0.23574769744E+03 -0.15723641985E+02  0.67727230191E+02  0.24578687409E+03  0.00000000000E+00 0. -1.
          1    1    6    6  503    0 -0.18958519404E+03  0.16208750782E+02 -0.12359720148E+03  0.22689543322E+03  0.00000000000E+00 0. -1.
         -4    1    5    5    0  502  0.13585593917E+03 -0.78658520869E+02  0.66096795056E+02  0.17033139884E+03  0.00000000000E+00 0.  1.
         -1    1    6    6    0  503 -0.20074214361E+03  0.89432309962E+02 -0.69286058420E+02  0.23042591907E+03  0.00000000000E+00 0.  1.
<mgrwt>
<rscale>  0 0.10301246E+04</rscale>
<asrwt>0</asrwt>
<pdfrwt beam="1">  1        1 0.75589049E-01 0.10301246E+04</pdfrwt>
<pdfrwt beam="2">  1       -1 0.83068040E-01 0.10301246E+04</pdfrwt>
<totfact> 0.65432461E+01</totfact>
</mgrwt>
</event>
<event>
12    1  0.4672461E-008  0.2132736E+04  0.7818608E-02  0.8546958E-01
          1   -1    0    0  501    0  0.00000000000E+00  0.00000000000E+00  0.17053703735E+04  0.17053703735E+04  0.00000000000E+00 0. -1.
         -1   -1    0    0    0  501 -0.00000000000E+00 -0.00000000000E+00 -0.66679995967E+03  0.66679995967E+03  0.00000000000E+00 0.  1.
         23    2    1    2    0    0 -0.78089003429E+03 -0.27019133959E+03  0.10092643761E+03  0.83736383782E+03  0.90550789297E+02 0.  0.
        254    2    1    2    0    0  0.78089003429E+03  0.27019133959E+03  0.93764397618E+03  0.15348064953E+04  0.89087717803E+03 0.  0.
         23    2    4    4    0    0  0.63885189595E+03  0.57433309997E+03  0.72545582128E+03  0.11281648010E+04  0.92083739015E+02 0.  0.
         23    2    4    4    0    0  0.14203813834E+03 -0.30414176038E+03  0.21218815490E+03  0.40664169427E+03  0.87502064492E+02 0.  0.
         11    1    3    3    0    0 -0.16613703277E+03 -0.92476336775E+02  0.42062176562E+02  0.19473729283E+03  0.00000000000E+00 0. -1.
        -11    1    3    3    0    0 -0.61475300152E+03 -0.17771500282E+03  0.58864261045E+02  0.64262654499E+03  0.00000000000E+00 0.  1.
          1    1    5    5  502    0  0.21813969244E+03  0.20626558690E+03  0.31119137800E+03  0.43240084586E+03  0.00000000000E+00 0. -1.
          3    1    6    6  503    0  0.10907898878E+03 -0.15670113367E+03  0.84337156930E+02  0.20872524315E+03  0.00000000000E+00 0. -1.
         -1    1    5    5    0  502  0.42071220352E+03  0.36806751307E+03  0.41426444327E+03  0.69576395518E+03  0.00000000000E+00 0.  1.
         -3    1    6    6    0  503  0.32959149556E+02 -0.14744062671E+03  0.12785099797E+03  0.19791645113E+03  0.00000000000E+00 0.  1.
<mgrwt>
<rscale>  0 0.21327362E+04</rscale>
<asrwt>0</asrwt>
<pdfrwt beam="1">  1        1 0.26236467E+00 0.21327362E+04</pdfrwt>
<pdfrwt beam="2">  1       -1 0.10258461E+00 0.21327362E+04</pdfrwt>
<totfact> 0.38944744E+00</totfact>
</mgrwt>
</event>
<event>
12    1  0.4672461E-008  0.1387138E+04  0.7818608E-02  0.8963182E-01
         -2   -1    0    0    0  501 -0.00000000000E+00  0.00000000000E+00  0.56283521599E+03  0.56283521599E+03  0.00000000000E+00 0.  1.
          2   -1    0    0  501    0  0.00000000000E+00 -0.00000000000E+00 -0.85466951976E+03  0.85466951976E+03  0.00000000000E+00 0. -1.
         23    2    1    2    0    0  0.24211647441E+03  0.70307597826E+02 -0.39571789831E+03  0.47735457869E+03  0.87813400270E+02 0.  0.
        254    2    1    2    0    0 -0.24211647441E+03 -0.70307597826E+02  0.10388359454E+03  0.94015015705E+03  0.89973716779E+03 0.  0.
         23    2    4    4    0    0 -0.52128998316E+03 -0.47880493490E+02  0.27657437786E+03  0.59884550483E+03  0.89926436397E+02 0.  0.
         23    2    4    4    0    0  0.27917350875E+03 -0.22427104336E+02 -0.17269078333E+03  0.34130465223E+03  0.90696945862E+02 0.  0.
         11    1    3    3    0    0  0.16311538049E+03  0.26046048389E+02 -0.31662192053E+03  0.35711967819E+03  0.00000000000E+00 0. -1.
        -11    1    3    3    0    0  0.79001093915E+02  0.44261549437E+02 -0.79095977772E+02  0.12023490050E+03  0.00000000000E+00 0.  1.
          3    1    5    5  502    0 -0.41744016167E+03 -0.75908666576E+01  0.24015463072E+03  0.48165148862E+03  0.00000000000E+00 0. -1.
          3    1    6    6  503    0  0.15544383182E+03 -0.48282438830E+02 -0.12857221125E+03  0.20742418436E+03  0.00000000000E+00 0. -1.
         -3    1    5    5    0  502 -0.10384982149E+03 -0.40289626832E+02  0.36419747148E+02  0.11719401621E+03  0.00000000000E+00 0.  1.
         -3    1    6    6    0  503  0.12372967693E+03  0.25855334495E+02 -0.44118572076E+02  0.13388046787E+03  0.00000000000E+00 0.  1.
<mgrwt>
<rscale>  0 0.13871382E+04</rscale>
<asrwt>0</asrwt>
<pdfrwt beam="1">  1        2 0.13148762E+00 0.13871382E+04</pdfrwt>
<pdfrwt beam="2">  1       -2 0.86590034E-01 0.13871382E+04</pdfrwt>
<totfact> 0.35456354E+01</totfact>
</mgrwt>
</event>
<event>
12    1  0.4672461E-008  0.3265923E+04  0.7818608E-02  0.8171621E-01
         -2   -1    0    0    0  501 -0.00000000000E+00  0.00000000000E+00  0.23226295797E+04  0.23226295797E+04  0.00000000000E+00 0.  1.
          2   -1    0    0  501    0  0.00000000000E+00 -0.00000000000E+00 -0.11480796093E+04  0.11480796093E+04  0.00000000000E+00 0. -1.
         23    2    1    2    0    0  0.80385965664E+03 -0.35267979897E+03 -0.76064946680E+03  0.11650409291E+04  0.90329214636E+02 0.  0.
        254    2    1    2    0    0 -0.80385965664E+03  0.35267979897E+03  0.19351994373E+04  0.23056682598E+04  0.89472670370E+03 0.  0.
         23    2    4    4    0    0 -0.21823249834E+03 -0.12763110838E+03  0.52393916567E+02  0.27419113794E+03  0.92306741230E+02 0.  0.
         23    2    4    4    0    0 -0.58562715830E+03  0.48031090735E+03  0.18828055207E+04  0.20314771219E+04  0.91021600784E+02 0.  0.
         13    1    3    3    0    0  0.66585964585E+03 -0.31744492565E+03 -0.60465612904E+03  0.95380783346E+03  0.00000000000E+00 0. -1.
        -13    1    3    3    0    0  0.13800001079E+03 -0.35234873315E+02 -0.15599333777E+03  0.21123309567E+03  0.00000000000E+00 0.  1.
          2    1    5    5  502    0 -0.81100393617E+01 -0.14454601061E+02  0.30261827818E+02  0.34503426687E+02  0.00000000000E+00 0. -1.
          1    1    6    6  503    0 -0.55937656207E+03  0.47920886473E+03  0.18169891861E+04  0.19606103582E+04  0.00000000000E+00 0. -1.
         -2    1    5    5    0  502 -0.21012245898E+03 -0.11317650732E+03  0.22132088750E+02  0.23968771126E+03  0.00000000000E+00 0.  1.
         -1    1    6    6    0  503 -0.26250596235E+02  0.11020426228E+01  0.65816334605E+02  0.70866763730E+02  0.00000000000E+00 0.  1.
<mgrwt>
<rscale>  0 0.32659232E+04</rscale>
<asrwt>0</asrwt>
<pdfrwt beam="1">  1        2 0.17662763E+00 0.32659232E+04</pdfrwt>
<pdfrwt beam="2">  1       -2 0.35732763E+00 0.32659232E+04</pdfrwt>
<totfact> 0.23829746E-01</totfact>
</mgrwt>
</event>
<event>
12    1  0.4672461E-008  0.3495128E+04  0.7818608E-02  0.8114946E-01
          1   -1    0    0  501    0  0.00000000000E+00  0.00000000000E+00  0.15007899504E+04  0.15007899504E+04  0.00000000000E+00 0. -1.
         -1   -1    0    0    0  501 -0.00000000000E+00 -0.00000000000E+00 -0.20349146267E+04  0.20349146267E+04  0.00000000000E+00 0.  1.
         23    2    1    2    0    0  0.93925922552E+03  0.46085667314E+03 -0.15102945881E+04  0.18397066697E+04  0.94520484196E+02 0.  0.
        254    2    1    2    0    0 -0.93925922552E+03 -0.46085667314E+03  0.97616991180E+03  0.16959979074E+04  0.91044189228E+03 0.  0.
         23    2    4    4    0    0 -0.74894369193E+03 -0.43005692346E+03  0.11354109842E+04  0.14298778507E+04  0.97606115456E+02 0.  0.
         23    2    4    4    0    0 -0.19031553358E+03 -0.30799749672E+02 -0.15924107235E+03  0.26612005671E+03  0.91068867117E+02 0.  0.
         13    1    3    3    0    0  0.14734023432E+03  0.10847985753E+03 -0.29022924529E+03  0.34308896654E+03  0.00000000000E+00 0. -1.
        -13    1    3    3    0    0  0.79191899120E+03  0.35237681561E+03 -0.12200653428E+04  0.14966177032E+04  0.00000000000E+00 0.  1.
          2    1    5    5  502    0 -0.59736270673E+03 -0.31425375303E+03  0.93521527460E+03  0.11533539069E+04  0.00000000000E+00 0. -1.
          4    1    6    6  503    0 -0.85154884288E+02 -0.55497315459E+02 -0.53097146682E+02  0.11467612361E+03  0.00000000000E+00 0. -1.
         -2    1    5    5    0  502 -0.15158098520E+03 -0.11580317044E+03  0.20019570955E+03  0.27652394377E+03  0.00000000000E+00 0.  1.
         -4    1    6    6    0  503 -0.10516064930E+03  0.24697565787E+02 -0.10614392567E+03  0.15144393310E+03  0.00000000000E+00 0.  1.
<mgrwt>
<rscale>  0 0.34951277E+04</rscale>
<asrwt>0</asrwt>
<pdfrwt beam="1">  1        1 0.23089076E+00 0.34951277E+04</pdfrwt>
<pdfrwt beam="2">  1       -1 0.31306379E+00 0.34951277E+04</pdfrwt>
<totfact> 0.14480182E-01</totfact>
</mgrwt>
</event>
<event>
12    1  0.4672461E-008  0.1247155E+04  0.7818608E-02  0.9072554E-01
         -1   -1    0    0    0  501 -0.00000000000E+00  0.00000000000E+00  0.49546300747E+03  0.49546300747E+03  0.00000000000E+00 0.  1.
          1   -1    0    0  501    0  0.00000000000E+00 -0.00000000000E+00 -0.78481947877E+03  0.78481947877E+03  0.00000000000E+00 0. -1.
         23    2    1    2    0    0  0.64409464369E+02  0.23473624246E+03 -0.23634934635E+03  0.35133425824E+03  0.91241793413E+02 0.  0.
        254    2    1    2    0    0 -0.64409464369E+02 -0.23473624246E+03 -0.53007124952E+02  0.92894822800E+03  0.89492199234E+03 0.  0.
         23    2    4    4    0    0  0.31780612044E+03 -0.37489884310E+03  0.39846765417E+02  0.50162817912E+03  0.92158519056E+02 0.  0.
         23    2    4    4    0    0 -0.38221558480E+03  0.14016260063E+03 -0.92853890369E+02  0.42732004887E+03  0.90808982644E+02 0.  0.
         13    1    3    3    0    0 -0.12486292286E+02  0.63115800578E+01 -0.32552343987E+00  0.13994624089E+02  0.00000000000E+00 0.  1.
        -13    1    3    3    0    0  0.76895756655E+02  0.22842466241E+03 -0.23602382291E+03  0.33733963415E+03  0.00000000000E+00 0. -1.
          4    1    5    5  502    0  0.15098300013E+03 -0.24832059861E+03  0.25143462753E+02  0.29170392480E+03  0.00000000000E+00 0. -1.
          3    1    6    6  503    0 -0.15962622329E+03  0.88880293934E+02 -0.77263875302E+02  0.19836820370E+03  0.00000000000E+00 0. -1.
         -4    1    5    5    0  502  0.16682312030E+03 -0.12657824449E+03  0.14703302664E+02  0.20992425432E+03  0.00000000000E+00 0.  1.
         -3    1    6    6    0  503 -0.22258936151E+03  0.51282306700E+02 -0.15590015067E+02  0.22895184517E+03  0.00000000000E+00 0.  1.
<mgrwt>
<rscale>  0 0.12471552E+04</rscale>
<asrwt>0</asrwt>
<pdfrwt beam="1">  1        1 0.12074146E+00 0.12471552E+04</pdfrwt>
<pdfrwt beam="2">  1       -1 0.76225078E-01 0.12471552E+04</pdfrwt>
<totfact> 0.38876366E+01</totfact>
</mgrwt>
</event>
<event>
12    1  0.4672461E-008  0.1102976E+04  0.7818608E-02  0.9202296E-01
          1   -1    0    0  501    0  0.00000000000E+00  0.00000000000E+00  0.26106349349E+03  0.26106349349E+03  0.00000000000E+00 0. -1.
         -1   -1    0    0    0  501 -0.00000000000E+00 -0.00000000000E+00 -0.11649996934E+04  0.11649996934E+04  0.00000000000E+00 0.  1.
         23    2    1    2    0    0  0.24181430125E+02  0.11622692468E+03  0.20348549508E+02  0.15300773258E+03  0.94360283904E+02 0.  0.
        254    2    1    2    0    0 -0.24181430125E+02 -0.11622692468E+03 -0.92428474942E+03  0.12730554543E+04  0.86733756528E+03 0.  0.
         23    2    4    4    0    0  0.18392853501E+03  0.30868232106E+02  0.87517753993E+02  0.22603602066E+03  0.93007374062E+02 0.  0.
         23    2    4    4    0    0 -0.20810996513E+03 -0.14709515679E+03 -0.10118025034E+04  0.10470194336E+04  0.86940472630E+02 0.  0.
         13    1    3    3    0    0 -0.73424945203E+00  0.11719150175E+02 -0.31570601609E+02  0.33683534390E+02  0.00000000000E+00 0.  1.
        -13    1    3    3    0    0  0.24915679577E+02  0.10450777451E+03  0.51919151117E+02  0.11932419819E+03  0.00000000000E+00 0. -1.
          2    1    5    5  502    0  0.11038646020E+02 -0.29436538691E+01 -0.17533096044E+02  0.20926687768E+02  0.00000000000E+00 0. -1.
          1    1    6    6  503    0 -0.62165062646E+02 -0.29313562941E+00 -0.24580009866E+03  0.25353948301E+03  0.00000000000E+00 0. -1.
         -2    1    5    5    0  502  0.17288988899E+03  0.33811885975E+02  0.10505085004E+03  0.20510933289E+03  0.00000000000E+00 0.  1.
         -1    1    6    6    0  503 -0.14594490248E+03 -0.14680202116E+03 -0.76600240475E+03  0.79347995064E+03  0.00000000000E+00 0.  1.
<mgrwt>
<rscale>  0 0.11029758E+04</rscale>
<asrwt>0</asrwt>
<pdfrwt beam="1">  1        1 0.40163615E-01 0.11029758E+04</pdfrwt>
<pdfrwt beam="2">  1       -1 0.17923072E+00 0.11029758E+04</pdfrwt>
<totfact> 0.22078796E+01</totfact>
</mgrwt>
</event>
<event>
12    1  0.4672461E-008  0.2430033E+04  0.7818608E-02  0.8428344E-01
         -2   -1    0    0    0  501 -0.00000000000E+00  0.00000000000E+00  0.11213171300E+04  0.11213171300E+04  0.00000000000E+00 0.  1.
          2   -1    0    0  501    0  0.00000000000E+00 -0.00000000000E+00 -0.13165459504E+04  0.13165459504E+04  0.00000000000E+00 0. -1.
         23    2    1    2    0    0 -0.60069764960E+03 -0.42623439764E+03  0.65528608572E+03  0.98997119431E+03  0.90164757356E+02 0.  0.
        254    2    1    2    0    0  0.60069764960E+03  0.42623439764E+03 -0.85051490615E+03  0.14478918861E+04  0.91131875889E+03 0.  0.
         23    2    4    4    0    0 -0.16172498500E+03 -0.42200088665E+02  0.25973697957E+02  0.19202690899E+03  0.90905899327E+02 0.  0.
         23    2    4    4    0    0  0.76242263461E+03  0.46843448630E+03 -0.87648860411E+03  0.12558649771E+04  0.90804327548E+02 0.  0.
         13    1    3    3    0    0 -0.28370324614E+03 -0.19007683160E+03  0.24532853070E+03  0.42047927625E+03  0.00000000000E+00 0. -1.
        -13    1    3    3    0    0 -0.31699440346E+03 -0.23615756604E+03  0.40995755501E+03  0.56949191806E+03  0.00000000000E+00 0.  1.
          1    1    5    5  502    0 -0.64676710258E+02 -0.41742851436E+02  0.50326166027E+02  0.91968828865E+02  0.00000000000E+00 0. -1.
          3    1    6    6  503    0  0.57084201770E+03  0.35388085775E+03 -0.60079885848E+03  0.90113902313E+03  0.00000000000E+00 0.  1.
         -1    1    5    5    0  502 -0.97048274746E+02 -0.45723722964E+00 -0.24352468070E+02  0.10005808012E+03  0.00000000000E+00 0.  1.
         -3    1    6    6    0  503  0.19158061691E+03  0.11455362855E+03 -0.27568974563E+03  0.35472595399E+03  0.00000000000E+00 0. -1.
<mgrwt>
<rscale>  0 0.24300334E+04</rscale>
<asrwt>0</asrwt>
<pdfrwt beam="1">  1        2 0.20254553E+00 0.24300334E+04</pdfrwt>
<pdfrwt beam="2">  1       -2 0.17251033E+00 0.24300334E+04</pdfrwt>
<totfact> 0.29672967E+00</totfact>
</mgrwt>
</event>
<event>
12    1  0.4672461E-008  0.1847213E+04  0.7818608E-02  0.8681588E-01
         -2   -1    0    0    0  501 -0.00000000000E+00  0.00000000000E+00  0.41156562704E+03  0.41156562704E+03  0.00000000000E+00 0.  1.
          2   -1    0    0  501    0  0.00000000000E+00 -0.00000000000E+00 -0.20726918185E+04  0.20726918185E+04  0.00000000000E+00 0. -1.
         23    2    1    2    0    0  0.33563710502E+03  0.60559172153E+03 -0.50529545811E+03  0.86181294185E+03  0.89467576799E+02 0.  0.
        254    2    1    2    0    0 -0.33563710502E+03 -0.60559172153E+03 -0.11558307333E+04  0.16224445037E+04  0.90387382081E+03 0.  0.
         23    2    4    4    0    0  0.90836529571E+02  0.16875353926E+03 -0.41282619545E+03  0.46401977793E+03  0.90331913240E+02 0.  0.
         23    2    4    4    0    0 -0.42647363459E+03 -0.77434526079E+03 -0.74300453790E+03  0.11584247258E+04  0.91661103998E+02 0.  0.
         11    1    3    3    0    0 -0.13958784863E+01  0.19583662691E+02 -0.35711256202E+01  0.19955481937E+02  0.00000000000E+00 0.  1.
        -11    1    3    3    0    0  0.33703298350E+03  0.58600805884E+03 -0.50172433249E+03  0.84185745991E+03  0.00000000000E+00 0. -1.
          2    1    5    5  502    0  0.87945851349E+02  0.11464705464E+03 -0.36182124112E+03  0.38960625051E+03  0.00000000000E+00 0. -1.
          3    1    6    6  503    0 -0.29264119306E+03 -0.60993476270E+03 -0.55370445556E+03  0.87421273540E+03  0.00000000000E+00 0. -1.
         -2    1    5    5    0  502  0.28906782226E+01  0.54106484619E+02 -0.51004954325E+02  0.74413527427E+02  0.00000000000E+00 0.  1.
         -3    1    6    6    0  503 -0.13383244152E+03 -0.16441049809E+03 -0.18930008233E+03  0.28421199035E+03  0.00000000000E+00 0.  1.
<mgrwt>
<rscale>  0 0.18472127E+04</rscale>
<asrwt>0</asrwt>
<pdfrwt beam="1">  1        2 0.31887565E+00 0.18472127E+04</pdfrwt>
<pdfrwt beam="2">  1       -2 0.63317791E-01 0.18472127E+04</pdfrwt>
<totfact> 0.13220128E+01</totfact>
</mgrwt>
</event>
<event>
12    1  0.4672461E-008  0.2378807E+04  0.7818608E-02  0.8447481E-01
         -2   -1    0    0    0  501 -0.00000000000E+00  0.00000000000E+00  0.11101816299E+04  0.11101816299E+04  0.00000000000E+00 0.  1.
          2   -1    0    0  501    0  0.00000000000E+00 -0.00000000000E+00 -0.12742784998E+04  0.12742784998E+04  0.00000000000E+00 0. -1.
         23    2    1    2    0    0 -0.52104749051E+03  0.78361051765E+03  0.31472908127E+03  0.99655733326E+03  0.92391521001E+02 0.  0.
        254    2    1    2    0    0  0.52104749051E+03 -0.78361051765E+03 -0.47882595122E+03  0.13879027964E+04  0.90081293840E+03 0.  0.
         23    2    4    4    0    0  0.64951574837E+03 -0.89393142934E+03 -0.43569700646E+03  0.11911707753E+04  0.89843344970E+02 0.  0.
         23    2    4    4    0    0 -0.12846825787E+03  0.11032091170E+03 -0.43128944758E+02  0.19673202115E+03  0.90380227000E+02 0.  0.
         11    1    3    3    0    0 -0.53549304338E+02  0.47044848877E+02  0.76478255580E+01  0.71688458183E+02  0.00000000000E+00 0. -1.
        -11    1    3    3    0    0 -0.46749818617E+03  0.73656566877E+03  0.30708125572E+03  0.92486887508E+03  0.00000000000E+00 0.  1.
          1    1    5    5  502    0  0.54116305532E+03 -0.79495525588E+03 -0.37021891277E+03  0.10304723939E+04  0.00000000000E+00 0.  1.
          3    1    6    6  503    0 -0.11736049878E+03  0.50167877831E+02 -0.45539898828E+02  0.13551451961E+03  0.00000000000E+00 0. -1.
         -1    1    5    5    0  502  0.10835269305E+03 -0.98976173463E+02 -0.65478093696E+02  0.16069838132E+03  0.00000000000E+00 0. -1.
         -3    1    6    6    0  503 -0.11107759087E+02  0.60153033865E+02  0.24109540703E+01  0.61217501539E+02  0.00000000000E+00 0.  1.
<mgrwt>
<rscale>  0 0.23788069E+04</rscale>
<asrwt>0</asrwt>
<pdfrwt beam="1">  1        2 0.19604285E+00 0.23788069E+04</pdfrwt>
<pdfrwt beam="2">  1       -2 0.17079717E+00 0.23788069E+04</pdfrwt>
<totfact> 0.32434774E+00</totfact>
</mgrwt>
</event>
<event>
12    1  0.4672461E-008  0.3485682E+04  0.7818608E-02  0.8117191E-01
         -2   -1    0    0    0  501 -0.00000000000E+00  0.00000000000E+00  0.20448194178E+04  0.20448194178E+04  0.00000000000E+00 0.  1.
          2   -1    0    0  501    0  0.00000000000E+00 -0.00000000000E+00 -0.14854588492E+04  0.14854588492E+04  0.00000000000E+00 0. -1.
         23    2    1    2    0    0 -0.48841482063E+03  0.79406729979E+03 -0.10864391575E+04  0.14344713992E+04  0.90918857773E+02 0.  0.
        254    2    1    2    0    0  0.48841482063E+03 -0.79406729979E+03  0.16457997260E+04  0.20958068677E+04  0.90258394342E+03 0.  0.
         23    2    4    4    0    0  0.90664897723E+02 -0.85535577687E+03  0.93327139132E+03  0.12724058891E+04  0.90374930247E+02 0.  0.
         23    2    4    4    0    0  0.39774992291E+03  0.61288477080E+02  0.71252833472E+03  0.82340097863E+03  0.91275764765E+02 0.  0.
         11    1    3    3    0    0 -0.33367991642E+03  0.61562314149E+03 -0.82656262434E+03  0.10833004712E+04  0.00000000000E+00 0. -1.
        -11    1    3    3    0    0 -0.15473490422E+03  0.17844415830E+03 -0.25987653316E+03  0.35117092804E+03  0.00000000000E+00 0.  1.
          1    1    5    5  502    0  0.92409003499E+02 -0.69941410877E+03  0.80571692994E+03  0.10709338405E+04  0.00000000000E+00 0. -1.
          3    1    6    6  503    0  0.19384428384E+03 -0.30509291006E+01  0.40295262131E+03  0.44716409691E+03  0.00000000000E+00 0. -1.
         -1    1    5    5    0  502 -0.17441057763E+01 -0.15594166810E+03  0.12755446139E+03  0.20147204862E+03  0.00000000000E+00 0.  1.
         -3    1    6    6    0  503  0.20390563908E+03  0.64339406180E+02  0.30957571341E+03  0.37623688172E+03  0.00000000000E+00 0.  1.
<mgrwt>
<rscale>  0 0.34856822E+04</rscale>
<asrwt>0</asrwt>
<pdfrwt beam="1">  1        2 0.22853213E+00 0.34856822E+04</pdfrwt>
<pdfrwt beam="2">  1       -2 0.31458760E+00 0.34856822E+04</pdfrwt>
<totfact> 0.27514559E-01</totfact>
</mgrwt>
</event>
<event>
12    1  0.4672461E-008  0.1692449E+04  0.7818608E-02  0.8765683E-01
         -2   -1    0    0    0  501 -0.00000000000E+00  0.00000000000E+00  0.41099085337E+03  0.41099085337E+03  0.00000000000E+00 0.  1.
          2   -1    0    0  501    0  0.00000000000E+00 -0.00000000000E+00 -0.17423639988E+04  0.17423639988E+04  0.00000000000E+00 0. -1.
         23    2    1    2    0    0  0.28154728597E+03 -0.17766672975E+02 -0.11559990625E+04  0.11934769598E+04  0.92026584090E+02 0.  0.
        254    2    1    2    0    0 -0.28154728597E+03  0.17766672975E+02 -0.17537408293E+03  0.95987789236E+03  0.90056924796E+03 0.  0.
         23    2    4    4    0    0  0.16134583974E+03 -0.32525243261E+03 -0.48315158305E+02  0.37805476896E+03  0.93645228879E+02 0.  0.
         23    2    4    4    0    0 -0.44289312571E+03  0.34301910559E+03 -0.12705892463E+03  0.58182312340E+03  0.92508102322E+02 0.  0.
         11    1    3    3    0    0  0.24283218516E+03 -0.41951215900E+02 -0.88537803108E+03  0.91903298776E+03  0.00000000000E+00 0. -1.
        -11    1    3    3    0    0  0.38715100803E+02  0.24184542924E+02 -0.27062103138E+03  0.27444397201E+03  0.00000000000E+00 0.  1.
          4    1    5    5  502    0  0.16839089472E+03 -0.32270327435E+03 -0.38968108143E+02  0.36607568910E+03  0.00000000000E+00 0. -1.
          1    1    6    6  503    0 -0.11762963587E+03  0.73094145627E+02  0.62245072447E+01  0.13862983030E+03  0.00000000000E+00 0. -1.
         -4    1    5    5    0  502 -0.70450549849E+01 -0.25491582689E+01 -0.93470501614E+01  0.11979079862E+02  0.00000000000E+00 0.  1.
         -1    1    6    6    0  503 -0.32526348984E+03  0.26992495996E+03 -0.13328343187E+03  0.44319329310E+03  0.00000000000E+00 0.  1.
<mgrwt>
<rscale>  0 0.16924487E+04</rscale>
<asrwt>0</asrwt>
<pdfrwt beam="1">  1        2 0.26805600E+00 0.16924487E+04</pdfrwt>
<pdfrwt beam="2">  1       -2 0.63229362E-01 0.16924487E+04</pdfrwt>
<totfact> 0.20484999E+01</totfact>
</mgrwt>
</event>
<event>
12    1  0.4672461E-008  0.1912987E+04  0.7818608E-02  0.8648419E-01
         -2   -1    0    0    0  501 -0.00000000000E+00  0.00000000000E+00  0.13153066165E+04  0.13153066165E+04  0.00000000000E+00 0. -1.
          2   -1    0    0  501    0  0.00000000000E+00 -0.00000000000E+00 -0.69556356497E+03  0.69556356497E+03  0.00000000000E+00 0.  1.
         23    2    1    2    0    0 -0.46828957154E+02  0.79831615929E+02  0.10143802164E+04  0.10224176683E+04  0.88343799579E+02 0.  0.
        254    2    1    2    0    0  0.46828957154E+02 -0.79831615929E+02 -0.39463716490E+03  0.98845251313E+03  0.90151752099E+03 0.  0.
         23    2    4    4    0    0 -0.82948446733E+02  0.39021708976E+03 -0.14627183893E+03  0.43428949910E+03  0.89789176482E+02 0.  0.
         23    2    4    4    0    0  0.12977740389E+03 -0.47004870569E+03 -0.24836532597E+03  0.55416301403E+03  0.87311801570E+02 0.  0.
         11    1    3    3    0    0 -0.29801307803E+02  0.12092166326E+02  0.93195153445E+02  0.98588412397E+02  0.00000000000E+00 0.  1.
        -11    1    3    3    0    0 -0.17027649351E+02  0.67739449603E+02  0.92118506294E+03  0.92382925590E+03  0.00000000000E+00 0. -1.
          2    1    6    6  502    0  0.15446166992E+02 -0.51954631361E+01 -0.12285120594E+02  0.20408358581E+02  0.00000000000E+00 0. -1.
          2    1    5    5  503    0 -0.20434374544E+02  0.85688575028E+01 -0.89773156837E+01  0.23907763986E+02  0.00000000000E+00 0. -1.
         -2    1    5    5    0  503 -0.62514072189E+02  0.38164823225E+03 -0.13729452324E+03  0.41038173512E+03  0.00000000000E+00 0.  1.
         -2    1    6    6    0  502  0.11433123690E+03 -0.46485324255E+03 -0.23608020538E+03  0.53375465545E+03  0.00000000000E+00 0.  1.
<mgrwt>
<rscale>  0 0.19129865E+04</rscale>
<asrwt>0</asrwt>
<pdfrwt beam="1">  1        2 0.10700978E+00 0.19129865E+04</pdfrwt>
<pdfrwt beam="2">  1       -2 0.20235486E+00 0.19129865E+04</pdfrwt>
<totfact> 0.49568541E+00</totfact>
</mgrwt>
</event>
<event>
12    1  0.4672461E-008  0.2707422E+04  0.7818608E-02  0.8332601E-01
          2   -1    0    0  501    0  0.00000000000E+00  0.00000000000E+00  0.16964445440E+04  0.16964445440E+04  0.00000000000E+00 0. -1.
         -2   -1    0    0    0  501 -0.00000000000E+00 -0.00000000000E+00 -0.10802204270E+04  0.10802204270E+04  0.00000000000E+00 0.  1.
         23    2    1    2    0    0  0.56199266516E+03  0.42591867476E+03  0.12727846928E+04  0.14579456505E+04  0.91554204627E+02 0.  0.
        254    2    1    2    0    0 -0.56199266516E+03 -0.42591867476E+03 -0.65656057576E+03  0.13187193205E+04  0.90039234966E+03 0.  0.
         23    2    4    4    0    0 -0.79638430708E+02 -0.60531484086E+03 -0.41126277155E+03  0.74165160295E+03  0.90342109140E+02 0.  0.
         23    2    4    4    0    0 -0.48235423445E+03  0.17939616610E+03 -0.24529780422E+03  0.57706771752E+03  0.89373071680E+02 0.  0.
         11    1    3    3    0    0  0.39678324781E+03  0.26815139507E+03  0.92921726540E+03  0.10453644545E+04  0.00000000000E+00 0. -1.
        -11    1    3    3    0    0  0.16520941735E+03  0.15776727969E+03  0.34356742743E+03  0.41258119603E+03  0.00000000000E+00 0.  1.
          2    1    5    5  502    0 -0.99082064338E+02 -0.52778186655E+03 -0.35085874382E+03  0.64146146591E+03  0.00000000000E+00 0. -1.
          1    1    6    6  503    0 -0.21301849414E+03  0.12287097593E+03 -0.96118097573E+02  0.26403190006E+03  0.00000000000E+00 0. -1.
         -2    1    5    5    0  502  0.19443633630E+02 -0.77532974309E+02 -0.60404027721E+02  0.10019013703E+03  0.00000000000E+00 0.  1.
         -1    1    6    6    0  503 -0.26933574032E+03  0.56525190174E+02 -0.14917970664E+03  0.31303581746E+03  0.00000000000E+00 0.  1.
<mgrwt>
<rscale>  0 0.27074224E+04</rscale>
<asrwt>0</asrwt>
<pdfrwt beam="1">  1        2 0.26099147E+00 0.27074224E+04</pdfrwt>
<pdfrwt beam="2">  1       -2 0.16618776E+00 0.27074224E+04</pdfrwt>
<totfact> 0.19608906E+00</totfact>
</mgrwt>
</event>
<event>
12    1  0.6350637E-008  0.2427921E+04  0.7818608E-02  0.8429124E-01
          1   -1    0    0  501    0  0.00000000000E+00  0.00000000000E+00  0.15489314642E+04  0.15489314642E+04  0.00000000000E+00 0. -1.
         -1   -1    0    0    0  501 -0.00000000000E+00 -0.00000000000E+00 -0.95143050154E+03  0.95143050154E+03  0.00000000000E+00 0.  1.
         23    2    1    2    0    0 -0.33744360385E+03  0.57483880660E+03 -0.56619932834E+03  0.87994143280E+03  0.96991785169E+02 0.  0.
        254    2    1    2    0    0  0.33744360385E+03 -0.57483880660E+03  0.11637002910E+04  0.16204205329E+04  0.90953641868E+03 0.  0.
         23    2    4    4    0    0  0.72423514598E+02 -0.70748717393E+03  0.46196828838E+03  0.85292417750E+03  0.91003771180E+02 0.  0.
         23    2    4    4    0    0  0.26502008925E+03  0.13264836733E+03  0.70173200260E+03  0.76749635540E+03  0.93763612486E+02 0.  0.
         11    1    3    3    0    0 -0.20460346759E+02  0.27616088207E+02 -0.55733604210E+01  0.34818622370E+02  0.00000000000E+00 0. -1.
        -11    1    3    3    0    0 -0.31698325709E+03  0.54722271839E+03 -0.56062596792E+03  0.84512281043E+03  0.00000000000E+00 0.  1.
          1    1    5    5  502    0 -0.18894119033E+02 -0.20907503068E+03  0.14750657445E+03  0.25656879330E+03  0.00000000000E+00 0. -1.
          3    1    6    6  503    0  0.17352262391E+02 -0.64781525888E+01  0.13429307940E+02  0.22878238193E+02  0.00000000000E+00 0. -1.
         -1    1    5    5    0  502  0.91317633631E+02 -0.49841214324E+03  0.31446171392E+03  0.59635538420E+03  0.00000000000E+00 0.  1.
         -3    1    6    6    0  503  0.24766782686E+03  0.13912651991E+03  0.68830269466E+03  0.74461811721E+03  0.00000000000E+00 0.  1.
<mgrwt>
<rscale>  0 0.24279214E+04</rscale>
<asrwt>0</asrwt>
<pdfrwt beam="1">  1        1 0.23829715E+00 0.24279214E+04</pdfrwt>
<pdfrwt beam="2">  1       -1 0.14637392E+00 0.24279214E+04</pdfrwt>
<totfact> 0.20155277E+00</totfact>
</mgrwt>
</event>
<event>
12    1  0.4672461E-008  0.1456141E+04  0.7818608E-02  0.8914154E-01
          2   -1    0    0  501    0  0.00000000000E+00  0.00000000000E+00  0.80436526615E+03  0.80436526615E+03  0.00000000000E+00 0.  1.
         -2   -1    0    0    0  501 -0.00000000000E+00 -0.00000000000E+00 -0.65901220346E+03  0.65901220346E+03  0.00000000000E+00 0. -1.
         23    2    1    2    0    0  0.19928435827E+03  0.33888553084E+03  0.25529755362E+03  0.47798874856E+03  0.93481251610E+02 0.  0.
        254    2    1    2    0    0 -0.19928435827E+03 -0.33888553084E+03 -0.10994449094E+03  0.98538872105E+03  0.89685309946E+03 0.  0.
         23    2    4    4    0    0 -0.39043527003E+03 -0.31990921324E+03  0.24789858769E+03  0.56929823231E+03  0.88685752659E+02 0.  0.
         23    2    4    4    0    0  0.19115091177E+03 -0.18976317604E+02 -0.35784307863E+03  0.41609048874E+03  0.90448074614E+02 0.  0.
         13    1    3    3    0    0  0.98985064704E+02  0.23771534367E+03  0.13091678981E+03  0.28886992489E+03  0.00000000000E+00 0. -1.
        -13    1    3    3    0    0  0.10029929356E+03  0.10117018717E+03  0.12438076381E+03  0.18911882367E+03  0.00000000000E+00 0.  1.
          1    1    5    5  502    0 -0.16487297488E+03 -0.16628395238E+03  0.15583632771E+03  0.28127995253E+03  0.00000000000E+00 0. -1.
          3    1    6    6  503    0 -0.78627484964E+01 -0.23886280887E+01 -0.39097636015E+02  0.39951889818E+02  0.00000000000E+00 0. -1.
         -1    1    5    5    0  502 -0.22556229515E+03 -0.15362526086E+03  0.92062259988E+02  0.28801827977E+03  0.00000000000E+00 0.  1.
         -3    1    6    6    0  503  0.19901366026E+03 -0.16587689515E+02 -0.31874544261E+03  0.37613859893E+03  0.00000000000E+00 0.  1.
<mgrwt>
<rscale>  0 0.14561408E+04</rscale>
<asrwt>0</asrwt>
<pdfrwt beam="1">  1        2 0.12374850E+00 0.14561408E+04</pdfrwt>
<pdfrwt beam="2">  1       -2 0.10138649E+00 0.14561408E+04</pdfrwt>
<totfact> 0.26503281E+01</totfact>
</mgrwt>
</event>
<event>
12    1  0.4672461E-008  0.2064098E+04  0.7818608E-02  0.8577225E-01
         -1   -1    0    0    0  501 -0.00000000000E+00  0.00000000000E+00  0.10688088512E+04  0.10688088512E+04  0.00000000000E+00 0.  1.
          1   -1    0    0  501    0  0.00000000000E+00 -0.00000000000E+00 -0.99655365376E+03  0.99655365376E+03  0.00000000000E+00 0. -1.
         23    2    1    2    0    0 -0.37327769617E+03  0.71646252641E+03  0.22904960819E+03  0.84526437321E+03  0.96712705393E+02 0.  0.
        254    2    1    2    0    0  0.37327769617E+03 -0.71646252641E+03 -0.15679441079E+03  0.12200981317E+04  0.90077753831E+03 0.  0.
         23    2    4    4    0    0  0.59361055145E+03 -0.27256133065E+03  0.77147252211E+02  0.66395031897E+03  0.90637529652E+02 0.  0.
         23    2    4    4    0    0 -0.22033285527E+03 -0.44390119576E+03 -0.23394166300E+03  0.55614781274E+03  0.94746235892E+02 0.  0.
         13    1    3    3    0    0  0.46828971544E+01  0.92429216213E+01 -0.24262434918E+01  0.10641794179E+02  0.00000000000E+00 0. -1.
        -13    1    3    3    0    0 -0.37796059333E+03  0.70721960479E+03  0.23147585168E+03  0.83462257903E+03  0.00000000000E+00 0.  1.
          2    1    5    5  502    0  0.15140310069E+03 -0.97210387994E+02  0.53277836816E+02  0.18764670615E+03  0.00000000000E+00 0.  1.
          3    1    6    6  503    0 -0.13660948544E+03 -0.35969893928E+03 -0.16333618700E+03  0.41800022538E+03  0.00000000000E+00 0. -1.
         -2    1    5    5    0  502  0.44220745076E+03 -0.17535094266E+03  0.23869415395E+02  0.47630361282E+03  0.00000000000E+00 0. -1.
         -3    1    6    6    0  503 -0.83723369834E+02 -0.84202256482E+02 -0.70605475999E+02  0.13814758736E+03  0.00000000000E+00 0.  1.
<mgrwt>
<rscale>  0 0.20640982E+04</rscale>
<asrwt>0</asrwt>
<pdfrwt beam="1">  1        1 0.15331595E+00 0.20640982E+04</pdfrwt>
<pdfrwt beam="2">  1       -1 0.16443213E+00 0.20640982E+04</pdfrwt>
<totfact> 0.38012663E+00</totfact>
</mgrwt>
</event>
<event>
12    1  0.4672461E-008  0.1691106E+04  0.7818608E-02  0.8766453E-01
          1   -1    0    0  501    0  0.00000000000E+00  0.00000000000E+00  0.65113570732E+03  0.65113570732E+03  0.00000000000E+00 0. -1.
         -1   -1    0    0    0  501 -0.00000000000E+00 -0.00000000000E+00 -0.10980199093E+04  0.10980199093E+04  0.00000000000E+00 0.  1.
         23    2    1    2    0    0 -0.47078216995E+03  0.36931175765E+03 -0.22644976062E+03  0.64606109865E+03  0.89935661545E+02 0.  0.
        254    2    1    2    0    0  0.47078216995E+03 -0.36931175765E+03 -0.22043444133E+03  0.11030945179E+04  0.90011063026E+03 0.  0.
         23    2    4    4    0    0  0.55117037360E+03 -0.52533805147E+03 -0.37341227595E+03  0.85329039233E+03  0.94334069967E+02 0.  0.
         23    2    4    4    0    0 -0.80388203647E+02  0.15602629382E+03  0.15297783463E+03  0.24980412561E+03  0.90517488023E+02 0.  0.
         13    1    3    3    0    0 -0.37328846104E+03  0.26986243106E+03 -0.13707358971E+03  0.48058212185E+03  0.00000000000E+00 0. -1.
        -13    1    3    3    0    0 -0.97493708919E+02  0.99449326585E+02 -0.89376170911E+02  0.16547897680E+03  0.00000000000E+00 0.  1.
          4    1    5    5  502    0  0.89491341541E+02 -0.93423435764E+02 -0.10431311945E+03  0.16618623725E+03  0.00000000000E+00 0. -1.
          1    1    6    6  503    0  0.19376728744E+02  0.38355714607E+02  0.28337863028E+02  0.51474779658E+02  0.00000000000E+00 0. -1.
         -4    1    5    5    0  502  0.46167903206E+03 -0.43191461570E+03 -0.26909915650E+03  0.68710415508E+03  0.00000000000E+00 0.  1.
         -1    1    6    6    0  503 -0.99764932391E+02  0.11767057921E+03  0.12463997160E+03  0.19832934595E+03  0.00000000000E+00 0.  1.
<mgrwt>
<rscale>  0 0.16911061E+04</rscale>
<asrwt>0</asrwt>
<pdfrwt beam="1">  1        1 0.10017473E+00 0.16911061E+04</pdfrwt>
<pdfrwt beam="2">  1       -1 0.16892614E+00 0.16911061E+04</pdfrwt>
<totfact> 0.72489505E+00</totfact>
</mgrwt>
</event>
<event>
12    1  0.4672461E-008  0.1644868E+04  0.7818608E-02  0.8793448E-01
         -1   -1    0    0    0  501 -0.00000000000E+00  0.00000000000E+00  0.90334220474E+03  0.90334220474E+03  0.00000000000E+00 0.  1.
          1   -1    0    0  501    0  0.00000000000E+00 -0.00000000000E+00 -0.74877265605E+03  0.74877265605E+03  0.00000000000E+00 0. -1.
         23    2    1    2    0    0  0.24219560262E+03  0.23221275494E+03 -0.47333057732E+03  0.58763357518E+03  0.93219685541E+02 0.  0.
        254    2    1    2    0    0 -0.24219560262E+03 -0.23221275494E+03  0.62790012601E+03  0.10644812856E+04  0.79137877511E+03 0.  0.
         23    2    4    4    0    0 -0.41916466073E+03 -0.13848749975E+03  0.59909410319E+02  0.45572369161E+03  0.96005964676E+02 0.  0.
         23    2    4    4    0    0  0.17696905811E+03 -0.93725255183E+02  0.56799071569E+03  0.60875759401E+03  0.88712367574E+02 0.  0.
         11    1    3    3    0    0  0.20725794177E+03  0.20100011191E+03 -0.45156796689E+03  0.53597623840E+03  0.00000000000E+00 0. -1.
        -11    1    3    3    0    0  0.34937660847E+02  0.31212643029E+02 -0.21762610435E+02  0.51657336781E+02  0.00000000000E+00 0.  1.
          4    1    5    5  502    0 -0.92983439583E+02 -0.14784981930E+02 -0.23501009241E+02  0.97040265677E+02  0.00000000000E+00 0.  1.
          1    1    6    6  503    0  0.79125476370E+02 -0.90498060150E+02  0.34049996031E+03  0.36109688848E+03  0.00000000000E+00 0.  1.
         -4    1    5    5    0  502 -0.32618122115E+03 -0.12370251782E+03  0.83410419560E+02  0.35868342593E+03  0.00000000000E+00 0. -1.
         -1    1    6    6    0  503  0.97843581741E+02 -0.32271950330E+01  0.22749075538E+03  0.24766070552E+03  0.00000000000E+00 0. -1.
<mgrwt>
<rscale>  0 0.16448683E+04</rscale>
<asrwt>0</asrwt>
<pdfrwt beam="1">  1        1 0.11519579E+00 0.16448683E+04</pdfrwt>
<pdfrwt beam="2">  1       -1 0.13897572E+00 0.16448683E+04</pdfrwt>
<totfact> 0.10031962E+01</totfact>
</mgrwt>
</event>
<event>
12    1  0.4672461E-008  0.1279929E+04  0.7818608E-02  0.9045635E-01
         -2   -1    0    0    0  501 -0.00000000000E+00  0.00000000000E+00  0.37181290393E+03  0.37181290393E+03  0.00000000000E+00 0.  1.
          2   -1    0    0  501    0  0.00000000000E+00 -0.00000000000E+00 -0.11015077523E+04  0.11015077523E+04  0.00000000000E+00 0. -1.
         23    2    1    2    0    0 -0.73062509157E+02  0.22109929564E+03 -0.42624750757E+03  0.49434392521E+03  0.92010596691E+02 0.  0.
        254    2    1    2    0    0  0.73062509157E+02 -0.22109929564E+03 -0.30344734080E+03  0.97897673102E+03  0.90116154072E+03 0.  0.
         23    2    4    4    0    0  0.61956802764E+02 -0.28835605383E+02 -0.60134164764E+03  0.61198851557E+03  0.90818657037E+02 0.  0.
         23    2    4    4    0    0  0.11105706393E+02 -0.19226369026E+03  0.29789430684E+03  0.36698821545E+03  0.94077993839E+02 0.  0.
         11    1    3    3    0    0  0.75333713426E+01  0.10896452148E+03 -0.15058673441E+03  0.18602790975E+03  0.00000000000E+00 0.  1.
        -11    1    3    3    0    0 -0.80595880500E+02  0.11213477416E+03 -0.27566077316E+03  0.30831601546E+03  0.00000000000E+00 0. -1.
          2    1    5    5  502    0 -0.49498043152E+01 -0.11004256490E+02 -0.76812127324E+01  0.14303679691E+02  0.00000000000E+00 0. -1.
          1    1    6    6  503    0 -0.34704234628E+01 -0.92550421007E+02  0.64773525491E+02  0.11301873239E+03  0.00000000000E+00 0. -1.
         -2    1    5    5    0  502  0.66906607080E+02 -0.17831348893E+02 -0.59366043490E+03  0.59768483588E+03  0.00000000000E+00 0.  1.
         -1    1    6    6    0  503  0.14576129856E+02 -0.99713269252E+02  0.23312078135E+03  0.25396948306E+03  0.00000000000E+00 0.  1.
<mgrwt>
<rscale>  0 0.12799294E+04</rscale>
<asrwt>0</asrwt>
<pdfrwt beam="1">  1        2 0.16946273E+00 0.12799294E+04</pdfrwt>
<pdfrwt beam="2">  1       -2 0.57201985E-01 0.12799294E+04</pdfrwt>
<totfact> 0.61112674E+01</totfact>
</mgrwt>
</event>
<event>
12    1  0.4672461E-008  0.1425882E+04  0.7818608E-02  0.8935294E-01
         -2   -1    0    0    0  501 -0.00000000000E+00  0.00000000000E+00  0.20070452574E+03  0.20070452574E+03  0.00000000000E+00 0.  1.
          2   -1    0    0  501    0  0.00000000000E+00 -0.00000000000E+00 -0.25325048718E+04  0.25325048718E+04  0.00000000000E+00 0. -1.
         23    2    1    2    0    0  0.21896717096E+03  0.10807485237E+03 -0.11171448945E+04  0.11471366526E+04  0.91010927040E+02 0.  0.
        254    2    1    2    0    0 -0.21896717096E+03 -0.10807485237E+03 -0.12146554516E+04  0.15860727449E+04  0.99025859775E+03 0.  0.
         23    2    4    4    0    0 -0.47308131391E+03  0.25783980926E+03 -0.51028844925E+03  0.74771472595E+03  0.91628124256E+02 0.  0.
         23    2    4    4    0    0  0.25411414294E+03 -0.36591466162E+03 -0.70436700230E+03  0.83835801894E+03  0.90795136187E+02 0.  0.
         11    1    3    3    0    0  0.73991295109E+02  0.66468951466E+02 -0.60938995723E+03  0.61745360411E+03  0.00000000000E+00 0. -1.
        -11    1    3    3    0    0  0.14497587585E+03  0.41605900901E+02 -0.50775493726E+03  0.52968304851E+03  0.00000000000E+00 0.  1.
          2    1    5    5  502    0 -0.39299034527E+01  0.14542839146E+02 -0.34160046455E+01  0.15446922001E+02  0.00000000000E+00 0. -1.
          3    1    6    6  503    0  0.86119328080E+02 -0.58372033530E+02 -0.15141778114E+03  0.18371493519E+03  0.00000000000E+00 0. -1.
         -2    1    5    5    0  502 -0.46915141046E+03  0.24329697011E+03 -0.50687244460E+03  0.73226780394E+03  0.00000000000E+00 0.  1.
         -3    1    6    6    0  503  0.16799481486E+03 -0.30754262809E+03 -0.55294922116E+03  0.65464308375E+03  0.00000000000E+00 0.  1.
<mgrwt>
<rscale>  0 0.14258824E+04</rscale>
<asrwt>0</asrwt>
<pdfrwt beam="1">  1        2 0.38961615E+00 0.14258824E+04</pdfrwt>
<pdfrwt beam="2">  1       -2 0.30877618E-01 0.14258824E+04</pdfrwt>
<totfact> 0.31574171E+01</totfact>
</mgrwt>
</event>
<event>
12    1  0.4672461E-008  0.1947226E+04  0.7818608E-02  0.8631700E-01
          2   -1    0    0  501    0  0.00000000000E+00  0.00000000000E+00  0.93485263750E+03  0.93485263750E+03  0.00000000000E+00 0. -1.
         -2   -1    0    0    0  501 -0.00000000000E+00 -0.00000000000E+00 -0.10139802690E+04  0.10139802690E+04  0.00000000000E+00 0.  1.
         23    2    1    2    0    0 -0.86038148373E+01 -0.16608430146E+03 -0.78391430472E+03  0.80629812324E+03  0.89089873538E+02 0.  0.
        254    2    1    2    0    0  0.86038148373E+01  0.16608430146E+03  0.70478667326E+03  0.11425347832E+04  0.88374399872E+03 0.  0.
         23    2    4    4    0    0  0.25897725259E+03 -0.26472560650E+03  0.39641850760E+03  0.54974171520E+03  0.88991326403E+02 0.  0.
         23    2    4    4    0    0 -0.25037343775E+03  0.43080990796E+03  0.30836816566E+03  0.59279306803E+03  0.89602794519E+02 0.  0.
         13    1    3    3    0    0  0.70073380212E+01 -0.15076246735E+03 -0.75556326171E+03  0.77048962796E+03  0.00000000000E+00 0.  1.
        -13    1    3    3    0    0 -0.15611152858E+02 -0.15321834114E+02 -0.28351043008E+02  0.35808495274E+02  0.00000000000E+00 0. -1.
          4    1    5    5  502    0  0.12778628823E+03 -0.18461688119E+03  0.26651888649E+03  0.34848966288E+03  0.00000000000E+00 0.  1.
          4    1    6    6  503    0 -0.23680766848E+02  0.96368388070E+01  0.29861815859E+02  0.39311263361E+02  0.00000000000E+00 0. -1.
         -4    1    5    5    0  502  0.13119096436E+03 -0.80108725311E+02  0.12989962111E+03  0.20125205232E+03  0.00000000000E+00 0. -1.
         -4    1    6    6    0  503 -0.22669267090E+03  0.42117306915E+03  0.27850634980E+03  0.55348180467E+03  0.00000000000E+00 0.  1.
<mgrwt>
<rscale>  0 0.19472259E+04</rscale>
<asrwt>0</asrwt>
<pdfrwt beam="1">  1        2 0.14382348E+00 0.19472259E+04</pdfrwt>
<pdfrwt beam="2">  1       -2 0.15599697E+00 0.19472259E+04</pdfrwt>
<totfact> 0.69930235E+00</totfact>
</mgrwt>
</event>
<event>
12    1  0.4672461E-008  0.1088368E+04  0.7818608E-02  0.9216604E-01
         -1   -1    0    0    0  501 -0.00000000000E+00  0.00000000000E+00  0.28974896570E+03  0.28974896570E+03  0.00000000000E+00 0.  1.
          1   -1    0    0  501    0  0.00000000000E+00 -0.00000000000E+00 -0.10220437758E+04  0.10220437758E+04  0.00000000000E+00 0. -1.
         23    2    1    2    0    0  0.64276770909E+01  0.40083325177E+02  0.53716534310E+02  0.11354534921E+03  0.91428071613E+02 0.  0.
        254    2    1    2    0    0 -0.64276770909E+01 -0.40083325177E+02 -0.78601134443E+03  0.11982473923E+04  0.90351258520E+03 0.  0.
         23    2    4    4    0    0  0.19130472649E+03 -0.22223230108E+03 -0.85183024770E+03  0.90632952395E+03  0.99165221055E+02 0.  0.
         23    2    4    4    0    0 -0.19773240358E+03  0.18214897590E+03  0.65818903268E+02  0.29191786836E+03  0.92776942123E+02 0.  0.
         11    1    3    3    0    0  0.48551114754E+01  0.69802431396E+02  0.33574271540E+02  0.77609169855E+02  0.00000000000E+00 0. -1.
        -11    1    3    3    0    0  0.15725656155E+01 -0.29719106219E+02  0.20142262770E+02  0.35936179354E+02  0.00000000000E+00 0.  1.
          4    1    6    6  502    0 -0.20747967021E+02  0.73598713755E+02  0.23816933177E+02  0.80090543187E+02  0.00000000000E+00 0. -1.
          4    1    5    5  503    0 -0.93807202819E+01 -0.30698748387E+02 -0.92210554830E+02  0.97638094449E+02  0.00000000000E+00 0. -1.
         -4    1    5    5    0  503  0.20068544678E+03 -0.19153355269E+03 -0.75961969287E+03  0.80869142950E+03  0.00000000000E+00 0.  1.
         -4    1    6    6    0  502 -0.17698443656E+03  0.10855026215E+03  0.42001970091E+02  0.21182732517E+03  0.00000000000E+00 0.  1.
<mgrwt>
<rscale>  0 0.10883678E+04</rscale>
<asrwt>0</asrwt>
<pdfrwt beam="1">  1        1 0.15723750E+00 0.10883678E+04</pdfrwt>
<pdfrwt beam="2">  1       -1 0.44576764E-01 0.10883678E+04</pdfrwt>
<totfact> 0.72253811E+01</totfact>
</mgrwt>
</event>
<event>
12    1  0.4672461E-008  0.1125226E+04  0.7818608E-02  0.9180948E-01
         -2   -1    0    0    0  501 -0.00000000000E+00  0.00000000000E+00  0.10002933266E+03  0.10002933266E+03  0.00000000000E+00 0.  1.
          2   -1    0    0  501    0  0.00000000000E+00 -0.00000000000E+00 -0.31644047471E+04  0.31644047471E+04  0.00000000000E+00 0. -1.
         23    2    1    2    0    0 -0.83381874736E+02 -0.14296344094E+03 -0.81723136024E+03  0.83881652435E+03  0.91405595463E+02 0.  0.
        254    2    1    2    0    0  0.83381874736E+02  0.14296344094E+03 -0.22471440542E+04  0.24256175554E+04  0.89809411663E+03 0.  0.
         23    2    4    4    0    0  0.44086630962E+03  0.10930704850E+03 -0.17242175276E+04  0.17853311472E+04  0.90388544514E+02 0.  0.
         23    2    4    4    0    0 -0.35748443488E+03  0.33656392444E+02 -0.52292652659E+03  0.64028640817E+03  0.87101425616E+02 0.  0.
         11    1    3    3    0    0  0.83246890044E+01  0.83753390294E+01 -0.40740378666E+02  0.42417274839E+02  0.00000000000E+00 0.  1.
        -11    1    3    3    0    0 -0.91706563740E+02 -0.15133877997E+03 -0.77649098158E+03  0.79639924952E+03  0.00000000000E+00 0. -1.
          1    1    5    5  502    0  0.23280337878E+03  0.10097796206E+03 -0.88458489398E+03  0.92026322140E+03  0.00000000000E+00 0. -1.
          3    1    6    6  503    0 -0.27304013252E+03 -0.12332017197E+02 -0.38833686225E+03  0.47487736437E+03  0.00000000000E+00 0. -1.
         -1    1    5    5    0  502  0.20806293084E+03  0.83290864342E+01 -0.83963263362E+03  0.86506792584E+03  0.00000000000E+00 0.  1.
         -3    1    6    6    0  503 -0.84444302365E+02  0.45988409640E+02 -0.13458966434E+03  0.16540904380E+03  0.00000000000E+00 0.  1.
<mgrwt>
<rscale>  0 0.11252258E+04</rscale>
<asrwt>0</asrwt>
<pdfrwt beam="1">  1        2 0.48683143E+00 0.11252258E+04</pdfrwt>
<pdfrwt beam="2">  1       -2 0.15389130E-01 0.11252258E+04</pdfrwt>
<totfact> 0.46576380E+01</totfact>
</mgrwt>
</event>
<event>
12    1  0.4672461E-008  0.2425867E+04  0.7818608E-02  0.8429882E-01
          1   -1    0    0  501    0  0.00000000000E+00  0.00000000000E+00  0.10938861453E+04  0.10938861453E+04  0.00000000000E+00 0. -1.
         -1   -1    0    0    0  501 -0.00000000000E+00 -0.00000000000E+00 -0.13449370824E+04  0.13449370824E+04  0.00000000000E+00 0.  1.
         23    2    1    2    0    0  0.51793160842E+03 -0.84433247895E+02  0.74974379771E+03  0.91889975756E+03  0.82939000995E+02 0.  0.
        254    2    1    2    0    0 -0.51793160842E+03  0.84433247895E+02 -0.10007947348E+04  0.15199234701E+04  0.10164620650E+04 0.  0.
         23    2    4    4    0    0 -0.48658291415E+03  0.50811953486E+03 -0.63035607410E+03  0.94898929642E+03  0.91013793008E+02 0.  0.
         23    2    4    4    0    0 -0.31348694267E+02 -0.42368628696E+03 -0.37043866070E+03  0.57093417371E+03  0.90819705865E+02 0.  0.
         11    1    3    3    0    0  0.19837973992E+03 -0.14717557191E+02  0.34811476390E+03  0.40094265992E+03  0.00000000000E+00 0. -1.
        -11    1    3    3    0    0  0.31955186850E+03 -0.69715690705E+02  0.40162903381E+03  0.51795709763E+03  0.00000000000E+00 0.  1.
          2    1    5    5  502    0 -0.44786967036E+03  0.43220638612E+03 -0.53139234819E+03  0.81839319984E+03  0.00000000000E+00 0. -1.
          1    1    6    6  503    0 -0.24663599566E+02 -0.30796780879E+03 -0.21230174724E+03  0.37486597109E+03  0.00000000000E+00 0. -1.
         -2    1    5    5    0  502 -0.38713243798E+02  0.75913148741E+02 -0.98963725910E+02  0.13059609658E+03  0.00000000000E+00 0.  1.
         -1    1    6    6    0  503 -0.66850947007E+01 -0.11571847817E+03 -0.15813691346E+03  0.19606820262E+03  0.00000000000E+00 0.  1.
<mgrwt>
<rscale>  0 0.24258673E+04</rscale>
<asrwt>0</asrwt>
<pdfrwt beam="1">  1        1 0.16829017E+00 0.24258673E+04</pdfrwt>
<pdfrwt beam="2">  1       -1 0.20691340E+00 0.24258673E+04</pdfrwt>
<totfact> 0.15459346E+00</totfact>
</mgrwt>
</event>
<event>
12    1  0.4672461E-008  0.1724367E+04  0.7818608E-02  0.8747588E-01
          2   -1    0    0  501    0  0.00000000000E+00  0.00000000000E+00  0.17283256633E+04  0.17283256633E+04  0.00000000000E+00 0. -1.
         -2   -1    0    0    0  501 -0.00000000000E+00 -0.00000000000E+00 -0.43010448819E+03  0.43010448819E+03  0.00000000000E+00 0.  1.
         23    2    1    2    0    0  0.14875341995E+03  0.14316602856E+03 -0.26338850169E+03  0.34709473382E+03  0.92071492539E+02 0.  0.
        254    2    1    2    0    0 -0.14875341995E+03 -0.14316602856E+03  0.15616096768E+04  0.18113354177E+04  0.89425226922E+03 0.  0.
         23    2    4    4    0    0 -0.15513453720E+03  0.36189183811E+03  0.70099854445E+03  0.80924237254E+03  0.91879437742E+02 0.  0.
         23    2    4    4    0    0  0.63811172439E+01 -0.50505786667E+03  0.86061113239E+03  0.10020930452E+04  0.91732124468E+02 0.  0.
         11    1    3    3    0    0  0.10367724938E+03  0.64024559035E+02 -0.90850344870E+02  0.15199309643E+03  0.00000000000E+00 0. -1.
        -11    1    3    3    0    0  0.45076170571E+02  0.79141469526E+02 -0.17253815682E+03  0.19510163739E+03  0.00000000000E+00 0.  1.
          1    1    5    5  502    0 -0.13281493181E+03  0.31956329158E+03  0.66394421810E+03  0.74872052742E+03  0.00000000000E+00 0. -1.
          3    1    6    6  503    0 -0.37151833941E+02 -0.34079941755E+03  0.55200759326E+03  0.64979757216E+03  0.00000000000E+00 0. -1.
         -1    1    5    5    0  502 -0.22319605383E+02  0.42328546524E+02  0.37054326351E+02  0.60521845119E+02  0.00000000000E+00 0.  1.
         -3    1    6    6    0  503  0.43532951185E+02 -0.16425844912E+03  0.30860353913E+03  0.35229547302E+03  0.00000000000E+00 0.  1.
<mgrwt>
<rscale>  0 0.17243673E+04</rscale>
<asrwt>0</asrwt>
<pdfrwt beam="1">  1        2 0.26589625E+00 0.17243673E+04</pdfrwt>
<pdfrwt beam="2">  1       -2 0.66169922E-01 0.17243673E+04</pdfrwt>
<totfact> 0.18867015E+01</totfact>
</mgrwt>
</event>
<event>
12    1  0.4672461E-008  0.1437092E+04  0.7818608E-02  0.8927399E-01
         -2   -1    0    0    0  501 -0.00000000000E+00  0.00000000000E+00  0.21137950646E+03  0.21137950646E+03  0.00000000000E+00 0.  1.
          2   -1    0    0  501    0  0.00000000000E+00 -0.00000000000E+00 -0.24425660136E+04  0.24425660136E+04  0.00000000000E+00 0. -1.
         23    2    1    2    0    0  0.18080545405E+03  0.19080294224E+03 -0.13303596590E+04  0.13591916042E+04  0.91916373121E+02 0.  0.
        254    2    1    2    0    0 -0.18080545405E+03 -0.19080294224E+03 -0.90082684812E+03  0.12947539158E+04  0.89207752876E+03 0.  0.
         23    2    4    4    0    0  0.35357378368E+03 -0.37962664269E+02 -0.38127640704E+03  0.52860656139E+03  0.87164291963E+02 0.  0.
         23    2    4    4    0    0 -0.53437923773E+03 -0.15284027797E+03 -0.51955044108E+03  0.76614735445E+03  0.90154243514E+02 0.  0.
         11    1    3    3    0    0  0.38553147860E+02  0.71042874836E+02 -0.60501496208E+03  0.61039048126E+03  0.00000000000E+00 0. -1.
        -11    1    3    3    0    0  0.14225230619E+03  0.11976006740E+03 -0.72534469692E+03  0.74880112293E+03  0.00000000000E+00 0.  1.
          4    1    5    5  502    0  0.29529718331E+03 -0.39371678809E+02 -0.35824214365E+03  0.46592702116E+03  0.00000000000E+00 0. -1.
          1    1    6    6  503    0 -0.34743045555E+03 -0.58112690188E+02 -0.34999206131E+03  0.49656766829E+03  0.00000000000E+00 0. -1.
         -4    1    5    5    0  502  0.58276600376E+02  0.14090145400E+01 -0.23034263389E+02  0.62679540228E+02  0.00000000000E+00 0.  1.
         -1    1    6    6    0  503 -0.18694878218E+03 -0.94727587780E+02 -0.16955837977E+03  0.26957968617E+03  0.00000000000E+00 0.  1.
<mgrwt>
<rscale>  0 0.14370921E+04</rscale>
<asrwt>0</asrwt>
<pdfrwt beam="1">  1        2 0.37577940E+00 0.14370921E+04</pdfrwt>
<pdfrwt beam="2">  1       -2 0.32519923E-01 0.14370921E+04</pdfrwt>
<totfact> 0.32233620E+01</totfact>
</mgrwt>
</event>
<event>
12    1  0.4672461E-008  0.3231480E+04  0.7818608E-02  0.8180552E-01
         -1   -1    0    0    0  501 -0.00000000000E+00  0.00000000000E+00  0.89003971107E+03  0.89003971107E+03  0.00000000000E+00 0.  1.
          1   -1    0    0  501    0  0.00000000000E+00 -0.00000000000E+00 -0.29331458047E+04  0.29331458047E+04  0.00000000000E+00 0. -1.
         23    2    1    2    0    0  0.25917776940E+01 -0.14835423258E+04 -0.10850768618E+04  0.18402646404E+04  0.90981320759E+02 0.  0.
        254    2    1    2    0    0 -0.25917776940E+01  0.14835423258E+04 -0.95802923182E+03  0.19829208754E+04  0.90180410243E+03 0.  0.
         23    2    4    4    0    0  0.33924565603E+03  0.73618801716E+03 -0.15603213395E+03  0.83035791326E+03  0.89932338649E+02 0.  0.
         23    2    4    4    0    0 -0.34183743372E+03  0.74735430869E+03 -0.80199709787E+03  0.11525629621E+04  0.99049194376E+02 0.  0.
         11    1    3    3    0    0  0.24926342513E+02 -0.52121345901E+03 -0.33703528974E+03  0.62119045303E+03  0.00000000000E+00 0. -1.
        -11    1    3    3    0    0 -0.22334564819E+02 -0.96232886684E+03 -0.74804157209E+03  0.12190741874E+04  0.00000000000E+00 0.  1.
          1    1    5    5  502    0  0.91830322829E+02  0.12530271507E+03 -0.12715900862E+02  0.15586940921E+03  0.00000000000E+00 0. -1.
          3    1    6    6  503    0 -0.50089030739E+02  0.94301553488E+02 -0.62372866923E+02  0.12366110350E+03  0.00000000000E+00 0. -1.
         -1    1    5    5    0  502  0.24741533320E+03  0.61088530210E+03 -0.14331623309E+03  0.67448850404E+03  0.00000000000E+00 0.  1.
         -3    1    6    6    0  503 -0.29174840298E+03  0.65305275520E+03 -0.73962423095E+03  0.10289018586E+04  0.00000000000E+00 0.  1.
<mgrwt>
<rscale>  0 0.32314803E+04</rscale>
<asrwt>0</asrwt>
<pdfrwt beam="1">  1        1 0.45125321E+00 0.32314803E+04</pdfrwt>
<pdfrwt beam="2">  1       -1 0.13692918E+00 0.32314803E+04</pdfrwt>
<totfact> 0.24755742E-01</totfact>
</mgrwt>
</event>
<event>
12    1  0.4672461E-008  0.1476452E+04  0.7818608E-02  0.8900265E-01
         -2   -1    0    0    0  501 -0.00000000000E+00  0.00000000000E+00  0.41790722502E+03  0.41790722502E+03  0.00000000000E+00 0.  1.
          2   -1    0    0  501    0  0.00000000000E+00 -0.00000000000E+00 -0.13040637188E+04  0.13040637188E+04  0.00000000000E+00 0. -1.
         23    2    1    2    0    0  0.18559682351E+03 -0.31544979789E+03  0.44759411007E+02  0.37947010596E+03  0.89662704400E+02 0.  0.
        254    2    1    2    0    0 -0.18559682351E+03  0.31544979789E+03 -0.93091590475E+03  0.13425008378E+04  0.89540455768E+03 0.  0.
         23    2    4    4    0    0  0.21333984758E+03 -0.18739220485E+03 -0.42878334698E+03  0.52235654626E+03  0.91495758228E+02 0.  0.
         23    2    4    4    0    0 -0.39893667109E+03  0.50284200274E+03 -0.50213255777E+03  0.82014429155E+03  0.92190054364E+02 0.  0.
         11    1    3    3    0    0  0.17704840895E+03 -0.29328042961E+03  0.17097007399E+02  0.34300416494E+03  0.00000000000E+00 0.  1.
        -11    1    3    3    0    0  0.85484145597E+01 -0.22169368283E+02  0.27662403608E+02  0.36465941026E+02  0.00000000000E+00 0. -1.
          4    1    5    5  502    0  0.63100757191E+02 -0.11357714575E+03 -0.20885074919E+03  0.24596769917E+03  0.00000000000E+00 0. -1.
          3    1    6    6  503    0 -0.63820916532E+02  0.13712117935E+03 -0.96916987389E+02  0.17963359835E+03  0.00000000000E+00 0. -1.
         -4    1    5    5    0  502  0.15023909039E+03 -0.73815059102E+02 -0.21993259779E+03  0.27638884710E+03  0.00000000000E+00 0.  1.
         -3    1    6    6    0  503 -0.33511575456E+03  0.36572082339E+03 -0.40521557038E+03  0.64051069319E+03  0.00000000000E+00 0.  1.
<mgrwt>
<rscale>  0 0.14764520E+04</rscale>
<asrwt>0</asrwt>
<pdfrwt beam="1">  1        2 0.20062518E+00 0.14764520E+04</pdfrwt>
<pdfrwt beam="2">  1       -2 0.64293420E-01 0.14764520E+04</pdfrwt>
<totfact> 0.35566641E+01</totfact>
</mgrwt>
</event>
<event>
12    1  0.4672461E-008  0.1417772E+04  0.7818608E-02  0.8941054E-01
          3   -1    0    0  501    0  0.00000000000E+00  0.00000000000E+00  0.58374219924E+03  0.58374219924E+03  0.00000000000E+00 0. -1.
         -3   -1    0    0    0  501 -0.00000000000E+00 -0.00000000000E+00 -0.86085819051E+03  0.86085819051E+03  0.00000000000E+00 0.  1.
         23    2    1    2    0    0 -0.13461180478E+03  0.38903638230E+03  0.65791154433E+01  0.42083739351E+03  0.87127391058E+02 0.  0.
        254    2    1    2    0    0  0.13461180478E+03 -0.38903638230E+03 -0.28369510671E+03  0.10237629962E+04  0.89338575888E+03 0.  0.
         23    2    4    4    0    0 -0.13045321041E+03  0.11322840036E+03  0.19314926649E+03  0.27644692440E+03  0.96320050395E+02 0.  0.
         23    2    4    4    0    0  0.26506501519E+03 -0.50226478267E+03 -0.47684437319E+03  0.74731607185E+03  0.92581752057E+02 0.  0.
         11    1    3    3    0    0 -0.56230534879E+02  0.21238102284E+03 -0.36815434090E+02  0.22276208857E+03  0.00000000000E+00 0.  1.
        -11    1    3    3    0    0 -0.78381269897E+02  0.17665535946E+03  0.43394549533E+02  0.19807530494E+03  0.00000000000E+00 0. -1.
          2    1    5    5  502    0  0.79068152424E+00  0.19169803223E+01 -0.99955014449E+01  0.10208331889E+02  0.00000000000E+00 0. -1.
          1    1    6    6  503    0  0.12280618844E+01 -0.49970938192E+01 -0.24873040442E+02  0.25399748492E+02  0.00000000000E+00 0. -1.
         -2    1    5    5    0  502 -0.13124389194E+03  0.11131142004E+03  0.20314476793E+03  0.26623859251E+03  0.00000000000E+00 0.  1.
         -1    1    6    6    0  503  0.26383695331E+03 -0.49726768885E+03 -0.45197133275E+03  0.72191632336E+03  0.00000000000E+00 0.  1.
<mgrwt>
<rscale>  0 0.14177718E+04</rscale>
<asrwt>0</asrwt>
<pdfrwt beam="1">  1        3 0.89806492E-01 0.14177718E+04</pdfrwt>
<pdfrwt beam="2">  1       -3 0.13243972E+00 0.14177718E+04</pdfrwt>
<totfact> 0.12649877E+00</totfact>
</mgrwt>
</event>
<event>
12    1  0.4672461E-008  0.1041464E+04  0.7818608E-02  0.9264202E-01
         -1   -1    0    0    0  501 -0.00000000000E+00  0.00000000000E+00  0.31069941370E+03  0.31069941370E+03  0.00000000000E+00 0.  1.
          1   -1    0    0  501    0  0.00000000000E+00 -0.00000000000E+00 -0.87274571686E+03  0.87274571686E+03  0.00000000000E+00 0. -1.
         23    2    1    2    0    0  0.11084647058E+02 -0.90897712124E+02 -0.11316373237E+03  0.17060964651E+03  0.88973915783E+02 0.  0.
        254    2    1    2    0    0 -0.11084647058E+02  0.90897712124E+02 -0.44888257080E+03  0.10128354840E+04  0.90330221516E+03 0.  0.
         23    2    4    4    0    0 -0.10350603171E+03 -0.26788600698E+03 -0.54233001372E+03  0.62029132781E+03  0.90349744012E+02 0.  0.
         23    2    4    4    0    0  0.92421384657E+02  0.35878371910E+03  0.93447442919E+02  0.39254415623E+03  0.89950100446E+02 0.  0.
         13    1    3    3    0    0  0.41761210960E+02 -0.15756496658E+02 -0.26653559799E+02  0.51987288617E+02  0.00000000000E+00 0.  1.
        -13    1    3    3    0    0 -0.30676563903E+02 -0.75141215466E+02 -0.86510172570E+02  0.11862235790E+03  0.00000000000E+00 0. -1.
          2    1    5    5  502    0  0.53292315451E+01 -0.10281112316E+03 -0.20090428651E+03  0.22574556494E+03  0.00000000000E+00 0. -1.
          1    1    6    6  503    0  0.30485326461E+02  0.27682094026E+03  0.66003274061E+02  0.28620904997E+03  0.00000000000E+00 0. -1.
         -2    1    5    5    0  502 -0.10883526326E+03 -0.16507488382E+03 -0.34142572721E+03  0.39454576287E+03  0.00000000000E+00 0.  1.
         -1    1    6    6    0  503  0.61936058196E+02  0.81962778840E+02  0.27444168858E+02  0.10633510626E+03  0.00000000000E+00 0.  1.
<mgrwt>
<rscale>  0 0.10414636E+04</rscale>
<asrwt>0</asrwt>
<pdfrwt beam="1">  1        1 0.13426857E+00 0.10414636E+04</pdfrwt>
<pdfrwt beam="2">  1       -1 0.47799910E-01 0.10414636E+04</pdfrwt>
<totfact> 0.83767782E+01</totfact>
</mgrwt>
</event>
<event>
12    1  0.4672461E-008  0.1858983E+04  0.7818608E-02  0.8675547E-01
         -2   -1    0    0    0  501 -0.00000000000E+00  0.00000000000E+00  0.36828524437E+03  0.36828524437E+03  0.00000000000E+00 0.  1.
          2   -1    0    0  501    0  0.00000000000E+00 -0.00000000000E+00 -0.23458835801E+04  0.23458835801E+04  0.00000000000E+00 0. -1.
         23    2    1    2    0    0 -0.44619167545E+03 -0.45291698751E+03 -0.31518710995E+03  0.71529666341E+03  0.89919928740E+02 0.  0.
        254    2    1    2    0    0  0.44619167545E+03  0.45291698751E+03 -0.16624112258E+04  0.19988721611E+04  0.90975712357E+03 0.  0.
         23    2    4    4    0    0  0.32886900862E+03 -0.94180022586E+02 -0.15191810071E+03  0.38545282574E+03  0.92032983521E+02 0.  0.
         23    2    4    4    0    0  0.11732266682E+03  0.54709701010E+03 -0.15104931251E+04  0.16134193353E+04  0.91938697702E+02 0.  0.
         13    1    3    3    0    0 -0.12468014246E+03 -0.10446742499E+03 -0.12201368605E+03  0.20333696268E+03  0.00000000000E+00 0. -1.
        -13    1    3    3    0    0 -0.32151153299E+03 -0.34844956252E+03 -0.19317342390E+03  0.51195970073E+03  0.00000000000E+00 0.  1.
          3    1    6    6  502    0  0.63781122276E+02  0.45334192630E+03 -0.11777733369E+04  0.12636205787E+04  0.00000000000E+00 0. -1.
          3    1    5    5  503    0  0.27846196465E+03 -0.75178365275E+02 -0.87359598336E+02  0.30137111969E+03  0.00000000000E+00 0. -1.
         -3    1    5    5    0  503  0.50407043978E+02 -0.19001657311E+02 -0.64558502374E+02  0.84081706048E+02  0.00000000000E+00 0.  1.
         -3    1    6    6    0  502  0.53541544546E+02  0.93755083796E+02 -0.33271978816E+03  0.34979875666E+03  0.00000000000E+00 0.  1.
<mgrwt>
<rscale>  0 0.18589828E+04</rscale>
<asrwt>0</asrwt>
<pdfrwt beam="1">  1        2 0.36090517E+00 0.18589828E+04</pdfrwt>
<pdfrwt beam="2">  1       -2 0.56659269E-01 0.18589828E+04</pdfrwt>
<totfact> 0.11726786E+01</totfact>
</mgrwt>
</event>
<event>
12    1  0.4672461E-008  0.1675928E+04  0.7818608E-02  0.8775214E-01
          1   -1    0    0  501    0  0.00000000000E+00  0.00000000000E+00  0.73229220910E+03  0.73229220910E+03  0.00000000000E+00 0. -1.
         -1   -1    0    0    0  501 -0.00000000000E+00 -0.00000000000E+00 -0.95888419682E+03  0.95888419682E+03  0.00000000000E+00 0.  1.
         23    2    1    2    0    0  0.17663317243E+03 -0.47162547946E+03 -0.41288498688E+03  0.65757301237E+03  0.91095464940E+02 0.  0.
        254    2    1    2    0    0 -0.17663317243E+03  0.47162547946E+03  0.18629299916E+03  0.10336033935E+04  0.88317666587E+03 0.  0.
         23    2    4    4    0    0 -0.29747356467E+03  0.15805023020E+03  0.46858872320E+03  0.58519235721E+03  0.96975803587E+02 0.  0.
         23    2    4    4    0    0  0.12084039224E+03  0.31357524926E+03 -0.28229572403E+03  0.44841103634E+03  0.91922491051E+02 0.  0.
         13    1    3    3    0    0  0.15424959434E+03 -0.43929988983E+03 -0.34635240392E+03  0.58029071874E+03  0.00000000000E+00 0.  1.
        -13    1    3    3    0    0  0.22383578092E+02 -0.32325589627E+02 -0.66532582966E+02  0.77282293633E+02  0.00000000000E+00 0. -1.
          2    1    5    5  502    0 -0.28226200399E+03  0.16641505731E+03  0.41441088200E+03  0.52830122971E+03  0.00000000000E+00 0.  1.
          1    1    6    6  503    0  0.31661353033E+02  0.42004137025E+02 -0.88894830845E+02  0.10329123755E+03  0.00000000000E+00 0. -1.
         -2    1    5    5    0  502 -0.15211560685E+02 -0.83648271085E+01  0.54177841198E+02  0.56891127497E+02  0.00000000000E+00 0. -1.
         -1    1    6    6    0  503  0.89179039207E+02  0.27157111223E+03 -0.19340089319E+03  0.34511979879E+03  0.00000000000E+00 0.  1.
<mgrwt>
<rscale>  0 0.16759277E+04</rscale>
<asrwt>0</asrwt>
<pdfrwt beam="1">  1        1 0.11266034E+00 0.16759277E+04</pdfrwt>
<pdfrwt beam="2">  1       -1 0.14752065E+00 0.16759277E+04</pdfrwt>
<totfact> 0.88456901E+00</totfact>
</mgrwt>
</event>
<event>
12    1  0.4672461E-008  0.2903203E+04  0.7818608E-02  0.8271925E-01
          2   -1    0    0  501    0  0.00000000000E+00  0.00000000000E+00  0.16648222724E+04  0.16648222724E+04  0.00000000000E+00 0. -1.
         -2   -1    0    0    0  501 -0.00000000000E+00 -0.00000000000E+00 -0.12656884397E+04  0.12656884397E+04  0.00000000000E+00 0.  1.
         23    2    1    2    0    0  0.28731266461E+03  0.10571121079E+04  0.90363920739E+03  0.14229495510E+04  0.90482217412E+02 0.  0.
        254    2    1    2    0    0 -0.28731266461E+03 -0.10571121079E+04 -0.50450537467E+03  0.15075611611E+04  0.90453325287E+03 0.  0.
         23    2    4    4    0    0 -0.96893702388E+02  0.14327815928E+03 -0.11655648893E+03  0.22831437560E+03  0.92870977732E+02 0.  0.
         23    2    4    4    0    0 -0.19041896222E+03 -0.12003902672E+04 -0.38794888574E+03  0.12792467855E+04  0.93658024763E+02 0.  0.
         13    1    3    3    0    0  0.13225540868E+02  0.28058781769E+02  0.46626358425E+02  0.56002030906E+02  0.00000000000E+00 0.  1.
        -13    1    3    3    0    0  0.27408712375E+03  0.10290533261E+04  0.85701284897E+03  0.13669475201E+04  0.00000000000E+00 0. -1.
          1    1    5    5  502    0 -0.15355162041E+02 -0.85849531916E+01 -0.31552473079E+02  0.36125350933E+02  0.00000000000E+00 0. -1.
          3    1    6    6  503    0 -0.37180369477E+02 -0.12845101576E+03 -0.68643301495E+02  0.15031282768E+03  0.00000000000E+00 0. -1.
         -1    1    5    5    0  502 -0.81538540347E+02  0.15186311248E+03 -0.85004015847E+02  0.19218902467E+03  0.00000000000E+00 0.  1.
         -3    1    6    6    0  503 -0.15323859275E+03 -0.10719392514E+04 -0.31930558425E+03  0.11289339578E+04  0.00000000000E+00 0.  1.
<mgrwt>
<rscale>  0 0.29032026E+04</rscale>
<asrwt>0</asrwt>
<pdfrwt beam="1">  1        2 0.25612650E+00 0.29032026E+04</pdfrwt>
<pdfrwt beam="2">  1       -2 0.19472130E+00 0.29032026E+04</pdfrwt>
<totfact> 0.12760754E+00</totfact>
</mgrwt>
</event>
<event>
12    1  0.4672461E-008  0.2225299E+04  0.7818608E-02  0.8507971E-01
          4   -1    0    0  501    0  0.00000000000E+00  0.00000000000E+00  0.17723182271E+04  0.17723182271E+04  0.00000000000E+00 0. -1.
         -4   -1    0    0    0  501 -0.00000000000E+00 -0.00000000000E+00 -0.69851419148E+03  0.69851419148E+03  0.00000000000E+00 0.  1.
         23    2    1    2    0    0  0.67976980624E+03  0.41450885942E+03  0.97878012876E+03  0.12649839289E+04  0.90935229638E+02 0.  0.
        254    2    1    2    0    0 -0.67976980624E+03 -0.41450885942E+03  0.95023906877E+02  0.12058484897E+04  0.90063114154E+03 0.  0.
         23    2    4    4    0    0  0.86964529863E+01  0.10530941322E+03 -0.23832437340E+03  0.27648622705E+03  0.92089228396E+02 0.  0.
         23    2    4    4    0    0 -0.68846625923E+03 -0.51981827264E+03  0.33334828027E+03  0.92936226260E+03  0.91631394884E+02 0.  0.
         11    1    3    3    0    0  0.59423487838E+03  0.33519385075E+03  0.79870627696E+03  0.10504293052E+04  0.00000000000E+00 0. -1.
        -11    1    3    3    0    0  0.85534927860E+02  0.79315008671E+02  0.18007385180E+03  0.21455462378E+03  0.00000000000E+00 0.  1.
          2    1    5    5  502    0  0.42706373939E+02  0.68950631017E+02 -0.19222590973E+03  0.20863562559E+03  0.00000000000E+00 0. -1.
          1    1    6    6  503    0 -0.66504446538E+03 -0.51953458039E+03  0.32122301330E+03  0.90298645916E+03  0.00000000000E+00 0. -1.
         -2    1    5    5    0  502 -0.34009920953E+02  0.36358782205E+02 -0.46098463668E+02  0.67850601465E+02  0.00000000000E+00 0.  1.
         -1    1    6    6    0  503 -0.23421793846E+02 -0.28369225381E+00  0.12125266970E+02  0.26375803445E+02  0.00000000000E+00 0.  1.
<mgrwt>
<rscale>  0 0.22252995E+04</rscale>
<asrwt>0</asrwt>
<pdfrwt beam="1">  1        4 0.27266434E+00 0.22252995E+04</pdfrwt>
<pdfrwt beam="2">  1       -4 0.10746372E+00 0.22252995E+04</pdfrwt>
<totfact> 0.57817988E-02</totfact>
</mgrwt>
</event>
<event>
12    1  0.4672461E-008  0.2783014E+04  0.7818608E-02  0.8308561E-01
         -2   -1    0    0    0  501 -0.00000000000E+00  0.00000000000E+00  0.82346997813E+03  0.82346997813E+03  0.00000000000E+00 0.  1.
          2   -1    0    0  501    0  0.00000000000E+00 -0.00000000000E+00 -0.23513817218E+04  0.23513817218E+04  0.00000000000E+00 0. -1.
         23    2    1    2    0    0 -0.85003016561E+03 -0.28676099848E+03 -0.16677578632E+04  0.18959363844E+04  0.91516833275E+02 0.  0.
        254    2    1    2    0    0  0.85003016561E+03  0.28676099848E+03  0.13984611955E+03  0.12789153155E+04  0.90071321429E+03 0.  0.
         23    2    4    4    0    0 -0.68675625423E+02  0.20575122826E+03  0.25222471854E+03  0.34542215115E+03  0.93001314003E+02 0.  0.
         23    2    4    4    0    0  0.91870579103E+03  0.81009770224E+02 -0.11237859899E+03  0.93349316435E+03  0.90540736930E+02 0.  0.
         13    1    3    3    0    0 -0.63145512620E+03 -0.23583224580E+03 -0.11782792100E+04  0.13574587734E+04  0.00000000000E+00 0. -1.
        -13    1    3    3    0    0 -0.21857503940E+03 -0.50928752680E+02 -0.48947865314E+03  0.53847761103E+03  0.00000000000E+00 0.  1.
          1    1    5    5  502    0 -0.70702427914E+02  0.72815058643E+02  0.12907353516E+03  0.16419757476E+03  0.00000000000E+00 0. -1.
          1    1    6    6  503    0  0.57174740140E+03  0.86941471275E+02 -0.45580476022E+02  0.58011334257E+03  0.00000000000E+00 0. -1.
         -1    1    5    5    0  502  0.20268024913E+01  0.13293616962E+03  0.12315118338E+03  0.18122457639E+03  0.00000000000E+00 0.  1.
         -1    1    6    6    0  503  0.34695838963E+03 -0.59317010511E+01 -0.66798122969E+02  0.35337982178E+03  0.00000000000E+00 0.  1.
<mgrwt>
<rscale>  0 0.27830144E+04</rscale>
<asrwt>0</asrwt>
<pdfrwt beam="1">  1        2 0.36175103E+00 0.27830144E+04</pdfrwt>
<pdfrwt beam="2">  1       -2 0.12668769E+00 0.27830144E+04</pdfrwt>
<totfact> 0.17118078E+00</totfact>
</mgrwt>
</event>
<event>
12    1  0.4672461E-008  0.1477722E+04  0.7818608E-02  0.8899404E-01
         -2   -1    0    0    0  501 -0.00000000000E+00  0.00000000000E+00  0.26961308681E+03  0.26961308681E+03  0.00000000000E+00 0. -1.
          2   -1    0    0  501    0  0.00000000000E+00 -0.00000000000E+00 -0.20248109737E+04  0.20248109737E+04  0.00000000000E+00 0.  1.
         23    2    1    2    0    0  0.27125176298E+03  0.24990457824E+03 -0.98431464202E+03  0.10551793682E+04  0.92186590015E+02 0.  0.
        254    2    1    2    0    0 -0.27125176298E+03 -0.24990457824E+03 -0.77088324492E+03  0.12392446924E+04  0.89746120426E+03 0.  0.
         23    2    4    4    0    0 -0.10091598374E+03 -0.50295821497E+03 -0.15091560187E+03  0.54233104706E+03  0.90534214155E+02 0.  0.
         23    2    4    4    0    0 -0.17033577924E+03  0.25305363673E+03 -0.61996764305E+03  0.69691364532E+03  0.90985327672E+02 0.  0.
         13    1    3    3    0    0  0.21077449759E+03  0.23691679949E+03 -0.85268682530E+03  0.90974187590E+03  0.00000000000E+00 0.  1.
        -13    1    3    3    0    0  0.60477265394E+02  0.12987778753E+02 -0.13162781672E+03  0.14543749228E+03  0.00000000000E+00 0. -1.
          4    1    5    5  502    0 -0.61819794018E+02 -0.11961735456E+03 -0.24988185047E+02  0.13694673358E+03  0.00000000000E+00 0. -1.
          3    1    6    6  503    0 -0.97665981465E+02  0.68625578942E+02 -0.21054879365E+03  0.24203080078E+03  0.00000000000E+00 0. -1.
         -4    1    5    5    0  502 -0.39096189726E+02 -0.38334086041E+03 -0.12592741682E+03  0.40538431348E+03  0.00000000000E+00 0.  1.
         -3    1    6    6    0  503 -0.72669797770E+02  0.18442805779E+03 -0.40941884941E+03  0.45488284454E+03  0.00000000000E+00 0.  1.
<mgrwt>
<rscale>  0 0.14777219E+04</rscale>
<asrwt>0</asrwt>
<pdfrwt beam="1">  1        2 0.31150938E+00 0.14777219E+04</pdfrwt>
<pdfrwt beam="2">  1       -2 0.41478936E-01 0.14777219E+04</pdfrwt>
<totfact> 0.34508646E+01</totfact>
</mgrwt>
</event>
<event>
12    1  0.4672461E-008  0.1683942E+04  0.7818608E-02  0.8770576E-01
         -2   -1    0    0    0  501 -0.00000000000E+00  0.00000000000E+00  0.13840440505E+04  0.13840440505E+04  0.00000000000E+00 0. -1.
          2   -1    0    0  501    0  0.00000000000E+00 -0.00000000000E+00 -0.51220592409E+03  0.51220592409E+03  0.00000000000E+00 0.  1.
         23    2    1    2    0    0 -0.14012954237E+03 -0.55576834220E+03  0.12377870580E+03  0.59347602543E+03  0.91530792203E+02 0.  0.
        254    2    1    2    0    0  0.14012954237E+03  0.55576834220E+03  0.74805942061E+03  0.13027739492E+04  0.89950671315E+03 0.  0.
         23    2    4    4    0    0  0.25372335113E+03  0.70860347716E+03  0.31275385271E+03  0.82004290877E+03  0.90338104242E+02 0.  0.
         23    2    4    4    0    0 -0.11359380876E+03 -0.15283513496E+03  0.43530556789E+03  0.48273104039E+03  0.85300574739E+02 0.  0.
         13    1    3    3    0    0 -0.58097447583E+02 -0.19062910809E+03  0.86948243300E+02  0.21742761388E+03  0.00000000000E+00 0.  1.
        -13    1    3    3    0    0 -0.82032094787E+02 -0.36513923411E+03  0.36830462497E+02  0.37604841155E+03  0.00000000000E+00 0. -1.
          1    1    6    6  502    0 -0.89001459271E+02 -0.51832885271E+02  0.18581854209E+03  0.21245337920E+03  0.00000000000E+00 0. -1.
          1    1    5    5  503    0  0.70717130434E+02  0.10199594162E+03  0.42293015045E+02  0.13112125596E+03  0.00000000000E+00 0. -1.
         -1    1    5    5    0  503  0.18300622069E+03  0.60660753554E+03  0.27046083767E+03  0.68892165280E+03  0.00000000000E+00 0.  1.
         -1    1    6    6    0  502 -0.24592349486E+02 -0.10100224969E+03  0.24948702580E+03  0.27027766119E+03  0.00000000000E+00 0.  1.
<mgrwt>
<rscale>  0 0.16839425E+04</rscale>
<asrwt>0</asrwt>
<pdfrwt beam="1">  1        2 0.78800912E-01 0.16839425E+04</pdfrwt>
<pdfrwt beam="2">  1       -2 0.21292985E+00 0.16839425E+04</pdfrwt>
<totfact> 0.62492703E+00</totfact>
</mgrwt>
</event>
<event>
12    1  0.4672461E-008  0.2578655E+04  0.7818608E-02  0.8375488E-01
         -2   -1    0    0    0  501 -0.00000000000E+00  0.00000000000E+00  0.91737438785E+03  0.91737438785E+03  0.00000000000E+00 0.  1.
          2   -1    0    0  501    0  0.00000000000E+00 -0.00000000000E+00 -0.18120907366E+04  0.18120907366E+04  0.00000000000E+00 0. -1.
         23    2    1    2    0    0  0.96403346831E+03  0.34216984452E+03  0.11500605023E+03  0.10338099843E+04  0.95372750409E+02 0.  0.
        254    2    1    2    0    0 -0.96403346831E+03 -0.34216984452E+03 -0.10097223990E+04  0.16956551402E+04  0.89959229699E+03 0.  0.
         23    2    4    4    0    0 -0.11152478718E+04 -0.25276653557E+03 -0.75752186559E+03  0.13750096783E+04  0.95621657996E+02 0.  0.
         23    2    4    4    0    0  0.15121440353E+03 -0.89403308947E+02 -0.25220053339E+03  0.32064546184E+03  0.91376450304E+02 0.  0.
         13    1    3    3    0    0  0.65262043071E+03  0.23884265435E+03  0.33652001819E+02  0.69576698494E+03  0.00000000000E+00 0.  1.
        -13    1    3    3    0    0  0.31141303760E+03  0.10332719017E+03  0.81354048410E+02  0.33804299935E+03  0.00000000000E+00 0. -1.
          2    1    5    5  502    0 -0.29861059566E+02  0.14380127158E+01 -0.37420123746E+02  0.47895891475E+02  0.00000000000E+00 0. -1.
          3    1    6    6  503    0  0.27829750473E+01 -0.46567095176E+01 -0.72273980494E+02  0.72477294031E+02  0.00000000000E+00 0. -1.
         -2    1    5    5    0  502 -0.10853868123E+04 -0.25420454829E+03 -0.72010174184E+03  0.13271137868E+04  0.00000000000E+00 0.  1.
         -3    1    6    6    0  503  0.14843142848E+03 -0.84746599429E+02 -0.17992655290E+03  0.24816816781E+03  0.00000000000E+00 0.  1.
<mgrwt>
<rscale>  0 0.25786552E+04</rscale>
<asrwt>0</asrwt>
<pdfrwt beam="1">  1        2 0.27878319E+00 0.25786552E+04</pdfrwt>
<pdfrwt beam="2">  1       -2 0.14113452E+00 0.25786552E+04</pdfrwt>
<totfact> 0.26481656E+00</totfact>
</mgrwt>
</event>
<event>
12    1  0.4672461E-008  0.2446531E+04  0.7818608E-02  0.8422286E-01
         -2   -1    0    0    0  501 -0.00000000000E+00  0.00000000000E+00  0.82420630896E+03  0.82420630896E+03  0.00000000000E+00 0.  1.
          2   -1    0    0  501    0  0.00000000000E+00 -0.00000000000E+00 -0.18155382830E+04  0.18155382830E+04  0.00000000000E+00 0. -1.
         23    2    1    2    0    0 -0.10020810352E+04  0.27444709052E+03 -0.52528638345E+03  0.11681078416E+04  0.95197366088E+02 0.  0.
        254    2    1    2    0    0  0.10020810352E+04 -0.27444709052E+03 -0.46604559063E+03  0.14716367503E+04  0.93221704868E+03 0.  0.
         23    2    4    4    0    0 -0.54307167861E+02  0.16820375893E+03  0.60304225588E+02  0.20780334318E+03  0.91125500341E+02 0.  0.
         23    2    4    4    0    0  0.10563882030E+04 -0.44265084945E+03 -0.52634981622E+03  0.12638334072E+04  0.91295903425E+02 0.  0.
         11    1    3    3    0    0 -0.56303758595E+03  0.19605257465E+03 -0.27323704142E+03  0.65582498886E+03  0.00000000000E+00 0. -1.
        -11    1    3    3    0    0 -0.43904344924E+03  0.78394515866E+02 -0.25204934203E+03  0.51228285278E+03  0.00000000000E+00 0.  1.
          4    1    5    5  502    0  0.12421884342E+02  0.76476778290E+01 -0.12591454578E+02  0.19270052288E+02  0.00000000000E+00 0. -1.
          3    1    6    6  503    0  0.33260960879E+03 -0.18173157854E+03 -0.15427567374E+03  0.40921449388E+03  0.00000000000E+00 0. -1.
         -4    1    5    5    0  502 -0.66729052203E+02  0.16055608110E+03  0.72895680166E+02  0.18853329089E+03  0.00000000000E+00 0.  1.
         -3    1    6    6    0  503  0.72377859426E+03 -0.26091927091E+03 -0.37207414248E+03  0.85461891328E+03  0.00000000000E+00 0.  1.
<mgrwt>
<rscale>  0 0.24465307E+04</rscale>
<asrwt>0</asrwt>
<pdfrwt beam="1">  1        2 0.27931358E+00 0.24465307E+04</pdfrwt>
<pdfrwt beam="2">  1       -2 0.12680097E+00 0.24465307E+04</pdfrwt>
<totfact> 0.35052404E+00</totfact>
</mgrwt>
</event>
<event>
12    1  0.4672461E-008  0.1631555E+04  0.7818608E-02  0.8801394E-01
          2   -1    0    0  501    0  0.00000000000E+00  0.00000000000E+00  0.35829520890E+04  0.35829520890E+04  0.00000000000E+00 0. -1.
         -2   -1    0    0    0  501 -0.00000000000E+00 -0.00000000000E+00 -0.18573862031E+03  0.18573862031E+03  0.00000000000E+00 0.  1.
         23    2    1    2    0    0  0.31544219433E+03  0.37551076021E+03  0.17432421706E+04  0.18133584430E+04  0.94145996561E+02 0.  0.
        254    2    1    2    0    0 -0.31544219433E+03 -0.37551076021E+03  0.16539712982E+04  0.19553322663E+04  0.92042984933E+03 0.  0.
         23    2    4    4    0    0 -0.27161914785E+03  0.23113842443E+03  0.95926304689E+03  0.10276073191E+04  0.92678348996E+02 0.  0.
         23    2    4    4    0    0 -0.43823046484E+02 -0.60664918464E+03  0.69470825128E+03  0.92772494723E+03  0.90057374481E+02 0.  0.
         11    1    3    3    0    0  0.89080885360E+02  0.13620261578E+03  0.72978186648E+03  0.74770858584E+03  0.00000000000E+00 0.  1.
        -11    1    3    3    0    0  0.22636130897E+03  0.23930814443E+03  0.10134603041E+04  0.10656498572E+04  0.00000000000E+00 0. -1.
          1    1    5    5  502    0 -0.21546685450E+03  0.22210859658E+03  0.84704060403E+03  0.90179597412E+03  0.00000000000E+00 0. -1.
          3    1    6    6  503    0 -0.20195972204E+02 -0.57127081512E+03  0.65711355464E+03  0.87095145972E+03  0.00000000000E+00 0. -1.
         -1    1    5    5    0  502 -0.56152293347E+02  0.90298278468E+01  0.11222244286E+03  0.12581134496E+03  0.00000000000E+00 0.  1.
         -3    1    6    6    0  503 -0.23627074280E+02 -0.35378369525E+02  0.37594696639E+02  0.56773487515E+02  0.00000000000E+00 0.  1.
<mgrwt>
<rscale>  0 0.16315546E+04</rscale>
<asrwt>0</asrwt>
<pdfrwt beam="1">  1        2 0.55122335E+00 0.16315546E+04</pdfrwt>
<pdfrwt beam="2">  1       -2 0.28575175E-01 0.16315546E+04</pdfrwt>
<totfact> 0.77214198E+00</totfact>
</mgrwt>
</event>
<event>
12    1  0.4672461E-008  0.1926419E+04  0.7818608E-02  0.8641817E-01
          1   -1    0    0  501    0  0.00000000000E+00  0.00000000000E+00  0.41376855178E+03  0.41376855178E+03  0.00000000000E+00 0. -1.
         -1   -1    0    0    0  501 -0.00000000000E+00 -0.00000000000E+00 -0.22422490811E+04  0.22422490811E+04  0.00000000000E+00 0.  1.
         23    2    1    2    0    0 -0.33664976347E+02  0.72334635879E+03 -0.95959033078E+03  0.12057895163E+04  0.93549287494E+02 0.  0.
        254    2    1    2    0    0  0.33664976347E+02 -0.72334635879E+03 -0.86889019853E+03  0.14502281166E+04  0.90764978252E+03 0.  0.
         23    2    4    4    0    0  0.30362673075E+03 -0.19513246654E+03  0.25399911529E+02  0.37302467959E+03  0.90754531304E+02 0.  0.
         23    2    4    4    0    0 -0.26996175440E+03 -0.52821389225E+03 -0.89429011005E+03  0.10772034370E+04  0.93397960297E+02 0.  0.
         13    1    3    3    0    0 -0.47456653028E+02  0.62187391079E+03 -0.86488751469E+03  0.10663065731E+04  0.00000000000E+00 0.  1.
        -13    1    3    3    0    0  0.13791676681E+02  0.10147244799E+03 -0.94702816092E+02  0.13948294313E+03  0.00000000000E+00 0. -1.
          2    1    5    5  502    0  0.13435942682E+02 -0.13646321805E+02 -0.20079372942E+02  0.27747574169E+02  0.00000000000E+00 0. -1.
          1    1    6    6  503    0 -0.99735582309E+02 -0.15674059735E+03 -0.21174361395E+03  0.28169160315E+03  0.00000000000E+00 0. -1.
         -2    1    5    5    0  502  0.29019078807E+03 -0.18148614473E+03  0.45479284471E+02  0.34527710542E+03  0.00000000000E+00 0.  1.
         -1    1    6    6    0  503 -0.17022617210E+03 -0.37147329490E+03 -0.68254649610E+03  0.79551183388E+03  0.00000000000E+00 0.  1.
<mgrwt>
<rscale>  0 0.19264186E+04</rscale>
<asrwt>0</asrwt>
<pdfrwt beam="1">  1        1 0.63656699E-01 0.19264186E+04</pdfrwt>
<pdfrwt beam="2">  1       -1 0.34496140E+00 0.19264186E+04</pdfrwt>
<totfact> 0.89972956E-01</totfact>
</mgrwt>
</event>
<event>
12    1  0.4672461E-008  0.3063269E+04  0.7818608E-02  0.8225891E-01
         -1   -1    0    0    0  501 -0.00000000000E+00  0.00000000000E+00  0.26933833468E+04  0.26933833468E+04  0.00000000000E+00 0.  1.
          1   -1    0    0  501    0  0.00000000000E+00 -0.00000000000E+00 -0.87098812119E+03  0.87098812119E+03  0.00000000000E+00 0. -1.
         23    2    1    2    0    0 -0.39098556156E+03  0.12838251295E+04  0.12534231696E+04  0.18388408659E+04  0.95861439058E+02 0.  0.
        254    2    1    2    0    0  0.39098556156E+03 -0.12838251295E+04  0.56897205603E+03  0.17255306021E+04  0.92339048390E+03 0.  0.
         23    2    4    4    0    0  0.14186574006E+03 -0.11915007847E+03  0.48618517688E+03  0.52819145939E+03  0.91036048659E+02 0.  0.
         23    2    4    4    0    0  0.24911982150E+03 -0.11646750511E+04  0.82786879148E+02  0.11973391427E+04  0.90767259160E+02 0.  0.
         13    1    3    3    0    0 -0.27770320929E+03  0.10083103123E+04  0.93610704267E+03  0.14036043437E+04  0.00000000000E+00 0. -1.
        -13    1    3    3    0    0 -0.11328235227E+03  0.27551481720E+03  0.31731612692E+03  0.43523652218E+03  0.00000000000E+00 0.  1.
          4    1    5    5  502    0  0.69242687314E+02 -0.55791143929E+01  0.20301113342E+03  0.21456746388E+03  0.00000000000E+00 0. -1.
          3    1    6    6  503    0  0.21910586190E+03 -0.10802563541E+04  0.55369973788E+02  0.11036426067E+04  0.00000000000E+00 0. -1.
         -4    1    5    5    0  502  0.72623052743E+02 -0.11357096407E+03  0.28317404346E+03  0.31362399551E+03  0.00000000000E+00 0.  1.
         -3    1    6    6    0  503  0.30013959596E+02 -0.84418696910E+02  0.27416905360E+02  0.93696535998E+02  0.00000000000E+00 0.  1.
<mgrwt>
<rscale>  0 0.30632694E+04</rscale>
<asrwt>0</asrwt>
<pdfrwt beam="1">  1        1 0.13399817E+00 0.30632694E+04</pdfrwt>
<pdfrwt beam="2">  1       -1 0.41436666E+00 0.30632694E+04</pdfrwt>
<totfact> 0.92729553E-02</totfact>
</mgrwt>
</event>
<event>
12    1  0.4672461E-008  0.1871465E+04  0.7818608E-02  0.8669192E-01
         -1   -1    0    0    0  501 -0.00000000000E+00  0.00000000000E+00  0.87553467299E+03  0.87553467299E+03  0.00000000000E+00 0.  1.
          1   -1    0    0  501    0  0.00000000000E+00 -0.00000000000E+00 -0.10000695684E+04  0.10000695684E+04  0.00000000000E+00 0. -1.
         23    2    1    2    0    0  0.16625396600E+03  0.56199398376E+02 -0.74114612467E+03  0.76727255183E+03  0.92794596247E+02 0.  0.
        254    2    1    2    0    0 -0.16625396600E+03 -0.56199398376E+02  0.61661122925E+03  0.11083316896E+04  0.90409677161E+03 0.  0.
         23    2    4    4    0    0 -0.45439874666E+03 -0.22161034763E+03  0.55852245972E+03  0.75886991674E+03  0.91361071428E+02 0.  0.
         23    2    4    4    0    0  0.28814478066E+03  0.16541094926E+03  0.58088769534E+02  0.34946177282E+03  0.91438661192E+02 0.  0.
         13    1    3    3    0    0  0.99123289746E+02  0.39096543225E+02 -0.25728040923E+03  0.27847293447E+03  0.00000000000E+00 0. -1.
        -13    1    3    3    0    0  0.67130676254E+02  0.17102855151E+02 -0.48386571544E+03  0.48879961735E+03  0.00000000000E+00 0.  1.
          1    1    5    5  502    0 -0.30492732302E+03 -0.11207564498E+03  0.31164618866E+03  0.45018326205E+03  0.00000000000E+00 0. -1.
          3    1    6    6  503    0  0.17275852661E+03  0.64840283680E+02  0.66561996853E+02  0.19616388640E+03  0.00000000000E+00 0. -1.
         -1    1    5    5    0  502 -0.14947142364E+03 -0.10953470265E+03  0.24687627106E+03  0.30868665469E+03  0.00000000000E+00 0.  1.
         -3    1    6    6    0  503  0.11538625405E+03  0.10057066558E+03 -0.84732273190E+01  0.15329788641E+03  0.00000000000E+00 0.  1.
<mgrwt>
<rscale>  0 0.18714653E+04</rscale>
<asrwt>0</asrwt>
<pdfrwt beam="1">  1        1 0.15385686E+00 0.18714653E+04</pdfrwt>
<pdfrwt beam="2">  1       -1 0.13469764E+00 0.18714653E+04</pdfrwt>
<totfact> 0.65748064E+00</totfact>
</mgrwt>
</event>
<event>
12    1  0.4672461E-008  0.2633423E+04  0.7818608E-02  0.8356936E-01
         -1   -1    0    0    0  501 -0.00000000000E+00  0.00000000000E+00  0.83680864137E+03  0.83680864137E+03  0.00000000000E+00 0.  1.
          1   -1    0    0  501    0  0.00000000000E+00 -0.00000000000E+00 -0.20718354409E+04  0.20718354409E+04  0.00000000000E+00 0. -1.
         23    2    1    2    0    0 -0.20990495863E+03 -0.59003038513E+03 -0.16220324323E+04  0.17411566294E+04  0.91876272301E+02 0.  0.
        254    2    1    2    0    0  0.20990495863E+03  0.59003038513E+03  0.38700563284E+03  0.11674874529E+04  0.90612231277E+03 0.  0.
         23    2    4    4    0    0  0.21344570055E+03  0.28577490046E+03 -0.25726014129E+03  0.44930986535E+03  0.92033765508E+02 0.  0.
         23    2    4    4    0    0 -0.35407419222E+01  0.30425548467E+03  0.64426577413E+03  0.71817758750E+03  0.90092855813E+02 0.  0.
         13    1    3    3    0    0 -0.13547632035E+03 -0.42369991469E+03 -0.10364269242E+04  0.11278546982E+04  0.00000000000E+00 0.  1.
        -13    1    3    3    0    0 -0.74428638284E+02 -0.16633047044E+03 -0.58560550818E+03  0.61330193119E+03  0.00000000000E+00 0. -1.
          1    1    5    5  502    0  0.16568675326E+03  0.25088754144E+03 -0.24737127911E+03  0.38934458823E+03  0.00000000000E+00 0. -1.
          1    1    6    6  503    0  0.30171703286E+02  0.83076296937E+02  0.24563229923E+03  0.26105024271E+03  0.00000000000E+00 0. -1.
         -1    1    5    5    0  502  0.47758947292E+02  0.34887359019E+02 -0.98888621823E+01  0.59965277128E+02  0.00000000000E+00 0.  1.
         -1    1    6    6    0  503 -0.33712445208E+02  0.22117918773E+03  0.39863347490E+03  0.45712734480E+03  0.00000000000E+00 0.  1.
<mgrwt>
<rscale>  0 0.26334235E+04</rscale>
<asrwt>0</asrwt>
<pdfrwt beam="1">  1        1 0.31874391E+00 0.26334235E+04</pdfrwt>
<pdfrwt beam="2">  1       -1 0.12873979E+00 0.26334235E+04</pdfrwt>
<totfact> 0.12154646E+00</totfact>
</mgrwt>
</event>
<event>
12    1  0.4672461E-008  0.1933439E+04  0.7818608E-02  0.8638388E-01
         -2   -1    0    0    0  501 -0.00000000000E+00  0.00000000000E+00  0.10373949151E+04  0.10373949151E+04  0.00000000000E+00 0.  1.
          2   -1    0    0  501    0  0.00000000000E+00 -0.00000000000E+00 -0.90085909505E+03  0.90085909505E+03  0.00000000000E+00 0. -1.
         23    2    1    2    0    0  0.35358600650E+03 -0.42256602809E+03 -0.46016828767E+03  0.72369771332E+03  0.91642867706E+02 0.  0.
        254    2    1    2    0    0 -0.35358600650E+03  0.42256602809E+03  0.59670410773E+03  0.12145562968E+04  0.90305376027E+03 0.  0.
         23    2    4    4    0    0 -0.15938172299E+03 -0.34917220539E+02  0.67771567565E+03  0.70311971865E+03  0.91962252177E+02 0.  0.
         23    2    4    4    0    0 -0.19420428351E+03  0.45748324863E+03 -0.81011567924E+02  0.51143657819E+03  0.89433063580E+02 0.  0.
         11    1    3    3    0    0  0.25744935519E+03 -0.23979840197E+03 -0.29964724555E+03  0.46213841632E+03  0.00000000000E+00 0. -1.
        -11    1    3    3    0    0  0.96136651306E+02 -0.18276762613E+03 -0.16052104212E+03  0.26155929700E+03  0.00000000000E+00 0.  1.
          2    1    5    5  502    0 -0.94383892388E+01 -0.13688673962E+02  0.12282090014E+02  0.20671543759E+02  0.00000000000E+00 0. -1.
          1    1    6    6  503    0 -0.18341316715E+02  0.12206162052E+03 -0.43422395493E+02  0.13084703869E+03  0.00000000000E+00 0. -1.
         -2    1    5    5    0  502 -0.14994333375E+03 -0.21228546578E+02  0.66543358564E+03  0.68244817490E+03  0.00000000000E+00 0.  1.
         -1    1    6    6    0  503 -0.17586296680E+03  0.33542162811E+03 -0.37589172430E+02  0.38058953951E+03  0.00000000000E+00 0.  1.
<mgrwt>
<rscale>  0 0.19334391E+04</rscale>
<asrwt>0</asrwt>
<pdfrwt beam="1">  1        2 0.13859371E+00 0.19334391E+04</pdfrwt>
<pdfrwt beam="2">  1       -2 0.15959922E+00 0.19334391E+04</pdfrwt>
<totfact> 0.69348216E+00</totfact>
</mgrwt>
</event>
<event>
12    1  0.4672461E-008  0.1842182E+04  0.7818608E-02  0.8684184E-01
         -1   -1    0    0    0  501 -0.00000000000E+00  0.00000000000E+00  0.43780819789E+03  0.43780819789E+03  0.00000000000E+00 0.  1.
          1   -1    0    0  501    0  0.00000000000E+00 -0.00000000000E+00 -0.19378550169E+04  0.19378550169E+04  0.00000000000E+00 0. -1.
         23    2    1    2    0    0  0.12358934043E+03  0.49104145513E+03 -0.11942785047E+04  0.13003459052E+04  0.90566497799E+02 0.  0.
        254    2    1    2    0    0 -0.12358934043E+03 -0.49104145513E+03 -0.30576831427E+03  0.10753173096E+04  0.89800724864E+03 0.  0.
         23    2    4    4    0    0  0.63653594585E+02 -0.71602402859E+03 -0.21614560499E+03  0.75551245348E+03  0.85661865407E+02 0.  0.
         23    2    4    4    0    0 -0.18724293502E+03  0.22498257347E+03 -0.89622709282E+02  0.31980485613E+03  0.92551828219E+02 0.  0.
         11    1    3    3    0    0  0.13003867724E+03  0.48251905628E+03 -0.11354855886E+04  0.12405894644E+04  0.00000000000E+00 0. -1.
        -11    1    3    3    0    0 -0.64493368077E+01  0.85223988474E+01 -0.58792916150E+02  0.59756440797E+02  0.00000000000E+00 0.  1.
          4    1    6    6  502    0 -0.12210048991E+03  0.77442145220E+02 -0.28756214941E+02  0.14742026791E+03  0.00000000000E+00 0. -1.
          4    1    5    5  503    0  0.36914504725E+02 -0.99395882352E+02 -0.20101172343E+02  0.10791792815E+03  0.00000000000E+00 0. -1.
         -4    1    5    5    0  503  0.26739089860E+02 -0.61662814624E+03 -0.19604443265E+03  0.64759452533E+03  0.00000000000E+00 0.  1.
         -4    1    6    6    0  502 -0.65142445103E+02  0.14754042825E+03 -0.60866494341E+02  0.17238458822E+03  0.00000000000E+00 0.  1.
<mgrwt>
<rscale>  0 0.18421822E+04</rscale>
<asrwt>0</asrwt>
<pdfrwt beam="1">  1        1 0.29813154E+00 0.18421822E+04</pdfrwt>
<pdfrwt beam="2">  1       -1 0.67355108E-01 0.18421822E+04</pdfrwt>
<totfact> 0.68932215E+00</totfact>
</mgrwt>
</event>
<event>
12    1  0.4672461E-008  0.1799800E+04  0.7818608E-02  0.8706406E-01
          1   -1    0    0  501    0  0.00000000000E+00  0.00000000000E+00  0.41895868842E+04  0.41895868842E+04  0.00000000000E+00 0. -1.
         -1   -1    0    0    0  501 -0.00000000000E+00 -0.00000000000E+00 -0.19329348926E+03  0.19329348926E+03  0.00000000000E+00 0.  1.
         23    2    1    2    0    0  0.52246753101E+03  0.23987335841E+03  0.23506770266E+04  0.24216726294E+04  0.91127885530E+02 0.  0.
        254    2    1    2    0    0 -0.52246753101E+03 -0.23987335841E+03  0.16456163683E+04  0.19612077440E+04  0.89876083281E+03 0.  0.
         23    2    4    4    0    0 -0.62744619658E+03  0.14025315198E+03  0.11560701757E+04  0.13258813610E+04  0.90019198227E+02 0.  0.
         23    2    4    4    0    0  0.10497866557E+03 -0.38012651039E+03  0.48954619256E+03  0.63532638300E+03  0.92018770704E+02 0.  0.
         11    1    3    3    0    0  0.26658055965E+03  0.12586401158E+03  0.10155361428E+04  0.10574595035E+04  0.00000000000E+00 0.  1.
        -11    1    3    3    0    0  0.25588697137E+03  0.11400934683E+03  0.13351408839E+04  0.13642131260E+04  0.00000000000E+00 0. -1.
          3    1    5    5  502    0 -0.56866785661E+03  0.13440933848E+03  0.98959641327E+03  0.11492389058E+04  0.00000000000E+00 0. -1.
          3    1    6    6  503    0  0.68803796732E+02 -0.35272311249E+03  0.44071389703E+03  0.56866184641E+03  0.00000000000E+00 0. -1.
         -3    1    5    5    0  502 -0.58778339975E+02  0.58438135042E+01  0.16647376243E+03  0.17664245521E+03  0.00000000000E+00 0.  1.
         -3    1    6    6    0  503  0.36174868838E+02 -0.27403397898E+02  0.48832295528E+02  0.66664536587E+02  0.00000000000E+00 0.  1.
<mgrwt>
<rscale>  0 0.17997998E+04</rscale>
<asrwt>0</asrwt>
<pdfrwt beam="1">  1        1 0.64455176E+00 0.17997998E+04</pdfrwt>
<pdfrwt beam="2">  1       -1 0.29737463E-01 0.17997998E+04</pdfrwt>
<totfact> 0.64135247E-01</totfact>
</mgrwt>
</event>
<event>
12    1  0.4672461E-008  0.1908598E+04  0.7818608E-02  0.8650588E-01
          1   -1    0    0  501    0  0.00000000000E+00  0.00000000000E+00  0.61715260993E+03  0.61715260993E+03  0.00000000000E+00 0. -1.
         -1   -1    0    0    0  501 -0.00000000000E+00 -0.00000000000E+00 -0.14756264760E+04  0.14756264760E+04  0.00000000000E+00 0.  1.
         23    2    1    2    0    0 -0.27351282110E+03 -0.41365657611E+03 -0.93307983689E+03  0.10625604914E+04  0.11169507426E+03 0.  0.
        254    2    1    2    0    0  0.27351282110E+03  0.41365657611E+03  0.74605970838E+02  0.10302185945E+04  0.89992403864E+03 0.  0.
         23    2    4    4    0    0 -0.16522301256E+03  0.10567762138E+02 -0.27452259425E+03  0.33324455797E+03  0.90988786061E+02 0.  0.
         23    2    4    4    0    0  0.43873583366E+03  0.40308881397E+03  0.34912856509E+03  0.69697403654E+03  0.94405132084E+02 0.  0.
         11    1    3    3    0    0 -0.19725165528E+03 -0.36685096003E+03 -0.80421326984E+03  0.90567479029E+03  0.00000000000E+00 0.  1.
        -11    1    3    3    0    0 -0.76261165827E+02 -0.46805616078E+02 -0.12886656705E+03  0.15688570111E+03  0.00000000000E+00 0. -1.
          4    1    5    5  502    0 -0.29406225255E+02 -0.12423525183E+02 -0.75105148084E+01  0.32794479633E+02  0.00000000000E+00 0. -1.
          3    1    6    6  503    0  0.18929530416E+03  0.16040945936E+03  0.93453937346E+02  0.26513684247E+03  0.00000000000E+00 0. -1.
         -4    1    5    5    0  502 -0.13581678730E+03  0.22991287321E+02 -0.26701207944E+03  0.30045007834E+03  0.00000000000E+00 0.  1.
         -3    1    6    6    0  503  0.24944052950E+03  0.24267935462E+03  0.25567462774E+03  0.43183719407E+03  0.00000000000E+00 0.  1.
<mgrwt>
<rscale>  0 0.19085982E+04</rscale>
<asrwt>0</asrwt>
<pdfrwt beam="1">  1        1 0.94946557E-01 0.19085982E+04</pdfrwt>
<pdfrwt beam="2">  1       -1 0.22701945E+00 0.19085982E+04</pdfrwt>
<totfact> 0.30359433E+00</totfact>
</mgrwt>
</event>
<event>
12    1  0.4672461E-008  0.1554304E+04  0.7818608E-02  0.8849123E-01
         -2   -1    0    0    0  501 -0.00000000000E+00  0.00000000000E+00  0.28422358524E+03  0.28422358524E+03  0.00000000000E+00 0. -1.
          2   -1    0    0  501    0  0.00000000000E+00 -0.00000000000E+00 -0.21249648586E+04  0.21249648586E+04  0.00000000000E+00 0.  1.
         23    2    1    2    0    0  0.28638125963E+03 -0.36417487088E+03 -0.91524978431E+03  0.10298059272E+04  0.90446214197E+02 0.  0.
        254    2    1    2    0    0 -0.28638125963E+03  0.36417487088E+03 -0.92549148904E+03  0.13793825166E+04  0.91187941546E+03 0.  0.
         23    2    4    4    0    0 -0.33969511642E+03  0.19687914629E+03  0.27854855951E+02  0.40564232839E+03  0.98059345390E+02 0.  0.
         23    2    4    4    0    0  0.53313856791E+02  0.16729572459E+03 -0.95334634499E+03  0.97374018820E+03  0.92035177056E+02 0.  0.
         13    1    3    3    0    0  0.25057380701E+03 -0.27302398117E+03 -0.77124345991E+03  0.85565518844E+03  0.00000000000E+00 0.  1.
        -13    1    3    3    0    0  0.35807452618E+02 -0.91150889718E+02 -0.14400632440E+03  0.17415073880E+03  0.00000000000E+00 0. -1.
          4    1    5    5  502    0 -0.31105751126E+03  0.14223683502E+03  0.33609683912E+02  0.34368256197E+03  0.00000000000E+00 0. -1.
          1    1    6    6  503    0  0.72216076745E+02  0.15704781844E+03 -0.89542460195E+03  0.91195635685E+03  0.00000000000E+00 0. -1.
         -4    1    5    5    0  502 -0.28637605158E+02  0.54642311270E+02 -0.57548279606E+01  0.61959766421E+02  0.00000000000E+00 0.  1.
         -1    1    6    6    0  503 -0.18902219954E+02  0.10247906153E+02 -0.57921743039E+02  0.61783831351E+02  0.00000000000E+00 0.  1.
<mgrwt>
<rscale>  0 0.15543039E+04</rscale>
<asrwt>0</asrwt>
<pdfrwt beam="1">  1        2 0.32691766E+00 0.15543039E+04</pdfrwt>
<pdfrwt beam="2">  1       -2 0.43726707E-01 0.15543039E+04</pdfrwt>
<totfact> 0.27171391E+01</totfact>
</mgrwt>
</event>
<event>
12    1  0.6552730E-008  0.1682774E+04  0.7818608E-02  0.8771250E-01
         -2   -1    0    0    0  501 -0.00000000000E+00  0.00000000000E+00  0.70886937302E+03  0.70886937302E+03  0.00000000000E+00 0.  1.
          2   -1    0    0  501    0  0.00000000000E+00 -0.00000000000E+00 -0.99867791597E+03  0.99867791597E+03  0.00000000000E+00 0. -1.
         23    2    1    2    0    0  0.18861611315E+03  0.42857160332E+03  0.26532248696E+03  0.54590752674E+03  0.91484142616E+02 0.  0.
        254    2    1    2    0    0 -0.18861611315E+03 -0.42857160332E+03 -0.55513102991E+03  0.11616397623E+04  0.90663488769E+03 0.  0.
         23    2    4    4    0    0  0.25303645795E+03 -0.44097814918E+03 -0.47791209152E+03  0.70378817258E+03  0.91807665981E+02 0.  0.
         23    2    4    4    0    0 -0.44165257110E+03  0.12406545865E+02 -0.77218938394E+02  0.45785158968E+03  0.91947799231E+02 0.  0.
         13    1    3    3    0    0  0.23944777278E+01  0.87638414893E+02  0.35844237043E+02  0.94715545808E+02  0.00000000000E+00 0. -1.
        -13    1    3    3    0    0  0.18622163542E+03  0.34093318843E+03  0.22947824992E+03  0.45119198093E+03  0.00000000000E+00 0.  1.
          1    1    5    5  502    0  0.22265728181E+03 -0.37922993778E+03 -0.45094769379E+03  0.62987731613E+03  0.00000000000E+00 0. -1.
          3    1    6    6  503    0 -0.43818642901E+03  0.81399564412E+01 -0.63202628999E+02  0.44279586467E+03  0.00000000000E+00 0. -1.
         -1    1    5    5    0  502  0.30379176143E+02 -0.61748211409E+02 -0.26964397726E+02  0.73910856443E+02  0.00000000000E+00 0.  1.
         -3    1    6    6    0  503 -0.34661420887E+01  0.42665894240E+01 -0.14016309395E+02  0.15055725002E+02  0.00000000000E+00 0.  1.
<mgrwt>
<rscale>  0 0.16827741E+04</rscale>
<asrwt>0</asrwt>
<pdfrwt beam="1">  1        2 0.15364276E+00 0.16827741E+04</pdfrwt>
<pdfrwt beam="2">  1       -2 0.10905683E+00 0.16827741E+04</pdfrwt>
<totfact> 0.16134814E+01</totfact>
</mgrwt>
</event>
<event>
12    1  0.4672461E-008  0.1101112E+04  0.7818608E-02  0.9204109E-01
         -1   -1    0    0    0  501 -0.00000000000E+00  0.00000000000E+00  0.12607004053E+04  0.12607004053E+04  0.00000000000E+00 0.  1.
          1   -1    0    0  501    0  0.00000000000E+00 -0.00000000000E+00 -0.24043142787E+03  0.24043142787E+03  0.00000000000E+00 0. -1.
         23    2    1    2    0    0 -0.11291886239E+03 -0.32059363658E+02  0.30872821696E+03  0.34223466021E+03  0.89626884483E+02 0.  0.
        254    2    1    2    0    0  0.11291886239E+03  0.32059363658E+02  0.71154076045E+03  0.11588971729E+04  0.90717910656E+03 0.  0.
         23    2    4    4    0    0  0.15149231213E+03 -0.15777524436E+03 -0.14396617561E+03  0.27698657464E+03  0.90290389544E+02 0.  0.
         23    2    4    4    0    0 -0.38573449739E+02  0.18983460802E+03  0.85550693607E+03  0.88191059830E+03  0.91373389504E+02 0.  0.
         11    1    3    3    0    0 -0.60657708376E+02 -0.31279878392E+02  0.69664424284E+02  0.97523947769E+02  0.00000000000E+00 0. -1.
        -11    1    3    3    0    0 -0.52261154017E+02 -0.77948526584E+00  0.23906379268E+03  0.24471071245E+03  0.00000000000E+00 0.  1.
          2    1    5    5  502    0  0.29578143686E+02 -0.66149884327E+01  0.68874165461E+01  0.31081524457E+02  0.00000000000E+00 0. -1.
          1    1    6    6  503    0 -0.42743994046E+01  0.17642274042E+02  0.27090062464E+03  0.27150813755E+03  0.00000000000E+00 0. -1.
         -2    1    5    5    0  502  0.12191416845E+03 -0.15116025592E+03 -0.15085359216E+03  0.24590505018E+03  0.00000000000E+00 0.  1.
         -1    1    6    6    0  503 -0.34299050335E+02  0.17219233397E+03  0.58460631142E+03  0.61040246075E+03  0.00000000000E+00 0.  1.
<mgrwt>
<rscale>  0 0.11011122E+04</rscale>
<asrwt>0</asrwt>
<pdfrwt beam="1">  1        1 0.36989451E-01 0.11011122E+04</pdfrwt>
<pdfrwt beam="2">  1       -1 0.19395391E+00 0.11011122E+04</pdfrwt>
<totfact> 0.19341220E+01</totfact>
</mgrwt>
</event>
<event>
12    1  0.4672461E-008  0.2234775E+04  0.7818608E-02  0.8504092E-01
         -1   -1    0    0    0  501 -0.00000000000E+00  0.00000000000E+00  0.10552715910E+04  0.10552715910E+04  0.00000000000E+00 0.  1.
          1   -1    0    0  501    0  0.00000000000E+00 -0.00000000000E+00 -0.11831595502E+04  0.11831595502E+04  0.00000000000E+00 0. -1.
         23    2    1    2    0    0 -0.87690812501E+03 -0.19776434510E+01 -0.36607031950E+03  0.95468034109E+03  0.91843911420E+02 0.  0.
        254    2    1    2    0    0  0.87690812501E+03  0.19776434510E+01  0.23818236026E+03  0.12837508002E+04  0.90681503593E+03 0.  0.
         23    2    4    4    0    0  0.61688725930E+03 -0.41687466923E+03  0.21945522329E+03  0.78167781330E+03  0.92332162529E+02 0.  0.
         23    2    4    4    0    0  0.26002086571E+03  0.41885231268E+03  0.18727136974E+02  0.50207298686E+03  0.93158295548E+02 0.  0.
         11    1    3    3    0    0 -0.12459741731E+03  0.31831124475E+02 -0.56524817210E+02  0.14047345602E+03  0.00000000000E+00 0.  1.
        -11    1    3    3    0    0 -0.75231070770E+03 -0.33808767926E+02 -0.30954550229E+03  0.81420688507E+03  0.00000000000E+00 0. -1.
          2    1    5    5  502    0  0.23147959800E+03 -0.15712997803E+03  0.12948835272E+03  0.30828536743E+03  0.00000000000E+00 0. -1.
          4    1    6    6  503    0  0.22489470179E+03  0.36737650770E+03 -0.15398942872E+02  0.43102233439E+03  0.00000000000E+00 0. -1.
         -2    1    5    5    0  502  0.38540766131E+03 -0.25974469120E+03  0.89966870571E+02  0.47339244587E+03  0.00000000000E+00 0.  1.
         -4    1    6    6    0  503  0.35126163918E+02  0.51475804989E+02  0.34126079846E+02  0.71050652470E+02  0.00000000000E+00 0.  1.
<mgrwt>
<rscale>  0 0.22347749E+04</rscale>
<asrwt>0</asrwt>
<pdfrwt beam="1">  1        1 0.18202455E+00 0.22347749E+04</pdfrwt>
<pdfrwt beam="2">  1       -1 0.16234948E+00 0.22347749E+04</pdfrwt>
<totfact> 0.28037013E+00</totfact>
</mgrwt>
</event>
<event>
12    1  0.4672461E-008  0.1425666E+04  0.7818608E-02  0.8935447E-01
         -2   -1    0    0    0  501 -0.00000000000E+00  0.00000000000E+00  0.62425994495E+03  0.62425994495E+03  0.00000000000E+00 0.  1.
          2   -1    0    0  501    0  0.00000000000E+00 -0.00000000000E+00 -0.81397311970E+03  0.81397311970E+03  0.00000000000E+00 0. -1.
         23    2    1    2    0    0 -0.26472333017E+03  0.32433775996E+03 -0.12732008917E+03  0.44673089626E+03  0.89914762371E+02 0.  0.
        254    2    1    2    0    0  0.26472333017E+03 -0.32433775996E+03 -0.62393085581E+02  0.99150216839E+03  0.89661041078E+03 0.  0.
         23    2    4    4    0    0 -0.20296797836E+03 -0.22535770274E+03  0.25845898666E+03  0.40850914313E+03  0.89980985835E+02 0.  0.
         23    2    4    4    0    0  0.46769130853E+03 -0.98980057217E+02 -0.32085207225E+03  0.58299302526E+03  0.91665715680E+02 0.  0.
         11    1    3    3    0    0 -0.17913033268E+03  0.23119889949E+03 -0.13033551936E+03  0.32019986699E+03  0.00000000000E+00 0. -1.
        -11    1    3    3    0    0 -0.85592997491E+02  0.93138860467E+02  0.30154301901E+01  0.12653102927E+03  0.00000000000E+00 0.  1.
          3    1    5    5  502    0 -0.16953059026E+03 -0.14000111551E+03  0.21325224304E+03  0.30629634757E+03  0.00000000000E+00 0. -1.
          3    1    6    6  503    0  0.31992960642E+03 -0.10726142373E+03 -0.24255923329E+03  0.41556581637E+03  0.00000000000E+00 0. -1.
         -3    1    5    5    0  502 -0.33437388105E+02 -0.85356587230E+02  0.45206743628E+02  0.10221279556E+03  0.00000000000E+00 0.  1.
         -3    1    6    6    0  503  0.14776170211E+03  0.82813665169E+01 -0.78292838960E+02  0.16742720888E+03  0.00000000000E+00 0.  1.
<mgrwt>
<rscale>  0 0.14256659E+04</rscale>
<asrwt>0</asrwt>
<pdfrwt beam="1">  1        2 0.12522663E+00 0.14256659E+04</pdfrwt>
<pdfrwt beam="2">  1       -2 0.96039992E-01 0.14256659E+04</pdfrwt>
<totfact> 0.29715511E+01</totfact>
</mgrwt>
</event>
<event>
12    1  0.4672461E-008  0.2429915E+04  0.7818608E-02  0.8428388E-01
         -1   -1    0    0    0  501 -0.00000000000E+00  0.00000000000E+00  0.13473294050E+04  0.13473294050E+04  0.00000000000E+00 0.  1.
          1   -1    0    0  501    0  0.00000000000E+00 -0.00000000000E+00 -0.10955908221E+04  0.10955908221E+04  0.00000000000E+00 0. -1.
         23    2    1    2    0    0 -0.57607355300E+03  0.84094101049E+03 -0.14107953184E+03  0.10330726710E+04  0.91066940840E+02 0.  0.
        254    2    1    2    0    0  0.57607355300E+03 -0.84094101049E+03  0.39281811472E+03  0.14098475561E+04  0.89124718147E+03 0.  0.
         23    2    4    4    0    0  0.44739572943E+03  0.39277821228E+02  0.96674551719E+02  0.46828845281E+03  0.90787775281E+02 0.  0.
         23    2    4    4    0    0  0.12867782357E+03 -0.88021883171E+03  0.29614356300E+03  0.94155910324E+03  0.86541094328E+02 0.  0.
         13    1    3    3    0    0 -0.28797025041E+03  0.37918044046E+03 -0.10524078448E+03  0.48762720829E+03  0.00000000000E+00 0. -1.
        -13    1    3    3    0    0 -0.28810330259E+03  0.46176057003E+03 -0.35838747355E+02  0.54544546273E+03  0.00000000000E+00 0.  1.
          3    1    5    5  502    0  0.24755508181E+02  0.24181299307E+02  0.14230498643E+02  0.37417609666E+02  0.00000000000E+00 0. -1.
          3    1    6    6  503    0  0.75272081308E+02 -0.30275110566E+03  0.74701423878E+02  0.32078718948E+03  0.00000000000E+00 0. -1.
         -3    1    5    5    0  502  0.42264022124E+03  0.15096521921E+02  0.82444053077E+02  0.43087084315E+03  0.00000000000E+00 0.  1.
         -3    1    6    6    0  503  0.53405742267E+02 -0.57746772605E+03  0.22144213912E+03  0.62077191376E+03  0.00000000000E+00 0.  1.
<mgrwt>
<rscale>  0 0.24299150E+04</rscale>
<asrwt>0</asrwt>
<pdfrwt beam="1">  1        1 0.16855244E+00 0.24299150E+04</pdfrwt>
<pdfrwt beam="2">  1       -1 0.20728145E+00 0.24299150E+04</pdfrwt>
<totfact> 0.15319392E+00</totfact>
</mgrwt>
</event>
<event>
12    1  0.4672461E-008  0.2408257E+04  0.7818608E-02  0.8436419E-01
         -2   -1    0    0    0  501 -0.00000000000E+00  0.00000000000E+00  0.62446375560E+03  0.62446375560E+03  0.00000000000E+00 0.  1.
          2   -1    0    0  501    0  0.00000000000E+00 -0.00000000000E+00 -0.23218733823E+04  0.23218733823E+04  0.00000000000E+00 0. -1.
         23    2    1    2    0    0 -0.97234950470E+03  0.12054886974E+03 -0.32768618562E+03  0.10372476107E+04  0.92243050781E+02 0.  0.
        254    2    1    2    0    0  0.97234950470E+03 -0.12054886974E+03 -0.13697234411E+04  0.19090895272E+04  0.89915789962E+03 0.  0.
         23    2    4    4    0    0  0.34312318780E+03 -0.26480900613E+03 -0.61046438870E+02  0.44689439665E+03  0.90169852670E+02 0.  0.
         23    2    4    4    0    0  0.62922631690E+03  0.14426013639E+03 -0.13086770022E+04  0.14621951305E+04  0.92964287563E+02 0.  0.
         13    1    3    3    0    0 -0.23748702383E+03  0.66724888519E+02 -0.98157135316E+02  0.26549410624E+03  0.00000000000E+00 0. -1.
        -13    1    3    3    0    0 -0.73486248087E+03  0.53823981221E+02 -0.22952905030E+03  0.77175350448E+03  0.00000000000E+00 0.  1.
          4    1    5    5  502    0  0.25685108502E+03 -0.15839323458E+03 -0.14143438215E+02  0.30209424602E+03  0.00000000000E+00 0. -1.
          3    1    6    6  503    0  0.60400674104E+03  0.15204406162E+03 -0.12782012505E+04  0.14218790302E+04  0.00000000000E+00 0. -1.
         -4    1    5    5    0  502  0.86272102782E+02 -0.10641577155E+03 -0.46903000655E+02  0.14480015063E+03  0.00000000000E+00 0.  1.
         -3    1    6    6    0  503  0.25219575865E+02 -0.77839252316E+01 -0.30475751760E+02  0.40316100309E+02  0.00000000000E+00 0.  1.
<mgrwt>
<rscale>  0 0.24082573E+04</rscale>
<asrwt>0</asrwt>
<pdfrwt beam="1">  1        2 0.35721129E+00 0.24082573E+04</pdfrwt>
<pdfrwt beam="2">  1       -2 0.96071346E-01 0.24082573E+04</pdfrwt>
<totfact> 0.35936622E+00</totfact>
</mgrwt>
</event>
<event>
12    1  0.4672461E-008  0.1281405E+04  0.7818608E-02  0.9044442E-01
          1   -1    0    0  501    0  0.00000000000E+00  0.00000000000E+00  0.13230515067E+04  0.13230515067E+04  0.00000000000E+00 0. -1.
         -1   -1    0    0    0  501 -0.00000000000E+00 -0.00000000000E+00 -0.31026755834E+03  0.31026755834E+03  0.00000000000E+00 0.  1.
         23    2    1    2    0    0 -0.16098510932E+03 -0.19066894239E+03  0.41025601942E+03  0.48867538123E+03  0.90679522136E+02 0.  0.
        254    2    1    2    0    0  0.16098510932E+03  0.19066894239E+03  0.60252792896E+03  0.11446436838E+04  0.94069038835E+03 0.  0.
         23    2    4    4    0    0  0.22070630177E+03 -0.23681493213E+03 -0.66534285393E+02  0.34287785050E+03  0.91355489763E+02 0.  0.
         23    2    4    4    0    0 -0.59721192448E+02  0.42748387453E+03  0.66906221435E+03  0.80176583332E+03  0.94207860622E+02 0.  0.
         11    1    3    3    0    0 -0.15239982567E+03 -0.12422506202E+03  0.32998663856E+03  0.38412075514E+03  0.00000000000E+00 0. -1.
        -11    1    3    3    0    0 -0.85852836567E+01 -0.66443880375E+02  0.80269380854E+02  0.10455462609E+03  0.00000000000E+00 0.  1.
          2    1    5    5  502    0  0.20101857597E+03 -0.24183766020E+03 -0.54205169312E+02  0.31911145726E+03  0.00000000000E+00 0. -1.
          1    1    6    6  503    0 -0.42001195958E+02  0.40944980274E+03  0.65272906000E+03  0.77166603346E+03  0.00000000000E+00 0. -1.
         -2    1    5    5    0  502  0.19687725800E+02  0.50227280635E+01 -0.12329116082E+02  0.23766393242E+02  0.00000000000E+00 0.  1.
         -1    1    6    6    0  503 -0.17719996490E+02  0.18034071790E+02  0.16333154354E+02  0.30099799868E+02  0.00000000000E+00 0.  1.
<mgrwt>
<rscale>  0 0.12814054E+04</rscale>
<asrwt>0</asrwt>
<pdfrwt beam="1">  1        1 0.20354638E+00 0.12814054E+04</pdfrwt>
<pdfrwt beam="2">  1       -1 0.47733471E-01 0.12814054E+04</pdfrwt>
<totfact> 0.37551521E+01</totfact>
</mgrwt>
</event>
<event>
12    1  0.4672461E-008  0.2549294E+04  0.7818608E-02  0.8385632E-01
          2   -1    0    0  501    0  0.00000000000E+00  0.00000000000E+00  0.42488191433E+04  0.42488191433E+04  0.00000000000E+00 0.  1.
         -2   -1    0    0    0  501 -0.00000000000E+00 -0.00000000000E+00 -0.38239461374E+03  0.38239461374E+03  0.00000000000E+00 0. -1.
         23    2    1    2    0    0  0.40585530605E+03 -0.11300381639E+02 -0.18984739529E+03  0.45720225447E+03  0.90253198945E+02 0.  0.
        254    2    1    2    0    0 -0.40585530605E+03  0.11300381639E+02  0.40562719249E+04  0.41740115026E+04  0.89676299386E+03 0.  0.
         23    2    4    4    0    0  0.12237168859E+03  0.17144009237E+03  0.26604056787E+04  0.26703739976E+04  0.93660963883E+02 0.  0.
         23    2    4    4    0    0 -0.52822699465E+03 -0.16013971073E+03  0.13958662462E+04  0.15036375050E+04  0.88400704119E+02 0.  0.
         13    1    3    3    0    0  0.38633954007E+03  0.10249769648E+02 -0.18137438767E+03  0.42691915687E+03  0.00000000000E+00 0. -1.
        -13    1    3    3    0    0  0.19515765986E+02 -0.21550151287E+02 -0.84730076244E+01  0.30283097608E+02  0.00000000000E+00 0.  1.
          4    1    5    5  502    0  0.28969075162E+01 -0.10925429820E+02  0.83381679122E+02  0.84144289783E+02  0.00000000000E+00 0. -1.
          1    1    6    6  503    0 -0.14705871193E+01  0.49085414924E+01  0.30135233649E+02  0.30567772460E+02  0.00000000000E+00 0. -1.
         -4    1    5    5    0  502  0.11947478108E+03  0.18236552219E+03  0.25770239996E+04  0.25862297078E+04  0.00000000000E+00 0.  1.
         -1    1    6    6    0  503 -0.52675640753E+03 -0.16504825222E+03  0.13657310125E+04  0.14730697326E+04  0.00000000000E+00 0.  1.
<mgrwt>
<rscale>  0 0.25492945E+04</rscale>
<asrwt>0</asrwt>
<pdfrwt beam="1">  1        2 0.65366445E+00 0.25492945E+04</pdfrwt>
<pdfrwt beam="2">  1       -2 0.58829943E-01 0.25492945E+04</pdfrwt>
<totfact> 0.50739065E-01</totfact>
</mgrwt>
</event>
<event>
12    1  0.4672461E-008  0.1509272E+04  0.7818608E-02  0.8878310E-01
          1   -1    0    0  501    0  0.00000000000E+00  0.00000000000E+00  0.54898784751E+03  0.54898784751E+03  0.00000000000E+00 0. -1.
         -1   -1    0    0    0  501 -0.00000000000E+00 -0.00000000000E+00 -0.10373192238E+04  0.10373192238E+04  0.00000000000E+00 0.  1.
         23    2    1    2    0    0 -0.34651535442E+03  0.30132696276E+03 -0.12210319760E+03  0.48355551979E+03  0.89699055255E+02 0.  0.
        254    2    1    2    0    0  0.34651535442E+03 -0.30132696276E+03 -0.36622817864E+03  0.11027515515E+04  0.93330974286E+03 0.  0.
         23    2    4    4    0    0  0.52465067093E+03 -0.35519179785E+03  0.45285238657E+02  0.64182150471E+03  0.92002996133E+02 0.  0.
         23    2    4    4    0    0 -0.17813531651E+03  0.53864835092E+02 -0.41151341730E+03  0.46093004677E+03  0.92084765026E+02 0.  0.
         13    1    3    3    0    0 -0.32518866062E+03  0.29635814559E+03 -0.13225274340E+03  0.45941985546E+03  0.00000000000E+00 0. -1.
        -13    1    3    3    0    0 -0.21326693802E+02  0.49688171745E+01  0.10149545799E+02  0.24135664329E+02  0.00000000000E+00 0.  1.
          4    1    5    5  502    0  0.37840161569E+02 -0.59735389921E+02  0.23705328642E+01  0.70751777806E+02  0.00000000000E+00 0.  1.
          3    1    6    6  503    0 -0.12479916929E+03  0.42281262134E+02 -0.36877331248E+03  0.39160732090E+03  0.00000000000E+00 0. -1.
         -4    1    5    5    0  502  0.48681050936E+03 -0.29545640793E+03  0.42914705793E+02  0.57106972690E+03  0.00000000000E+00 0. -1.
         -3    1    6    6    0  503 -0.53336147213E+02  0.11583572959E+02 -0.42740104819E+02  0.69322725869E+02  0.00000000000E+00 0.  1.
<mgrwt>
<rscale>  0 0.15092722E+04</rscale>
<asrwt>0</asrwt>
<pdfrwt beam="1">  1        1 0.84459670E-01 0.15092722E+04</pdfrwt>
<pdfrwt beam="2">  1       -1 0.15958757E+00 0.15092722E+04</pdfrwt>
<totfact> 0.11065848E+01</totfact>
</mgrwt>
</event>
<event>
12    1  0.4672461E-008  0.1549675E+04  0.7818608E-02  0.8852075E-01
         -1   -1    0    0    0  501 -0.00000000000E+00  0.00000000000E+00  0.69758909400E+03  0.69758909400E+03  0.00000000000E+00 0.  1.
          1   -1    0    0  501    0  0.00000000000E+00 -0.00000000000E+00 -0.86064027700E+03  0.86064027700E+03  0.00000000000E+00 0. -1.
         23    2    1    2    0    0  0.32077058854E+02  0.19074706997E+02  0.46456159189E+03  0.47511684435E+03  0.92335047373E+02 0.  0.
        254    2    1    2    0    0 -0.32077058854E+02 -0.19074706997E+02 -0.62761277490E+03  0.10831125267E+04  0.88195360877E+03 0.  0.
         23    2    4    4    0    0  0.27131838350E+02  0.25895652935E+03  0.10205541217E+03  0.29465480812E+03  0.92798319216E+02 0.  0.
         23    2    4    4    0    0 -0.59208897204E+02 -0.27803123635E+03 -0.72966818707E+03  0.78845771853E+03  0.91884975964E+02 0.  0.
         13    1    3    3    0    0 -0.15778267994E+02 -0.46009289290E+01  0.32914021815E+03  0.32955030798E+03  0.00000000000E+00 0. -1.
        -13    1    3    3    0    0  0.47855326847E+02  0.23675635926E+02  0.13542137375E+03  0.14556653637E+03  0.00000000000E+00 0.  1.
          4    1    5    5  502    0 -0.12872067970E+02  0.12652069620E+03  0.89971934701E+02  0.15578230238E+03  0.00000000000E+00 0. -1.
          1    1    6    6  503    0  0.15762019371E+02 -0.13396168107E+03 -0.37004809227E+03  0.39386515947E+03  0.00000000000E+00 0. -1.
         -4    1    5    5    0  502  0.40003906320E+02  0.13243583314E+03  0.12083477469E+02  0.13887250574E+03  0.00000000000E+00 0.  1.
         -1    1    6    6    0  503 -0.74970916575E+02 -0.14406955528E+03 -0.35962009479E+03  0.39459255907E+03  0.00000000000E+00 0.  1.
<mgrwt>
<rscale>  0 0.15496752E+04</rscale>
<asrwt>0</asrwt>
<pdfrwt beam="1">  1        1 0.13240620E+00 0.15496752E+04</pdfrwt>
<pdfrwt beam="2">  1       -1 0.10732140E+00 0.15496752E+04</pdfrwt>
<totfact> 0.15294152E+01</totfact>
</mgrwt>
</event>
<event>
12    1  0.4672461E-008  0.2005308E+04  0.7818608E-02  0.8604143E-01
         -1   -1    0    0    0  501 -0.00000000000E+00  0.00000000000E+00  0.70330300110E+03  0.70330300110E+03  0.00000000000E+00 0. -1.
          1   -1    0    0  501    0  0.00000000000E+00 -0.00000000000E+00 -0.14294201075E+04  0.14294201075E+04  0.00000000000E+00 0.  1.
         23    2    1    2    0    0  0.21601104924E+03 -0.69501610360E+03 -0.63400128080E+03  0.96958998120E+03  0.91863757453E+02 0.  0.
        254    2    1    2    0    0 -0.21601104924E+03  0.69501610360E+03 -0.92115825643E+02  0.11631331274E+04  0.90259912982E+03 0.  0.
         23    2    4    4    0    0  0.12918455854E+03  0.49138961144E+03 -0.39682382215E+03  0.65107594782E+03  0.90985403281E+02 0.  0.
         23    2    4    4    0    0 -0.34519560778E+03  0.20362649216E+03  0.30470799651E+03  0.51205717962E+03  0.93444294200E+02 0.  0.
         11    1    3    3    0    0  0.82400240735E+01 -0.86453732566E+02 -0.46206773027E+02  0.98372820153E+02  0.00000000000E+00 0. -1.
        -11    1    3    3    0    0  0.20777102517E+03 -0.60856237104E+03 -0.58779450777E+03  0.87121716105E+03  0.00000000000E+00 0.  1.
          2    1    5    5  502    0  0.36627149692E+02  0.27890849581E+03 -0.25280478287E+03  0.37820861356E+03  0.00000000000E+00 0. -1.
          1    1    6    6  503    0 -0.33575425464E+03  0.17588874851E+03  0.29760172766E+03  0.48190721064E+03  0.00000000000E+00 0. -1.
         -2    1    5    5    0  502  0.92557408846E+02  0.21248111563E+03 -0.14401903928E+03  0.27286733426E+03  0.00000000000E+00 0.  1.
         -1    1    6    6    0  503 -0.94413531355E+01  0.27737743657E+02  0.71062688512E+01  0.30149968975E+02  0.00000000000E+00 0.  1.
<mgrwt>
<rscale>  0 0.20053084E+04</rscale>
<asrwt>0</asrwt>
<pdfrwt beam="1">  1        1 0.21991079E+00 0.20053084E+04</pdfrwt>
<pdfrwt beam="2">  1       -1 0.10820046E+00 0.20053084E+04</pdfrwt>
<totfact> 0.53902732E+00</totfact>
</mgrwt>
</event>
<event>
12    1  0.4672461E-008  0.1228184E+04  0.7818608E-02  0.9088539E-01
          1   -1    0    0  501    0  0.00000000000E+00  0.00000000000E+00  0.11930158007E+04  0.11930158007E+04  0.00000000000E+00 0. -1.
         -1   -1    0    0    0  501 -0.00000000000E+00 -0.00000000000E+00 -0.31609719209E+03  0.31609719209E+03  0.00000000000E+00 0.  1.
         23    2    1    2    0    0 -0.19000931058E+03  0.14419519581E+03  0.25846407957E+03  0.36412161496E+03  0.94260688793E+02 0.  0.
        254    2    1    2    0    0  0.19000931058E+03 -0.14419519581E+03  0.61845452899E+03  0.11449913778E+04  0.93360776462E+03 0.  0.
         23    2    4    4    0    0 -0.12849720631E+03 -0.46458427988E+03  0.41033775451E+03  0.63949614412E+03  0.90709208016E+02 0.  0.
         23    2    4    4    0    0  0.31850651689E+03  0.32038908407E+03  0.20811677448E+03  0.50549523366E+03  0.90095909675E+02 0.  0.
         13    1    3    3    0    0 -0.17732161134E+03  0.11052491267E+03  0.17257330358E+03  0.27099862597E+03  0.00000000000E+00 0. -1.
        -13    1    3    3    0    0 -0.12687699244E+02  0.33670283139E+02  0.85890775991E+02  0.93122988994E+02  0.00000000000E+00 0.  1.
          3    1    6    6  502    0  0.23951056690E+02  0.70236669136E+02  0.34942684760E+02  0.82023374876E+02  0.00000000000E+00 0.  1.
          3    1    5    5  503    0 -0.55704805806E+02 -0.25896452663E+03  0.27979019780E+03  0.38528976917E+03  0.00000000000E+00 0. -1.
         -3    1    5    5    0  503 -0.72792400506E+02 -0.20561975326E+03  0.13054755670E+03  0.25420637495E+03  0.00000000000E+00 0.  1.
         -3    1    6    6    0  502  0.29455546020E+03  0.25015241494E+03  0.17317408972E+03  0.42347185879E+03  0.00000000000E+00 0. -1.
<mgrwt>
<rscale>  0 0.12281839E+04</rscale>
<asrwt>0</asrwt>
<pdfrwt beam="1">  1        1 0.18354089E+00 0.12281839E+04</pdfrwt>
<pdfrwt beam="2">  1       -1 0.48630338E-01 0.12281839E+04</pdfrwt>
<totfact> 0.45178512E+01</totfact>
</mgrwt>
</event>
<event>
12    1  0.4672461E-008  0.1422167E+04  0.7818608E-02  0.8937927E-01
         -1   -1    0    0    0  501 -0.00000000000E+00  0.00000000000E+00  0.25016752336E+03  0.25016752336E+03  0.00000000000E+00 0.  1.
          1   -1    0    0  501    0  0.00000000000E+00 -0.00000000000E+00 -0.20212052415E+04  0.20212052415E+04  0.00000000000E+00 0. -1.
         23    2    1    2    0    0  0.16689235602E+03 -0.19840925600E+03 -0.13128931249E+04  0.13413391775E+04  0.91011759530E+02 0.  0.
        254    2    1    2    0    0 -0.16689235602E+03  0.19840925600E+03 -0.45814459320E+03  0.93003358730E+03  0.76671162366E+03 0.  0.
         23    2    4    4    0    0  0.27046100422E+02  0.45887666186E+03 -0.30456447288E+03  0.55926623393E+03  0.93380511473E+02 0.  0.
         23    2    4    4    0    0 -0.19393845644E+03 -0.26046740586E+03 -0.15358012032E+03  0.37076735337E+03  0.91794240369E+02 0.  0.
         13    1    3    3    0    0  0.22457109281E+02  0.65863347677E+01 -0.13945782651E+03  0.14140787439E+03  0.00000000000E+00 0.  1.
        -13    1    3    3    0    0  0.14443524674E+03 -0.20499559077E+03 -0.11734352984E+04  0.11999313032E+04  0.00000000000E+00 0. -1.
          4    1    6    6  502    0 -0.94565531306E+02 -0.18476738826E+03 -0.64551224295E+02  0.21736717331E+03  0.00000000000E+00 0.  1.
          4    1    5    5  503    0 -0.18248628430E+02  0.18239255757E+03 -0.16332035648E+03  0.24550681526E+03  0.00000000000E+00 0. -1.
         -4    1    5    5    0  503  0.45294728852E+02  0.27648410429E+03 -0.14124411640E+03  0.31375941867E+03  0.00000000000E+00 0.  1.
         -4    1    6    6    0  502 -0.99372925135E+02 -0.75700017602E+02 -0.89028896025E+02  0.15340018006E+03  0.00000000000E+00 0. -1.
<mgrwt>
<rscale>  0 0.14221672E+04</rscale>
<asrwt>0</asrwt>
<pdfrwt beam="1">  1        1 0.31095467E+00 0.14221672E+04</pdfrwt>
<pdfrwt beam="2">  1       -1 0.38487309E-01 0.14221672E+04</pdfrwt>
<totfact> 0.18355662E+01</totfact>
</mgrwt>
</event>
<event>
12    1  0.4672461E-008  0.1576379E+04  0.7818608E-02  0.8835192E-01
          2   -1    0    0  501    0  0.00000000000E+00  0.00000000000E+00  0.46456490917E+03  0.46456490917E+03  0.00000000000E+00 0. -1.
         -2   -1    0    0    0  501 -0.00000000000E+00 -0.00000000000E+00 -0.13372565223E+04  0.13372565223E+04  0.00000000000E+00 0.  1.
         23    2    1    2    0    0  0.14720052593E+03  0.42909683662E+03 -0.62782882550E+03  0.78467405825E+03  0.12550798190E+03 0.  0.
        254    2    1    2    0    0 -0.14720052593E+03 -0.42909683662E+03 -0.24486278766E+03  0.10171473733E+04  0.87683459337E+03 0.  0.
         23    2    4    4    0    0  0.53255100636E+02 -0.42466142896E+03 -0.50957428300E+03  0.67143830215E+03  0.89386848596E+02 0.  0.
         23    2    4    4    0    0 -0.20045562657E+03 -0.44354076546E+01  0.26471149535E+03  0.34570907112E+03  0.96127285520E+02 0.  0.
         11    1    3    3    0    0  0.10966865825E+02  0.16169595791E+03 -0.29453221608E+03  0.33617715755E+03  0.00000000000E+00 0.  1.
        -11    1    3    3    0    0  0.13623366011E+03  0.26740087870E+03 -0.33329660943E+03  0.44849690070E+03  0.00000000000E+00 0. -1.
          2    1    5    5  502    0  0.38204885775E+02 -0.41623011097E+03 -0.47444263127E+03  0.63229971449E+03  0.00000000000E+00 0.  1.
          1    1    6    6  503    0 -0.41144366176E+01 -0.21480479235E+02  0.11104383411E+02  0.24528491755E+02  0.00000000000E+00 0. -1.
         -2    1    5    5    0  502  0.15050214860E+02 -0.84313179894E+01 -0.35131651736E+02  0.39138587660E+02  0.00000000000E+00 0. -1.
         -1    1    6    6    0  503 -0.19634118995E+03  0.17045071580E+02  0.25360711193E+03  0.32118057936E+03  0.00000000000E+00 0.  1.
<mgrwt>
<rscale>  0 0.15763787E+04</rscale>
<asrwt>0</asrwt>
<pdfrwt beam="1">  1        2 0.71471525E-01 0.15763787E+04</pdfrwt>
<pdfrwt beam="2">  1       -2 0.20573177E+00 0.15763787E+04</pdfrwt>
<totfact> 0.78520666E+00</totfact>
</mgrwt>
</event>
<event>
12    1  0.4672461E-008  0.1143020E+04  0.7818608E-02  0.9164247E-01
          1   -1    0    0  501    0  0.00000000000E+00  0.00000000000E+00  0.52825133001E+03  0.52825133001E+03  0.00000000000E+00 0. -1.
         -1   -1    0    0    0  501 -0.00000000000E+00 -0.00000000000E+00 -0.61831115098E+03  0.61831115098E+03  0.00000000000E+00 0.  1.
         23    2    1    2    0    0 -0.32438031982E+01 -0.57561921218E+02  0.18489935438E+03  0.21314294333E+03  0.88984526785E+02 0.  0.
        254    2    1    2    0    0  0.32438031982E+01  0.57561921218E+02 -0.27495917535E+03  0.93341953766E+03  0.89013796018E+03 0.  0.
         23    2    4    4    0    0  0.24987665411E+02  0.22505701508E+03 -0.54881525279E+03  0.60049528258E+03  0.90118584339E+02 0.  0.
         23    2    4    4    0    0 -0.21743862213E+02 -0.16749509387E+03  0.27385607744E+03  0.33292425508E+03  0.85521964759E+02 0.  0.
         13    1    3    3    0    0 -0.24405927666E+02 -0.18624715984E+02  0.93597158395E+01  0.32095694903E+02  0.00000000000E+00 0.  1.
        -13    1    3    3    0    0  0.21162124468E+02 -0.38937205235E+02  0.17553963854E+03  0.18104724843E+03  0.00000000000E+00 0. -1.
          1    1    5    5  502    0 -0.29750555595E+02  0.68291940503E+02 -0.12788835888E+03  0.14800107105E+03  0.00000000000E+00 0. -1.
          3    1    6    6  503    0  0.12264370985E+02  0.38196238272E+01  0.90789443528E+01  0.15729957165E+02  0.00000000000E+00 0. -1.
         -1    1    5    5    0  502  0.54738221006E+02  0.15676507458E+03 -0.42092689392E+03  0.45249421153E+03  0.00000000000E+00 0.  1.
         -3    1    6    6    0  503 -0.34008233198E+02 -0.17131471769E+03  0.26477713309E+03  0.31719429792E+03  0.00000000000E+00 0.  1.
<mgrwt>
<rscale>  0 0.11430200E+04</rscale>
<asrwt>0</asrwt>
<pdfrwt beam="1">  1        1 0.81269436E-01 0.11430200E+04</pdfrwt>
<pdfrwt beam="2">  1       -1 0.95124792E-01 0.11430200E+04</pdfrwt>
<totfact> 0.43580071E+01</totfact>
</mgrwt>
</event>
<event>
12    1  0.4672461E-008  0.2316101E+04  0.7818608E-02  0.8471600E-01
         -2   -1    0    0    0  501 -0.00000000000E+00  0.00000000000E+00  0.40813807211E+03  0.40813807211E+03  0.00000000000E+00 0.  1.
          2   -1    0    0  501    0  0.00000000000E+00 -0.00000000000E+00 -0.32858504591E+04  0.32858504591E+04  0.00000000000E+00 0. -1.
         23    2    1    2    0    0 -0.15930369359E+03  0.90164875746E+03 -0.66205954545E+03  0.11336411186E+04  0.92039097140E+02 0.  0.
        254    2    1    2    0    0  0.15930369359E+03 -0.90164875746E+03 -0.22156528416E+04  0.25603474127E+04  0.89883992487E+03 0.  0.
         23    2    4    4    0    0 -0.17453581836E+03 -0.61020731218E+03 -0.19089601255E+04  0.20137193916E+04  0.90118321674E+02 0.  0.
         23    2    4    4    0    0  0.33383951195E+03 -0.29144144528E+03 -0.30669271612E+03  0.54662802104E+03  0.91404789246E+02 0.  0.
         13    1    3    3    0    0 -0.13467839835E+03  0.52389047753E+03 -0.36697161003E+03  0.65365714713E+03  0.00000000000E+00 0. -1.
        -13    1    3    3    0    0 -0.24625295246E+02  0.37775827993E+03 -0.29508793541E+03  0.47998397145E+03  0.00000000000E+00 0.  1.
          2    1    5    5  502    0 -0.10599869370E+03 -0.22402627735E+03 -0.68533144140E+03  0.72876791956E+03  0.00000000000E+00 0. -1.
          3    1    6    6  503    0  0.33429111409E+03 -0.28263325423E+03 -0.28280197193E+03  0.52116126169E+03  0.00000000000E+00 0. -1.
         -2    1    5    5    0  502 -0.68537124664E+02 -0.38618103483E+03 -0.12236286841E+04  0.12849514721E+04  0.00000000000E+00 0.  1.
         -3    1    6    6    0  503 -0.45160213598E+00 -0.88081910557E+01 -0.23890744190E+02  0.25466759356E+02  0.00000000000E+00 0.  1.
<mgrwt>
<rscale>  0 0.23161008E+04</rscale>
<asrwt>0</asrwt>
<pdfrwt beam="1">  1        2 0.50551544E+00 0.23161008E+04</pdfrwt>
<pdfrwt beam="2">  1       -2 0.62790474E-01 0.23161008E+04</pdfrwt>
<totfact> 0.24273171E+00</totfact>
</mgrwt>
</event>
<event>
12    1  0.4672461E-008  0.1823340E+04  0.7818608E-02  0.8693985E-01
          2   -1    0    0  501    0  0.00000000000E+00  0.00000000000E+00  0.53235854612E+03  0.53235854612E+03  0.00000000000E+00 0. -1.
         -2   -1    0    0    0  501 -0.00000000000E+00 -0.00000000000E+00 -0.15612452387E+04  0.15612452387E+04  0.00000000000E+00 0.  1.
         23    2    1    2    0    0  0.49259927523E+03  0.69693847984E+02  0.16434813710E+03  0.53212639087E+03  0.92934962703E+02 0.  0.
        254    2    1    2    0    0 -0.49259927523E+03 -0.69693847984E+02 -0.11932348297E+04  0.15614773939E+04  0.87572313810E+03 0.  0.
         23    2    4    4    0    0  0.21162032858E+03  0.13504488922E+03 -0.27998526790E+03  0.38654364782E+03  0.89464830278E+02 0.  0.
         23    2    4    4    0    0 -0.70421960381E+03 -0.20473873720E+03 -0.91324956176E+03  0.11749337461E+04  0.92743435130E+02 0.  0.
         11    1    3    3    0    0  0.12341718571E+02  0.11747907545E+02 -0.77038193021E+01  0.18699737453E+02  0.00000000000E+00 0.  1.
        -11    1    3    3    0    0  0.48025755666E+03  0.57945940439E+02  0.17205195640E+03  0.51342665342E+03  0.00000000000E+00 0. -1.
          2    1    5    5  502    0  0.12768518458E+03  0.12397057850E+03 -0.21904965340E+03  0.28223210545E+03  0.00000000000E+00 0. -1.
          4    1    6    6  503    0 -0.11141412101E+03 -0.64032133775E+02 -0.13238844635E+03  0.18449910906E+03  0.00000000000E+00 0. -1.
         -2    1    5    5    0  502  0.83935144001E+02  0.11074310719E+02 -0.60935614500E+02  0.10431154237E+03  0.00000000000E+00 0.  1.
         -4    1    6    6    0  503 -0.59280548280E+03 -0.14070660343E+03 -0.78086111541E+03  0.99043463704E+03  0.00000000000E+00 0.  1.
<mgrwt>
<rscale>  0 0.18233401E+04</rscale>
<asrwt>0</asrwt>
<pdfrwt beam="1">  1        2 0.81901316E-01 0.18233401E+04</pdfrwt>
<pdfrwt beam="2">  1       -2 0.24019157E+00 0.18233401E+04</pdfrwt>
<totfact> 0.39816273E+00</totfact>
</mgrwt>
</event>
<event>
12    1  0.4672461E-008  0.1247897E+04  0.7818608E-02  0.9071936E-01
          2   -1    0    0  501    0  0.00000000000E+00  0.00000000000E+00  0.16941059465E+04  0.16941059465E+04  0.00000000000E+00 0. -1.
         -2   -1    0    0    0  501 -0.00000000000E+00 -0.00000000000E+00 -0.22980357398E+03  0.22980357398E+03  0.00000000000E+00 0.  1.
         23    2    1    2    0    0 -0.22675456573E+02 -0.21078242862E+03  0.57425222447E+02  0.23745172090E+03  0.90234444854E+02 0.  0.
        254    2    1    2    0    0  0.22675456573E+02  0.21078242862E+03  0.14068771501E+04  0.16864577996E+04  0.90547953363E+03 0.  0.
         23    2    4    4    0    0  0.38923840341E+03 -0.35264084230E+02  0.33284606231E+03  0.52159711538E+03  0.92341535867E+02 0.  0.
         23    2    4    4    0    0 -0.36656294684E+03  0.24604651285E+03  0.10740310878E+04  0.11648606842E+04  0.91925815939E+02 0.  0.
         11    1    3    3    0    0 -0.46501856546E+01 -0.94723725072E+02  0.72039071316E+02  0.11909591141E+03  0.00000000000E+00 0. -1.
        -11    1    3    3    0    0 -0.18025270918E+02 -0.11605870355E+03 -0.14613848869E+02  0.11835580949E+03  0.00000000000E+00 0.  1.
          2    1    5    5  502    0  0.97327311950E+02  0.11056361523E+02  0.40874325849E+02  0.10613933906E+03  0.00000000000E+00 0. -1.
          1    1    6    6  503    0 -0.12224474573E+03  0.12598502105E+03  0.49016573918E+03  0.52065195213E+03  0.00000000000E+00 0. -1.
         -2    1    5    5    0  502  0.29191109146E+03 -0.46320445753E+02  0.29197173646E+03  0.41545777632E+03  0.00000000000E+00 0.  1.
         -1    1    6    6    0  503 -0.24431820111E+03  0.12006149180E+03  0.58386534860E+03  0.64420873209E+03  0.00000000000E+00 0.  1.
<mgrwt>
<rscale>  0 0.12478968E+04</rscale>
<asrwt>0</asrwt>
<pdfrwt beam="1">  1        2 0.26063168E+00 0.12478968E+04</pdfrwt>
<pdfrwt beam="2">  1       -2 0.35354397E-01 0.12478968E+04</pdfrwt>
<totfact> 0.73022260E+01</totfact>
</mgrwt>
</event>
<event>
12    1  0.4672461E-008  0.2222821E+04  0.7818608E-02  0.8508989E-01
         -2   -1    0    0    0  501 -0.00000000000E+00  0.00000000000E+00  0.70211699455E+03  0.70211699455E+03  0.00000000000E+00 0.  1.
          2   -1    0    0  501    0  0.00000000000E+00 -0.00000000000E+00 -0.17592988503E+04  0.17592988503E+04  0.00000000000E+00 0. -1.
         23    2    1    2    0    0  0.78149481028E+03 -0.49118461158E+03 -0.33635899782E+03  0.98654029464E+03  0.90154957625E+02 0.  0.
        254    2    1    2    0    0 -0.78149481028E+03  0.49118461158E+03 -0.72082285796E+03  0.14748755502E+04  0.89647969023E+03 0.  0.
         23    2    4    4    0    0 -0.75039568219E+03  0.83725837239E+02 -0.73320344282E+03  0.10563297565E+04  0.90230650337E+02 0.  0.
         23    2    4    4    0    0 -0.31099128088E+02  0.40745877434E+03  0.12380584867E+02  0.41854579373E+03  0.89652071986E+02 0.  0.
         13    1    3    3    0    0  0.14084147684E+02 -0.23854189448E+01  0.44263072008E+01  0.14954786356E+02  0.00000000000E+00 0. -1.
        -13    1    3    3    0    0  0.76741066259E+03 -0.48879919263E+03 -0.34078530502E+03  0.97158550828E+03  0.00000000000E+00 0.  1.
          4    1    5    5  502    0 -0.59407403430E+03  0.29020218166E+02 -0.57699296961E+03  0.82866580614E+03  0.00000000000E+00 0. -1.
          4    1    6    6  503    0 -0.38505191358E+01  0.67774745148E+02 -0.31719214795E+02  0.74928974134E+02  0.00000000000E+00 0.  1.
         -4    1    5    5    0  502 -0.15632164789E+03  0.54705619073E+02 -0.15621047321E+03  0.22766395037E+03  0.00000000000E+00 0.  1.
         -4    1    6    6    0  503 -0.27248608953E+02  0.33968402919E+03  0.44099799662E+02  0.34361681959E+03  0.00000000000E+00 0. -1.
<mgrwt>
<rscale>  0 0.22228213E+04</rscale>
<asrwt>0</asrwt>
<pdfrwt beam="1">  1        2 0.27066136E+00 0.22228213E+04</pdfrwt>
<pdfrwt beam="2">  1       -2 0.10801800E+00 0.22228213E+04</pdfrwt>
<totfact> 0.56939564E+00</totfact>
</mgrwt>
</event>
<event>
12    1  0.4672461E-008  0.1906960E+04  0.7818608E-02  0.8651400E-01
         -2   -1    0    0    0  501 -0.00000000000E+00  0.00000000000E+00  0.10460937436E+04  0.10460937436E+04  0.00000000000E+00 0.  1.
          2   -1    0    0  501    0  0.00000000000E+00 -0.00000000000E+00 -0.86906529081E+03  0.86906529081E+03  0.00000000000E+00 0. -1.
         23    2    1    2    0    0  0.57149416281E+03 -0.19723029796E+03 -0.35930522376E+03  0.70922078669E+03  0.91588819744E+02 0.  0.
        254    2    1    2    0    0 -0.57149416281E+03  0.19723029796E+03  0.53633367654E+03  0.12059382477E+04  0.89505747086E+03 0.  0.
         23    2    4    4    0    0 -0.19075823635E+03  0.52072776271E+03  0.36370296936E+03  0.66939555736E+03  0.90909046344E+02 0.  0.
         23    2    4    4    0    0 -0.38073592645E+03 -0.32349746475E+03  0.17263070718E+03  0.53654269035E+03  0.92012184593E+02 0.  0.
         11    1    3    3    0    0  0.31990359366E+03 -0.75342996140E+02 -0.15759719455E+03  0.36448834279E+03  0.00000000000E+00 0. -1.
        -11    1    3    3    0    0  0.25159056915E+03 -0.12188730182E+03 -0.20170802921E+03  0.34473244390E+03  0.00000000000E+00 0.  1.
          2    1    5    5  502    0 -0.10154525093E+03  0.31281065226E+03  0.16346627692E+03  0.36726443586E+03  0.00000000000E+00 0. -1.
          1    1    6    6  503    0 -0.15465838802E+03 -0.12088515561E+03  0.21646887579E+02  0.19748677316E+03  0.00000000000E+00 0. -1.
         -2    1    5    5    0  502 -0.89212985417E+02  0.20791711044E+03  0.20023669244E+03  0.30213112150E+03  0.00000000000E+00 0.  1.
         -1    1    6    6    0  503 -0.22607753844E+03 -0.20261230914E+03  0.15098381960E+03  0.33905591719E+03  0.00000000000E+00 0.  1.
<mgrwt>
<rscale>  0 0.19069596E+04</rscale>
<asrwt>0</asrwt>
<pdfrwt beam="1">  1        2 0.13370235E+00 0.19069596E+04</pdfrwt>
<pdfrwt beam="2">  1       -2 0.16093750E+00 0.19069596E+04</pdfrwt>
<totfact> 0.71414035E+00</totfact>
</mgrwt>
</event>
<event>
12    1  0.4672461E-008  0.1640444E+04  0.7818608E-02  0.8796080E-01
         -2   -1    0    0    0  501 -0.00000000000E+00  0.00000000000E+00  0.73187423063E+03  0.73187423063E+03  0.00000000000E+00 0.  1.
          2   -1    0    0  501    0  0.00000000000E+00 -0.00000000000E+00 -0.91923499640E+03  0.91923499640E+03  0.00000000000E+00 0. -1.
         23    2    1    2    0    0 -0.27365774097E+03  0.44656750733E+03 -0.30722027320E+03  0.61389997227E+03  0.90431089194E+02 0.  0.
        254    2    1    2    0    0  0.27365774097E+03 -0.44656750733E+03  0.11985950743E+03  0.10372092548E+04  0.88720101377E+03 0.  0.
         23    2    4    4    0    0  0.42749272006E+03  0.92303426311E+02  0.14120464543E+03  0.46877536840E+03  0.92421025311E+02 0.  0.
         23    2    4    4    0    0 -0.15383497908E+03 -0.53887093364E+03 -0.21345138006E+02  0.56843388635E+03  0.92813707635E+02 0.  0.
         11    1    3    3    0    0 -0.17551780524E+03  0.28018865993E+03 -0.24306959433E+03  0.41035961399E+03  0.00000000000E+00 0. -1.
        -11    1    3    3    0    0 -0.98139935733E+02  0.16637884740E+03 -0.64150678865E+02  0.20354035828E+03  0.00000000000E+00 0.  1.
          1    1    5    5  502    0 -0.36200056307E+01  0.58645143542E+01 -0.22762566897E+00  0.68955625458E+01  0.00000000000E+00 0. -1.
          3    1    6    6  503    0  0.52453887915E+01 -0.11052255008E+03 -0.13155314948E+02  0.11142625584E+03  0.00000000000E+00 0. -1.
         -1    1    5    5    0  502  0.43111272569E+03  0.86438911957E+02  0.14143227110E+03  0.46187980586E+03  0.00000000000E+00 0.  1.
         -3    1    6    6    0  503 -0.15908036788E+03 -0.42834838356E+03 -0.81898230572E+01  0.45700763051E+03  0.00000000000E+00 0.  1.
<mgrwt>
<rscale>  0 0.16404443E+04</rscale>
<asrwt>0</asrwt>
<pdfrwt beam="1">  1        2 0.14142077E+00 0.16404443E+04</pdfrwt>
<pdfrwt beam="2">  1       -2 0.11259604E+00 0.16404443E+04</pdfrwt>
<totfact> 0.16891638E+01</totfact>
</mgrwt>
</event>
<event>
12    1  0.4672461E-008  0.2012607E+04  0.7818608E-02  0.8600749E-01
          1   -1    0    0  501    0  0.00000000000E+00  0.00000000000E+00  0.15476649286E+04  0.15476649286E+04  0.00000000000E+00 0. -1.
         -1   -1    0    0    0  501 -0.00000000000E+00 -0.00000000000E+00 -0.65430617246E+03  0.65430617246E+03  0.00000000000E+00 0.  1.
         23    2    1    2    0    0 -0.56683175515E+03  0.56925624799E+03  0.30299903883E+03  0.86323404022E+03  0.89519138380E+02 0.  0.
        254    2    1    2    0    0  0.56683175515E+03 -0.56925624799E+03  0.59035971736E+03  0.13387370609E+04  0.89349952870E+03 0.  0.
         23    2    4    4    0    0  0.56841792780E+02 -0.63022959820E+03  0.49467868463E+03  0.80824474367E+03  0.90178871168E+02 0.  0.
         23    2    4    4    0    0  0.50998996237E+03  0.60973350210E+02  0.95681032730E+02  0.53049231721E+03  0.91976776604E+02 0.  0.
         13    1    3    3    0    0 -0.28717989656E+02  0.65450086773E+01  0.15247867056E+02  0.33167115012E+02  0.00000000000E+00 0. -1.
        -13    1    3    3    0    0 -0.53811376550E+03  0.56271123931E+03  0.28775117177E+03  0.83006692521E+03  0.00000000000E+00 0.  1.
          4    1    5    5  502    0  0.82032491454E+01 -0.36834568141E+03  0.33320005950E+03  0.49675760080E+03  0.00000000000E+00 0. -1.
          4    1    6    6  503    0  0.32875134181E+02  0.22763967167E+02  0.23657917241E+02  0.46461486166E+02  0.00000000000E+00 0.  1.
         -4    1    5    5    0  502  0.48638543635E+02 -0.26188391679E+03  0.16147862513E+03  0.31148714287E+03  0.00000000000E+00 0.  1.
         -4    1    6    6    0  503  0.47711482819E+03  0.38209383043E+02  0.72023115489E+02  0.48403083104E+03  0.00000000000E+00 0. -1.
<mgrwt>
<rscale>  0 0.20126070E+04</rscale>
<asrwt>0</asrwt>
<pdfrwt beam="1">  1        1 0.23810229E+00 0.20126070E+04</pdfrwt>
<pdfrwt beam="2">  1       -1 0.10066249E+00 0.20126070E+04</pdfrwt>
<totfact> 0.52740933E+00</totfact>
</mgrwt>
</event>
<event>
12    1  0.4672461E-008  0.2416386E+04  0.7818608E-02  0.8433394E-01
          2   -1    0    0  501    0  0.00000000000E+00  0.00000000000E+00  0.17144633436E+04  0.17144633436E+04  0.00000000000E+00 0. -1.
         -2   -1    0    0    0  501 -0.00000000000E+00 -0.00000000000E+00 -0.85142111104E+03  0.85142111104E+03  0.00000000000E+00 0.  1.
         23    2    1    2    0    0 -0.54110418746E+03  0.12379749661E+03 -0.55682450717E+03  0.79106647750E+03  0.87252955125E+02 0.  0.
        254    2    1    2    0    0  0.54110418746E+03 -0.12379749661E+03  0.14198667397E+04  0.17748179771E+04  0.90875614522E+03 0.  0.
         23    2    4    4    0    0  0.67787004221E+03 -0.11463563099E+03  0.53756975028E+03  0.87751781440E+03  0.91690545662E+02 0.  0.
         23    2    4    4    0    0 -0.13676585475E+03 -0.91618656243E+01  0.88229698941E+03  0.89730016269E+03  0.88942484969E+02 0.  0.
         11    1    3    3    0    0 -0.15490469377E+02 -0.96945540082E+01 -0.95760936098E+01  0.20631058813E+02  0.00000000000E+00 0. -1.
        -11    1    3    3    0    0 -0.52561371808E+03  0.13349205062E+03 -0.54724841356E+03  0.77043541868E+03  0.00000000000E+00 0.  1.
          4    1    5    5  502    0  0.52768579349E+03 -0.86288844225E+02  0.46375561808E+03  0.70779045952E+03  0.00000000000E+00 0.  1.
          3    1    6    6  503    0 -0.61649072680E+02  0.30073578121E+02  0.55445873859E+03  0.55868552966E+03  0.00000000000E+00 0. -1.
         -4    1    5    5    0  502  0.15018424871E+03 -0.28346786764E+02  0.73814132198E+02  0.16972735488E+03  0.00000000000E+00 0. -1.
         -3    1    6    6    0  503 -0.75116782068E+02 -0.39235443745E+02  0.32783825083E+03  0.33861463303E+03  0.00000000000E+00 0.  1.
<mgrwt>
<rscale>  0 0.24163860E+04</rscale>
<asrwt>0</asrwt>
<pdfrwt beam="1">  1        2 0.26376359E+00 0.24163860E+04</pdfrwt>
<pdfrwt beam="2">  1       -2 0.13098786E+00 0.24163860E+04</pdfrwt>
<totfact> 0.36836594E+00</totfact>
</mgrwt>
</event>
<event>
12    1  0.4672461E-008  0.2536997E+04  0.7818608E-02  0.8389922E-01
         -1   -1    0    0    0  501 -0.00000000000E+00  0.00000000000E+00  0.16389964439E+04  0.16389964439E+04  0.00000000000E+00 0.  1.
          1   -1    0    0  501    0  0.00000000000E+00 -0.00000000000E+00 -0.98175259548E+03  0.98175259548E+03  0.00000000000E+00 0. -1.
         23    2    1    2    0    0  0.98722143951E+03  0.43976525733E+03 -0.60884387204E+00  0.10842801118E+04  0.87540492828E+02 0.  0.
        254    2    1    2    0    0 -0.98722143951E+03 -0.43976525733E+03  0.65785269234E+03  0.15364689277E+04  0.87176083227E+03 0.  0.
         23    2    4    4    0    0 -0.76925743807E+03  0.34672567268E+02  0.64217557417E+03  0.10068146357E+04  0.91252669399E+02 0.  0.
         23    2    4    4    0    0 -0.21796400145E+03 -0.47443782460E+03  0.15677118169E+02  0.52965429196E+03  0.87683188939E+02 0.  0.
         13    1    3    3    0    0  0.88543013945E+03  0.41289877862E+03  0.19181083805E+02  0.97715906955E+03  0.00000000000E+00 0. -1.
        -13    1    3    3    0    0  0.10179130006E+03  0.26866478710E+02 -0.19789927677E+02  0.10712104221E+03  0.00000000000E+00 0.  1.
          1    1    5    5  502    0 -0.13024793665E+03  0.13178536877E+02  0.68241606889E+02  0.14763168951E+03  0.00000000000E+00 0. -1.
          3    1    6    6  503    0 -0.18124142300E+02 -0.60335506191E+02 -0.25606291415E+02  0.68003970483E+02  0.00000000000E+00 0. -1.
         -1    1    5    5    0  502 -0.63900950141E+03  0.21494030391E+02  0.57393396728E+03  0.85918294620E+03  0.00000000000E+00 0.  1.
         -3    1    6    6    0  503 -0.19983985915E+03 -0.41410231841E+03  0.41283409584E+02  0.46165032148E+03  0.00000000000E+00 0.  1.
<mgrwt>
<rscale>  0 0.25369974E+04</rscale>
<asrwt>0</asrwt>
<pdfrwt beam="1">  1        1 0.15103886E+00 0.25369974E+04</pdfrwt>
<pdfrwt beam="2">  1       -1 0.25215330E+00 0.25369974E+04</pdfrwt>
<totfact> 0.93474033E-01</totfact>
</mgrwt>
</event>
<event>
12    1  0.4672461E-008  0.1349847E+04  0.7818608E-02  0.8990944E-01
         -1   -1    0    0    0  501 -0.00000000000E+00  0.00000000000E+00  0.19311950126E+03  0.19311950126E+03  0.00000000000E+00 0.  1.
          1   -1    0    0  501    0  0.00000000000E+00 -0.00000000000E+00 -0.23587557195E+04  0.23587557195E+04  0.00000000000E+00 0. -1.
         23    2    1    2    0    0  0.18754041540E+03 -0.66918112441E+02 -0.11850599682E+04  0.12050264580E+04  0.89845394477E+02 0.  0.
        254    2    1    2    0    0 -0.18754041540E+03  0.66918112441E+02 -0.98057624996E+03  0.13468487627E+04  0.90156661792E+03 0.  0.
         23    2    4    4    0    0 -0.38563231566E+03 -0.29460316890E+03 -0.44537452810E+03  0.66535730582E+03  0.94013637918E+02 0.  0.
         23    2    4    4    0    0  0.19809190026E+03  0.36152128134E+03 -0.53520172186E+03  0.68149145693E+03  0.89731181721E+02 0.  0.
         13    1    3    3    0    0  0.28830776895E+02  0.36138816366E+01 -0.39669484291E+03  0.39775755459E+03  0.00000000000E+00 0. -1.
        -13    1    3    3    0    0  0.15870963850E+03 -0.70531994077E+02 -0.78836512533E+03  0.80726890339E+03  0.00000000000E+00 0.  1.
          4    1    6    6  502    0  0.15892460631E+03  0.32481342683E+03 -0.41882440703E+03  0.55333053111E+03  0.00000000000E+00 0.  1.
          4    1    5    5  503    0 -0.70199659137E+02 -0.93824578960E+02 -0.75393516329E+02  0.13933853044E+03  0.00000000000E+00 0. -1.
         -4    1    5    5    0  503 -0.31543265652E+03 -0.20077858994E+03 -0.36998101177E+03  0.52601877538E+03  0.00000000000E+00 0.  1.
         -4    1    6    6    0  502  0.39167293953E+02  0.36707854511E+02 -0.11637731483E+03  0.12816092582E+03  0.00000000000E+00 0. -1.
<mgrwt>
<rscale>  0 0.13498470E+04</rscale>
<asrwt>0</asrwt>
<pdfrwt beam="1">  1        1 0.36288551E+00 0.13498470E+04</pdfrwt>
<pdfrwt beam="2">  1       -1 0.29710691E-01 0.13498470E+04</pdfrwt>
<totfact> 0.17283284E+01</totfact>
</mgrwt>
</event>
<event>
12    1  0.4672461E-008  0.1596329E+04  0.7818608E-02  0.8822806E-01
         -1   -1    0    0    0  501 -0.00000000000E+00  0.00000000000E+00  0.77773646055E+03  0.77773646055E+03  0.00000000000E+00 0.  1.
          1   -1    0    0  501    0  0.00000000000E+00 -0.00000000000E+00 -0.81912934655E+03  0.81912934655E+03  0.00000000000E+00 0. -1.
         23    2    1    2    0    0  0.26201516755E+03  0.40266142918E+03 -0.26756673454E+03  0.55777361168E+03  0.93441264329E+02 0.  0.
        254    2    1    2    0    0 -0.26201516755E+03 -0.40266142918E+03  0.22617384854E+03  0.10390921954E+04  0.89317960469E+03 0.  0.
         23    2    4    4    0    0 -0.22260618590E+03 -0.35685509335E+03 -0.28474498832E+03  0.51641442317E+03  0.93300999077E+02 0.  0.
         23    2    4    4    0    0 -0.39408981646E+02 -0.45806335832E+02  0.51091883686E+03  0.52267777225E+03  0.92210126935E+02 0.  0.
         13    1    3    3    0    0  0.24428765053E+03  0.31524531892E+03 -0.23446646696E+03  0.46263440364E+03  0.00000000000E+00 0. -1.
        -13    1    3    3    0    0  0.17727517016E+02  0.87416110261E+02 -0.33100267585E+02  0.95139208043E+02  0.00000000000E+00 0.  1.
          2    1    5    5  502    0 -0.52549742397E+02 -0.15683374766E+03 -0.13949220428E+03  0.21637091968E+03  0.00000000000E+00 0. -1.
          1    1    6    6  503    0 -0.67298389036E+02 -0.20082044728E+02  0.37710115764E+03  0.38358525099E+03  0.00000000000E+00 0. -1.
         -2    1    5    5    0  502 -0.17005644351E+03 -0.20002134569E+03 -0.14525278404E+03  0.30004350348E+03  0.00000000000E+00 0.  1.
         -1    1    6    6    0  503  0.27889407390E+02 -0.25724291104E+02  0.13381767922E+03  0.13909252126E+03  0.00000000000E+00 0.  1.
<mgrwt>
<rscale>  0 0.15963292E+04</rscale>
<asrwt>0</asrwt>
<pdfrwt beam="1">  1        1 0.12601990E+00 0.15963292E+04</pdfrwt>
<pdfrwt beam="2">  1       -1 0.11965176E+00 0.15963292E+04</pdfrwt>
<totfact> 0.12738805E+01</totfact>
</mgrwt>
</event>
<event>
12    1  0.4672461E-008  0.2592082E+04  0.7818608E-02  0.8370896E-01
          2   -1    0    0  501    0  0.00000000000E+00  0.00000000000E+00  0.26292087199E+04  0.26292087199E+04  0.00000000000E+00 0. -1.
         -2   -1    0    0    0  501 -0.00000000000E+00 -0.00000000000E+00 -0.63886968500E+03  0.63886968500E+03  0.00000000000E+00 0.  1.
         23    2    1    2    0    0 -0.42459147043E+03 -0.78421053179E+03  0.17757569241E+04  0.19892065217E+04  0.91465062465E+02 0.  0.
        254    2    1    2    0    0  0.42459147043E+03  0.78421053179E+03  0.21458211079E+03  0.12788718832E+04  0.89118109063E+03 0.  0.
         23    2    4    4    0    0 -0.15844080394E+03 -0.91259341324E+02  0.48154775019E+02  0.21005573477E+03  0.91502861262E+02 0.  0.
         23    2    4    4    0    0  0.58303227437E+03  0.87546987312E+03  0.16642733577E+03  0.10688161484E+04  0.91081113643E+02 0.  0.
         13    1    3    3    0    0 -0.13937148097E+03 -0.17447939611E+03  0.44273513767E+03  0.49586477139E+03  0.00000000000E+00 0.  1.
        -13    1    3    3    0    0 -0.28521998946E+03 -0.60973113568E+03  0.13330217864E+04  0.14933417503E+04  0.00000000000E+00 0. -1.
          2    1    5    5  502    0 -0.47330395359E+02 -0.72416565141E+02 -0.23858644937E+01  0.86544887665E+02  0.00000000000E+00 0. -1.
          3    1    6    6  503    0  0.75708307070E+02  0.14947257271E+03  0.53879257490E+02  0.17600219357E+03  0.00000000000E+00 0. -1.
         -2    1    5    5    0  502 -0.11111040858E+03 -0.18842776184E+02  0.50540639513E+02  0.12351084710E+03  0.00000000000E+00 0.  1.
         -3    1    6    6    0  503  0.50732396730E+03  0.72599730040E+03  0.11254807828E+03  0.89281395482E+03  0.00000000000E+00 0.  1.
<mgrwt>
<rscale>  0 0.25920816E+04</rscale>
<asrwt>0</asrwt>
<pdfrwt beam="1">  1        2 0.40449364E+00 0.25920816E+04</pdfrwt>
<pdfrwt beam="2">  1       -2 0.98287646E-01 0.25920816E+04</pdfrwt>
<totfact> 0.22272396E+00</totfact>
</mgrwt>
</event>
<event>
12    1  0.4672461E-008  0.1593433E+04  0.7818608E-02  0.8824592E-01
         -1   -1    0    0    0  501 -0.00000000000E+00  0.00000000000E+00  0.40630225494E+03  0.40630225494E+03  0.00000000000E+00 0.  1.
          1   -1    0    0  501    0  0.00000000000E+00 -0.00000000000E+00 -0.15622789432E+04  0.15622789432E+04  0.00000000000E+00 0. -1.
         23    2    1    2    0    0  0.25936147687E+03 -0.48216953555E+01 -0.96954589862E+03  0.10083991339E+04  0.97764713618E+02 0.  0.
        254    2    1    2    0    0 -0.25936147687E+03  0.48216953555E+01 -0.18643078960E+03  0.96018206422E+03  0.90548414272E+03 0.  0.
         23    2    4    4    0    0  0.29036054761E+02  0.11026666897E+03  0.32440252514E+03  0.35713035807E+03  0.96453427001E+02 0.  0.
         23    2    4    4    0    0 -0.28839753163E+03 -0.10544497361E+03 -0.51083331473E+03  0.60305170615E+03  0.91809074377E+02 0.  0.
         11    1    3    3    0    0  0.17828080430E+03 -0.48644013101E+02 -0.66695515783E+03  0.69208342542E+03  0.00000000000E+00 0. -1.
        -11    1    3    3    0    0  0.81080672577E+02  0.43822317746E+02 -0.30259074079E+03  0.31631570845E+03  0.00000000000E+00 0.  1.
          1    1    5    5  502    0  0.58547531355E+01  0.12091257221E+03  0.29041693564E+03  0.31463649623E+03  0.00000000000E+00 0. -1.
          3    1    6    6  503    0 -0.26650152383E+03 -0.12096918069E+03 -0.47982900627E+03  0.56204313014E+03  0.00000000000E+00 0. -1.
         -1    1    5    5    0  502  0.23181301625E+02 -0.10645903242E+02  0.33985589496E+02  0.42493861842E+02  0.00000000000E+00 0.  1.
         -3    1    6    6    0  503 -0.21896007806E+02  0.15524207076E+02 -0.31004308459E+02  0.41008576008E+02  0.00000000000E+00 0.  1.
<mgrwt>
<rscale>  0 0.15934333E+04</rscale>
<asrwt>0</asrwt>
<pdfrwt beam="1">  1        1 0.24035060E+00 0.15934333E+04</pdfrwt>
<pdfrwt beam="2">  1       -1 0.62508040E-01 0.15934333E+04</pdfrwt>
<totfact> 0.14763000E+01</totfact>
</mgrwt>
</event>
<event>
12    1  0.4672461E-008  0.2019738E+04  0.7818608E-02  0.8597448E-01
          2   -1    0    0  501    0  0.00000000000E+00  0.00000000000E+00  0.27223102555E+04  0.27223102555E+04  0.00000000000E+00 0.  1.
         -2   -1    0    0    0  501 -0.00000000000E+00 -0.00000000000E+00 -0.37462121809E+03  0.37462121809E+03  0.00000000000E+00 0. -1.
         23    2    1    2    0    0 -0.74221182636E+03 -0.18266472865E+03  0.54164930935E+03  0.94112421054E+03  0.89922227838E+02 0.  0.
        254    2    1    2    0    0  0.74221182636E+03  0.18266472865E+03  0.18060397281E+04  0.21558072631E+04  0.89525452124E+03 0.  0.
         23    2    4    4    0    0  0.45054213505E+03 -0.17686974494E+03  0.29813293078E+03  0.57569719640E+03  0.90955458349E+02 0.  0.
         23    2    4    4    0    0  0.29166969132E+03  0.35953447358E+03  0.15079067973E+04  0.15801100667E+04  0.92890617941E+02 0.  0.
         11    1    3    3    0    0 -0.53728189225E+03 -0.12323303789E+03  0.34071188826E+03  0.64802994080E+03  0.00000000000E+00 0. -1.
        -11    1    3    3    0    0 -0.20492993411E+03 -0.59431690752E+02  0.20093742109E+03  0.29309426974E+03  0.00000000000E+00 0.  1.
          4    1    5    5  502    0  0.18523582857E+03 -0.34250794643E+02  0.84744499745E+02  0.20656006235E+03  0.00000000000E+00 0. -1.
          1    1    6    6  503    0  0.22349083739E+03  0.22400697231E+03  0.11114984798E+04  0.11556626448E+04  0.00000000000E+00 0. -1.
         -4    1    5    5    0  502  0.26530630648E+03 -0.14261895029E+03  0.21338843104E+03  0.36913713406E+03  0.00000000000E+00 0.  1.
         -1    1    6    6    0  503  0.68178853930E+02  0.13552750127E+03  0.39640831749E+03  0.42444742183E+03  0.00000000000E+00 0.  1.
<mgrwt>
<rscale>  0 0.20197378E+04</rscale>
<asrwt>0</asrwt>
<pdfrwt beam="1">  1        2 0.41881695E+00 0.20197378E+04</pdfrwt>
<pdfrwt beam="2">  1       -2 0.57634035E-01 0.20197378E+04</pdfrwt>
<totfact> 0.67421671E+00</totfact>
</mgrwt>
</event>
<event>
12    1  0.4672461E-008  0.3737685E+04  0.7818608E-02  0.8059661E-01
         -2   -1    0    0    0  501 -0.00000000000E+00  0.00000000000E+00  0.12269531149E+04  0.12269531149E+04  0.00000000000E+00 0.  1.
          2   -1    0    0  501    0  0.00000000000E+00 -0.00000000000E+00 -0.28465415720E+04  0.28465415720E+04  0.00000000000E+00 0. -1.
         23    2    1    2    0    0  0.74089683135E+03 -0.14294877525E+04 -0.15361371716E+04  0.22269777237E+04  0.85726441245E+02 0.  0.
        254    2    1    2    0    0 -0.74089683135E+03  0.14294877525E+04 -0.83451285523E+02  0.18465169632E+04  0.90016522332E+03 0.  0.
         23    2    4    4    0    0 -0.67538811327E+03  0.98248890740E+03  0.31629837666E+03  0.12368935365E+04  0.91800876626E+02 0.  0.
         23    2    4    4    0    0 -0.65508718084E+02  0.44699884508E+03 -0.39974966218E+03  0.60962342670E+03  0.87986193898E+02 0.  0.
         13    1    3    3    0    0  0.14306374348E+03 -0.21413979356E+03 -0.22746262021E+03  0.34360199283E+03  0.00000000000E+00 0.  1.
        -13    1    3    3    0    0  0.59783308787E+03 -0.12153479589E+04 -0.13086745514E+04  0.18833757309E+04  0.00000000000E+00 0. -1.
          1    1    5    5  502    0 -0.57814499637E+03  0.84792931694E+03  0.30432100239E+03  0.10704424486E+04  0.00000000000E+00 0. -1.
          1    1    6    6  503    0 -0.65385876393E+02  0.35336904702E+03 -0.35749631375E+03  0.50690098695E+03  0.00000000000E+00 0. -1.
         -1    1    5    5    0  502 -0.97243116899E+02  0.13455959046E+03  0.11977374269E+02  0.16645108790E+03  0.00000000000E+00 0.  1.
         -1    1    6    6    0  503 -0.12284169099E+00  0.93629798058E+02 -0.42253348435E+02  0.10272243975E+03  0.00000000000E+00 0.  1.
<mgrwt>
<rscale>  0 0.37376854E+04</rscale>
<asrwt>0</asrwt>
<pdfrwt beam="1">  1        2 0.43792948E+00 0.37376854E+04</pdfrwt>
<pdfrwt beam="2">  1       -2 0.18876202E+00 0.37376854E+04</pdfrwt>
<totfact> 0.27576541E-01</totfact>
</mgrwt>
</event>
<event>
12    1  0.4672461E-008  0.1961452E+04  0.7818608E-02  0.8624858E-01
          2   -1    0    0  501    0  0.00000000000E+00  0.00000000000E+00  0.17453145175E+04  0.17453145175E+04  0.00000000000E+00 0. -1.
         -2   -1    0    0    0  501 -0.00000000000E+00 -0.00000000000E+00 -0.55108873720E+03  0.55108873720E+03  0.00000000000E+00 0.  1.
         23    2    1    2    0    0  0.42952297683E+03  0.58146366151E+03  0.78719127324E+03  0.10727983504E+04  0.92931278940E+02 0.  0.
        254    2    1    2    0    0 -0.42952297683E+03 -0.58146366151E+03  0.40703450702E+03  0.12236049043E+04  0.89941197157E+03 0.  0.
         23    2    4    4    0    0 -0.62824825425E+03 -0.66115233011E+03  0.36062690367E+03  0.98491227964E+03  0.90455305823E+02 0.  0.
         23    2    4    4    0    0  0.19872527742E+03  0.79688668598E+02  0.46407603352E+02  0.23869262465E+03  0.94754860697E+02 0.  0.
         13    1    3    3    0    0  0.30304045037E+03  0.43317157770E+03  0.51513196116E+03  0.73812740614E+03  0.00000000000E+00 0. -1.
        -13    1    3    3    0    0  0.12648252646E+03  0.14829208381E+03  0.27205931208E+03  0.33467094423E+03  0.00000000000E+00 0.  1.
          2    1    5    5  502    0 -0.33001800550E+03 -0.40753276672E+03  0.18843543052E+03  0.55722773744E+03  0.00000000000E+00 0. -1.
          1    1    6    6  503    0  0.10519019986E+03  0.80845922793E+02  0.57308251830E+02  0.14451739379E+03  0.00000000000E+00 0. -1.
         -2    1    5    5    0  502 -0.29823024875E+03 -0.25361956339E+03  0.17219147315E+03  0.42768454219E+03  0.00000000000E+00 0.  1.
         -1    1    6    6    0  503  0.93535077561E+02 -0.11572541951E+01 -0.10900648478E+02  0.94175230867E+02  0.00000000000E+00 0.  1.
<mgrwt>
<rscale>  0 0.19614517E+04</rscale>
<asrwt>0</asrwt>
<pdfrwt beam="1">  1        2 0.26850992E+00 0.19614517E+04</pdfrwt>
<pdfrwt beam="2">  1       -2 0.84782883E-01 0.19614517E+04</pdfrwt>
<totfact> 0.10451689E+01</totfact>
</mgrwt>
</event>
<event>
12    1  0.4803907E-008  0.2391710E+04  0.7818608E-02  0.8442614E-01
         -2   -1    0    0    0  501 -0.00000000000E+00  0.00000000000E+00  0.90618225781E+03  0.90618225781E+03  0.00000000000E+00 0.  1.
          2   -1    0    0  501    0  0.00000000000E+00 -0.00000000000E+00 -0.15781249156E+04  0.15781249156E+04  0.00000000000E+00 0. -1.
         23    2    1    2    0    0  0.67753825153E+03  0.21541512710E+03 -0.10549929024E+04  0.12754480343E+04  0.91081856876E+02 0.  0.
        254    2    1    2    0    0 -0.67753825153E+03 -0.21541512710E+03  0.38305024468E+03  0.12088591391E+04  0.89952830361E+03 0.  0.
         23    2    4    4    0    0 -0.10551638237E+03  0.76473007472E+02  0.52187858644E+03  0.54575617993E+03  0.92253569768E+02 0.  0.
         23    2    4    4    0    0 -0.57202186916E+03 -0.29188813457E+03 -0.13882834176E+03  0.66310295917E+03  0.89579708003E+02 0.  0.
         13    1    3    3    0    0  0.29969586686E+03  0.63147688664E+02 -0.39455426910E+03  0.49947804202E+03  0.00000000000E+00 0. -1.
        -13    1    3    3    0    0  0.37784238467E+03  0.15226743844E+03 -0.66043863332E+03  0.77596999223E+03  0.00000000000E+00 0.  1.
          3    1    5    5  502    0 -0.80588750651E+02  0.47640600467E+02  0.48035327510E+03  0.48939088921E+03  0.00000000000E+00 0. -1.
          3    1    6    6  503    0 -0.56668032196E+03 -0.27956150553E+03 -0.14501349262E+03  0.64831330058E+03  0.00000000000E+00 0. -1.
         -3    1    5    5    0  502 -0.24927631717E+02  0.28832407005E+02  0.41525311342E+02  0.56365290727E+02  0.00000000000E+00 0.  1.
         -3    1    6    6    0  503 -0.53415472028E+01 -0.12326629041E+02  0.61851508630E+01  0.14789658591E+02  0.00000000000E+00 0.  1.
<mgrwt>
<rscale>  0 0.23917097E+04</rscale>
<asrwt>0</asrwt>
<pdfrwt beam="1">  1        2 0.24278845E+00 0.23917097E+04</pdfrwt>
<pdfrwt beam="2">  1       -2 0.13941266E+00 0.23917097E+04</pdfrwt>
<totfact> 0.37487307E+00</totfact>
</mgrwt>
</event>
<event>
12    1  0.4672461E-008  0.4107955E+04  0.7818608E-02  0.7983116E-01
         -2   -1    0    0    0  501 -0.00000000000E+00  0.00000000000E+00  0.11739907507E+04  0.11739907507E+04  0.00000000000E+00 0.  1.
          2   -1    0    0  501    0  0.00000000000E+00 -0.00000000000E+00 -0.35935741717E+04  0.35935741717E+04  0.00000000000E+00 0. -1.
         23    2    1    2    0    0 -0.81021045966E+03 -0.98090669282E+03 -0.28726935540E+04  0.31430991086E+04  0.89915641512E+02 0.  0.
        254    2    1    2    0    0  0.81021045966E+03  0.98090669282E+03  0.45311013288E+03  0.16244658138E+04  0.90275215795E+03 0.  0.
         23    2    4    4    0    0  0.24956637261E+03 -0.64484282470E+02  0.33009311524E+03  0.42838820205E+03  0.90074357609E+02 0.  0.
         23    2    4    4    0    0  0.56064408705E+03  0.10453909753E+04  0.12301701764E+03  0.11960776117E+04  0.91128388042E+02 0.  0.
         11    1    3    3    0    0 -0.49558347071E+03 -0.62095570356E+03 -0.16897034828E+04  0.18671600954E+04  0.00000000000E+00 0.  1.
        -11    1    3    3    0    0 -0.31462698895E+03 -0.35995098926E+03 -0.11829900712E+04  0.12759390132E+04  0.00000000000E+00 0. -1.
          4    1    5    5  502    0  0.22920663981E+02  0.93784323308E+01  0.76217541060E+02  0.80140036158E+02  0.00000000000E+00 0. -1.
          1    1    6    6  503    0  0.19557817112E+03  0.30904547363E+03  0.49476623481E+01  0.36576550569E+03  0.00000000000E+00 0. -1.
         -4    1    5    5    0  502  0.22664570863E+03 -0.73862714800E+02  0.25387557419E+03  0.34824816589E+03  0.00000000000E+00 0.  1.
         -1    1    6    6    0  503  0.36506591593E+03  0.73634550166E+03  0.11806935529E+03  0.83031210605E+03  0.00000000000E+00 0.  1.
<mgrwt>
<rscale>  0 0.41079546E+04</rscale>
<asrwt>0</asrwt>
<pdfrwt beam="1">  1        2 0.55285756E+00 0.41079546E+04</pdfrwt>
<pdfrwt beam="2">  1       -2 0.18061396E+00 0.41079546E+04</pdfrwt>
<totfact> 0.97777250E-02</totfact>
</mgrwt>
</event>
<event>
12    1  0.4672461E-008  0.1201741E+04  0.7818608E-02  0.9111334E-01
         -2   -1    0    0    0  501 -0.00000000000E+00  0.00000000000E+00  0.38956575586E+03  0.38956575586E+03  0.00000000000E+00 0.  1.
          2   -1    0    0  501    0  0.00000000000E+00 -0.00000000000E+00 -0.92678977607E+03  0.92678977607E+03  0.00000000000E+00 0. -1.
         23    2    1    2    0    0 -0.10015111154E+03  0.22934720754E+03 -0.22152039110E+03  0.34626633363E+03  0.90546691714E+02 0.  0.
        254    2    1    2    0    0  0.10015111154E+03 -0.22934720754E+03 -0.31570362910E+03  0.97008919830E+03  0.88248166240E+03 0.  0.
         23    2    4    4    0    0 -0.83610998473E+02  0.26253650550E+03  0.88111967186E+02  0.30120098916E+03  0.83917229000E+02 0.  0.
         23    2    4    4    0    0  0.18376211001E+03 -0.49188371305E+03 -0.40381559629E+03  0.66888820913E+03  0.92877878285E+02 0.  0.
         11    1    3    3    0    0 -0.10262128272E+03  0.22566785481E+03 -0.18461329173E+03  0.30909412134E+03  0.00000000000E+00 0. -1.
        -11    1    3    3    0    0  0.24701711845E+01  0.36793527299E+01 -0.36907099377E+02  0.37172212291E+02  0.00000000000E+00 0.  1.
          2    1    5    5  502    0 -0.10689619886E+02  0.14398664700E+01  0.18341496439E+02  0.21277962317E+02  0.00000000000E+00 0. -1.
          3    1    6    6  503    0  0.10217927567E+03 -0.15767362065E+03 -0.16549796179E+03  0.25038200890E+03  0.00000000000E+00 0. -1.
         -2    1    5    5    0  502 -0.72921378587E+02  0.26109663903E+03  0.69770470747E+02  0.27992302684E+03  0.00000000000E+00 0.  1.
         -3    1    6    6    0  503  0.81582834341E+02 -0.33421009240E+03 -0.23831763450E+03  0.41850620023E+03  0.00000000000E+00 0.  1.
<mgrwt>
<rscale>  0 0.12017413E+04</rscale>
<asrwt>0</asrwt>
<pdfrwt beam="1">  1        2 0.14258304E+00 0.12017413E+04</pdfrwt>
<pdfrwt beam="2">  1       -2 0.59933193E-01 0.12017413E+04</pdfrwt>
<totfact> 0.72064007E+01</totfact>
</mgrwt>
</event>
<event>
12    1  0.4672461E-008  0.3392470E+04  0.7818608E-02  0.8139757E-01
         -2   -1    0    0    0  501 -0.00000000000E+00  0.00000000000E+00  0.14657992433E+04  0.14657992433E+04  0.00000000000E+00 0.  1.
          2   -1    0    0  501    0  0.00000000000E+00 -0.00000000000E+00 -0.19628976866E+04  0.19628976866E+04  0.00000000000E+00 0. -1.
         23    2    1    2    0    0 -0.12979488003E+04  0.22940405690E+03 -0.11045757367E+04  0.17221951604E+04  0.92581330461E+02 0.  0.
        254    2    1    2    0    0  0.12979488003E+04 -0.22940405690E+03  0.60747729342E+03  0.17065017695E+04  0.89767606501E+03 0.  0.
         23    2    4    4    0    0  0.14752649803E+03 -0.38813335245E+03  0.12208845972E+03  0.44406977722E+03  0.99402254195E+02 0.  0.
         23    2    4    4    0    0  0.11504223023E+04  0.15872929555E+03  0.48538883370E+03  0.12624319923E+04  0.97292098062E+02 0.  0.
         11    1    3    3    0    0 -0.54691755469E+03  0.11063440347E+03 -0.41102705711E+03  0.69303825619E+03  0.00000000000E+00 0.  1.
        -11    1    3    3    0    0 -0.75103124564E+03  0.11876965344E+03 -0.69354867960E+03  0.10291569042E+04  0.00000000000E+00 0. -1.
          2    1    5    5  502    0  0.84764655436E+02 -0.30404724799E+03  0.12400282078E+03  0.33912604646E+03  0.00000000000E+00 0. -1.
          3    1    6    6  503    0  0.66515916436E+03  0.81350793323E+02  0.33064713962E+03  0.74724975507E+03  0.00000000000E+00 0. -1.
         -2    1    5    5    0  502  0.62761842592E+02 -0.84086104458E+02 -0.19143610632E+01  0.10494373076E+03  0.00000000000E+00 0.  1.
         -3    1    6    6    0  503  0.48526313795E+03  0.77378502226E+02  0.15474169408E+03  0.51518223722E+03  0.00000000000E+00 0.  1.
<mgrwt>
<rscale>  0 0.33924705E+04</rscale>
<asrwt>0</asrwt>
<pdfrwt beam="1">  1        2 0.30198426E+00 0.33924705E+04</pdfrwt>
<pdfrwt beam="2">  1       -2 0.22550758E+00 0.33924705E+04</pdfrwt>
<totfact> 0.52989821E-01</totfact>
</mgrwt>
</event>
<event>
12    1  0.4672461E-008  0.2124640E+04  0.7818608E-02  0.8550466E-01
          1   -1    0    0  501    0  0.00000000000E+00  0.00000000000E+00  0.16281197061E+04  0.16281197061E+04  0.00000000000E+00 0. -1.
         -1   -1    0    0    0  501 -0.00000000000E+00 -0.00000000000E+00 -0.69314550458E+03  0.69314550458E+03  0.00000000000E+00 0.  1.
         23    2    1    2    0    0 -0.33943589151E+03 -0.22530082679E+03  0.12355760443E+04  0.13041633504E+04  0.90645994510E+02 0.  0.
        254    2    1    2    0    0  0.33943589151E+03  0.22530082679E+03 -0.30060184274E+03  0.10171018603E+04  0.88213238200E+03 0.  0.
         23    2    4    4    0    0 -0.49408555340E+02 -0.28013526072E+03  0.16396346765E+02  0.29872776459E+03  0.89735542067E+02 0.  0.
         23    2    4    4    0    0  0.38884444685E+03  0.50543608751E+03 -0.31699818951E+03  0.71837409572E+03  0.94381390328E+02 0.  0.
         11    1    3    3    0    0 -0.20695703865E+03 -0.17473798322E+03  0.89953299058E+03  0.93942758090E+03  0.00000000000E+00 0. -1.
        -11    1    3    3    0    0 -0.13247885286E+03 -0.50562843567E+02  0.33604305371E+03  0.36473576950E+03  0.00000000000E+00 0.  1.
          2    1    5    5  502    0 -0.68439439769E+02 -0.26100280267E+03  0.62540892187E+01  0.26989911736E+03  0.00000000000E+00 0. -1.
          4    1    6    6  503    0  0.25248778633E+03  0.25140234988E+03 -0.17184685714E+03  0.39558130148E+03  0.00000000000E+00 0. -1.
         -2    1    5    5    0  502  0.19030884428E+02 -0.19132458047E+02  0.10142257546E+02  0.28828647231E+02  0.00000000000E+00 0.  1.
         -4    1    6    6    0  503  0.13635666052E+03  0.25403373763E+03 -0.14515133237E+03  0.32279279424E+03  0.00000000000E+00 0.  1.
<mgrwt>
<rscale>  0 0.21246401E+04</rscale>
<asrwt>0</asrwt>
<pdfrwt beam="1">  1        1 0.25047996E+00 0.21246401E+04</pdfrwt>
<pdfrwt beam="2">  1       -1 0.10663777E+00 0.21246401E+04</pdfrwt>
<totfact> 0.40216755E+00</totfact>
</mgrwt>
</event>
<event>
12    1  0.4672461E-008  0.1446014E+04  0.7818608E-02  0.8921169E-01
         -1   -1    0    0    0  501 -0.00000000000E+00  0.00000000000E+00  0.35649166630E+03  0.35649166630E+03  0.00000000000E+00 0.  1.
          1   -1    0    0  501    0  0.00000000000E+00 -0.00000000000E+00 -0.14663426710E+04  0.14663426710E+04  0.00000000000E+00 0. -1.
         23    2    1    2    0    0  0.39349469849E+03 -0.18297118881E+02 -0.57438660827E+03  0.70239796988E+03  0.90939925418E+02 0.  0.
        254    2    1    2    0    0 -0.39349469849E+03  0.18297118881E+02 -0.53546439643E+03  0.11204363674E+04  0.90193274210E+03 0.  0.
         23    2    4    4    0    0 -0.28947147208E+03  0.42020243333E+03 -0.45130983720E+03  0.68734381070E+03  0.91635838124E+02 0.  0.
         23    2    4    4    0    0 -0.10402322641E+03 -0.40190531445E+03 -0.84154559226E+02  0.43309255671E+03  0.90213410446E+02 0.  0.
         13    1    3    3    0    0  0.12419970623E+03 -0.39395769047E+02 -0.14337374216E+03  0.19373596359E+03  0.00000000000E+00 0.  1.
        -13    1    3    3    0    0  0.26929499227E+03  0.21098650166E+02 -0.43101286610E+03  0.50866200629E+03  0.00000000000E+00 0. -1.
          2    1    5    5  502    0 -0.26679013369E+02  0.94294281833E+02 -0.10882450444E+03  0.14644437205E+03  0.00000000000E+00 0.  1.
          4    1    6    6  503    0 -0.83346035701E+02 -0.15632281961E+03 -0.18969491903E+02  0.17816629092E+03  0.00000000000E+00 0. -1.
         -2    1    5    5    0  502 -0.26279245872E+03  0.32590815149E+03 -0.34248533277E+03  0.54089943865E+03  0.00000000000E+00 0. -1.
         -4    1    6    6    0  503 -0.20677190710E+02 -0.24558249484E+03 -0.65185067323E+02  0.25492626579E+03  0.00000000000E+00 0.  1.
<mgrwt>
<rscale>  0 0.14460138E+04</rscale>
<asrwt>0</asrwt>
<pdfrwt beam="1">  1        1 0.22559118E+00 0.14460138E+04</pdfrwt>
<pdfrwt beam="2">  1       -1 0.54844871E-01 0.14460138E+04</pdfrwt>
<totfact> 0.22531495E+01</totfact>
</mgrwt>
</event>
<event>
12    1  0.4672461E-008  0.1275391E+04  0.7818608E-02  0.9049311E-01
          2   -1    0    0  501    0  0.00000000000E+00  0.00000000000E+00  0.11590072676E+04  0.11590072676E+04  0.00000000000E+00 0. -1.
         -2   -1    0    0    0  501 -0.00000000000E+00 -0.00000000000E+00 -0.35086543312E+03  0.35086543312E+03  0.00000000000E+00 0.  1.
         23    2    1    2    0    0 -0.10083153068E+03 -0.18031707654E+03 -0.73734363082E+02  0.23826644993E+03  0.93020961046E+02 0.  0.
        254    2    1    2    0    0  0.10083153068E+03  0.18031707654E+03  0.88187619752E+03  0.12716062507E+04  0.89252203531E+03 0.  0.
         23    2    4    4    0    0  0.17526860408E+03  0.91241640082E+02  0.10365448099E+04  0.10588313266E+04  0.87490083169E+02 0.  0.
         23    2    4    4    0    0 -0.74437073403E+02  0.89075436453E+02 -0.15466861240E+03  0.21277492419E+03  0.88743886704E+02 0.  0.
         13    1    3    3    0    0 -0.33755133739E+02 -0.10014426340E+03 -0.81485924979E+02  0.13344751221E+03  0.00000000000E+00 0.  1.
        -13    1    3    3    0    0 -0.67076396942E+02 -0.80172813132E+02  0.77515618978E+01  0.10481893772E+03  0.00000000000E+00 0. -1.
          1    1    5    5  502    0  0.11228119693E+03  0.91590807330E+02  0.57349793801E+03  0.59151993041E+03  0.00000000000E+00 0. -1.
          3    1    6    6  503    0  0.12752205738E+01 -0.21753405215E+01  0.97450514785E+01  0.10065998322E+02  0.00000000000E+00 0. -1.
         -1    1    5    5    0  502  0.62987407157E+02 -0.34916724803E+00  0.46304687191E+03  0.46731139614E+03  0.00000000000E+00 0.  1.
         -3    1    6    6    0  503 -0.75712293977E+02  0.91250776974E+02 -0.16441366388E+03  0.20270892587E+03  0.00000000000E+00 0.  1.
<mgrwt>
<rscale>  0 0.12753911E+04</rscale>
<asrwt>0</asrwt>
<pdfrwt beam="1">  1        2 0.17830881E+00 0.12753911E+04</pdfrwt>
<pdfrwt beam="2">  1       -2 0.53979298E-01 0.12753911E+04</pdfrwt>
<totfact> 0.63618250E+01</totfact>
</mgrwt>
</event>
<event>
12    1  0.4672461E-008  0.2410153E+04  0.7818608E-02  0.8435712E-01
         -1   -1    0    0    0  501 -0.00000000000E+00  0.00000000000E+00  0.42943175944E+03  0.42943175944E+03  0.00000000000E+00 0.  1.
          1   -1    0    0  501    0  0.00000000000E+00 -0.00000000000E+00 -0.33816990553E+04  0.33816990553E+04  0.00000000000E+00 0. -1.
         23    2    1    2    0    0 -0.25560890228E+03  0.97405987553E+03 -0.16037656107E+04  0.18961058257E+04  0.94997979953E+02 0.  0.
        254    2    1    2    0    0  0.25560890228E+03 -0.97405987553E+03 -0.13485016851E+04  0.19150249890E+04  0.91363852899E+03 0.  0.
         23    2    4    4    0    0  0.17391067742E+03 -0.94647297777E+03 -0.14570149303E+04  0.17484674231E+04  0.90497520092E+02 0.  0.
         23    2    4    4    0    0  0.81698224862E+02 -0.27586897762E+02  0.10851324516E+03  0.16655756591E+03  0.92361580290E+02 0.  0.
         13    1    3    3    0    0 -0.16611719154E+03  0.73058815371E+03 -0.12516161834E+04  0.14587313125E+04  0.00000000000E+00 0. -1.
        -13    1    3    3    0    0 -0.89491710744E+02  0.24347172182E+03 -0.35214942733E+03  0.43737451318E+03  0.00000000000E+00 0.  1.
          4    1    5    5  502    0  0.72244828152E+02 -0.18968728558E+03 -0.30680714074E+03  0.36787389567E+03  0.00000000000E+00 0. -1.
          3    1    6    6  503    0  0.72341948357E+02  0.84830128308E+01  0.28356838668E+02  0.78162838344E+02  0.00000000000E+00 0. -1.
         -4    1    5    5    0  502  0.10166584927E+03 -0.75678569219E+03 -0.11502077896E+04  0.13805935274E+04  0.00000000000E+00 0.  1.
         -3    1    6    6    0  503  0.93562765053E+01 -0.36069910593E+02  0.80156406492E+02  0.88394727568E+02  0.00000000000E+00 0.  1.
<mgrwt>
<rscale>  0 0.24101527E+04</rscale>
<asrwt>0</asrwt>
<pdfrwt beam="1">  1        1 0.52026141E+00 0.24101527E+04</pdfrwt>
<pdfrwt beam="2">  1       -1 0.66066423E-01 0.24101527E+04</pdfrwt>
<totfact> 0.64330020E-01</totfact>
</mgrwt>
</event>
<event>
12    1  0.4672461E-008  0.1244472E+04  0.7818608E-02  0.9074797E-01
         -2   -1    0    0    0  501 -0.00000000000E+00  0.00000000000E+00  0.11683158312E+03  0.11683158312E+03  0.00000000000E+00 0.  1.
          2   -1    0    0  501    0  0.00000000000E+00 -0.00000000000E+00 -0.33139783238E+04  0.33139783238E+04  0.00000000000E+00 0. -1.
         23    2    1    2    0    0 -0.12015561900E+03  0.24905021113E+03 -0.57318100412E+03  0.64360253268E+03  0.96043615845E+02 0.  0.
        254    2    1    2    0    0  0.12015561900E+03 -0.24905021113E+03 -0.26239657365E+04  0.27872073742E+04  0.89825685630E+03 0.  0.
         23    2    4    4    0    0 -0.16050430200E+03 -0.30430848489E+03 -0.36800257829E+03  0.51146796249E+03  0.88364552216E+02 0.  0.
         23    2    4    4    0    0  0.28065992100E+03  0.55258273757E+02 -0.22559631582E+04  0.22757394117E+04  0.88298531313E+02 0.  0.
         13    1    3    3    0    0 -0.69559768866E+02  0.18463047835E+03 -0.30552741329E+03  0.36369489308E+03  0.00000000000E+00 0.  1.
        -13    1    3    3    0    0 -0.50595850135E+02  0.64419732783E+02 -0.26765359082E+03  0.27990763959E+03  0.00000000000E+00 0. -1.
          4    1    5    5  502    0 -0.29016653336E+02 -0.56752520715E+02 -0.24929525034E+02  0.68441916957E+02  0.00000000000E+00 0. -1.
          1    1    6    6  503    0  0.59340091015E+02  0.45919143456E+02 -0.71705725773E+03  0.72097220821E+03  0.00000000000E+00 0. -1.
         -4    1    5    5    0  502 -0.13148764866E+03 -0.24755596417E+03 -0.34307305325E+03  0.44302604553E+03  0.00000000000E+00 0.  1.
         -1    1    6    6    0  503  0.22131982999E+03  0.93391303010E+01 -0.15389059005E+04  0.15547672035E+04  0.00000000000E+00 0.  1.
<mgrwt>
<rscale>  0 0.12444715E+04</rscale>
<asrwt>0</asrwt>
<pdfrwt beam="1">  1        2 0.50984281E+00 0.12444715E+04</pdfrwt>
<pdfrwt beam="2">  1       -2 0.17974090E-01 0.12444715E+04</pdfrwt>
<totfact> 0.28160527E+01</totfact>
</mgrwt>
</event>
<event>
12    1  0.4672461E-008  0.1953399E+04  0.7818608E-02  0.8628723E-01
          2   -1    0    0  501    0  0.00000000000E+00  0.00000000000E+00  0.10468881099E+04  0.10468881099E+04  0.00000000000E+00 0. -1.
         -2   -1    0    0    0  501 -0.00000000000E+00 -0.00000000000E+00 -0.91121670032E+03  0.91121670032E+03  0.00000000000E+00 0.  1.
         23    2    1    2    0    0  0.40866761470E+03 -0.61091263274E+03  0.28907732539E+03  0.79720536674E+03  0.10838465093E+03 0.  0.
        254    2    1    2    0    0 -0.40866761470E+03  0.61091263274E+03 -0.15340591576E+03  0.11608994435E+04  0.88539859886E+03 0.  0.
         23    2    4    4    0    0 -0.31052383009E+03  0.82800764624E+03 -0.67988746357E+02  0.89157826378E+03  0.90926451238E+02 0.  0.
         23    2    4    4    0    0 -0.98143784618E+02 -0.21709501350E+03 -0.85417169408E+02  0.26932117975E+03  0.92061705861E+02 0.  0.
         11    1    3    3    0    0  0.30853761412E+03 -0.52952999985E+03  0.25465218547E+03  0.66366046713E+03  0.00000000000E+00 0. -1.
        -11    1    3    3    0    0  0.10013000058E+03 -0.81382632884E+02  0.34425139923E+02  0.13354489961E+03  0.00000000000E+00 0.  1.
          4    1    5    5  502    0 -0.27321564024E+03  0.73145501406E+03 -0.89273229153E+02  0.78590262317E+03  0.00000000000E+00 0.  1.
          4    1    6    6  503    0  0.41787234503E+01 -0.99131685373E+02 -0.30882095965E+02  0.10391466030E+03  0.00000000000E+00 0. -1.
         -4    1    5    5    0  502 -0.37308189845E+02  0.96552632180E+02  0.21284482797E+02  0.10567564061E+03  0.00000000000E+00 0. -1.
         -4    1    6    6    0  503 -0.10232250807E+03 -0.11796332813E+03 -0.54535073442E+02  0.16540651945E+03  0.00000000000E+00 0.  1.
<mgrwt>
<rscale>  0 0.19533990E+04</rscale>
<asrwt>0</asrwt>
<pdfrwt beam="1">  1        2 0.16105971E+00 0.19533990E+04</pdfrwt>
<pdfrwt beam="2">  1       -2 0.14018718E+00 0.19533990E+04</pdfrwt>
<totfact> 0.78484618E+00</totfact>
</mgrwt>
</event>
<event>
12    1  0.6400211E-008  0.1604143E+04  0.7818608E-02  0.8818007E-01
          2   -1    0    0  501    0  0.00000000000E+00  0.00000000000E+00  0.12948187733E+04  0.12948187733E+04  0.00000000000E+00 0. -1.
         -2   -1    0    0    0  501 -0.00000000000E+00 -0.00000000000E+00 -0.49684092456E+03  0.49684092456E+03  0.00000000000E+00 0.  1.
         23    2    1    2    0    0 -0.95837635818E+02 -0.90507674653E+02 -0.31694314531E+03  0.35520547275E+03  0.91331697150E+02 0.  0.
        254    2    1    2    0    0  0.95837635818E+02  0.90507674653E+02  0.11149209941E+04  0.14364542251E+04  0.89608896112E+03 0.  0.
         23    2    4    4    0    0  0.42734182055E+03 -0.15648668378E+03  0.72689030486E+03  0.86251377790E+03  0.91931430801E+02 0.  0.
         23    2    4    4    0    0 -0.33150418474E+03  0.24699435843E+03  0.38803068920E+03  0.57394044722E+03  0.89098729497E+02 0.  0.
         11    1    3    3    0    0 -0.53975933940E+02 -0.54891452091E+02 -0.27636353039E+03  0.28688547172E+03  0.00000000000E+00 0.  1.
        -11    1    3    3    0    0 -0.41861701877E+02 -0.35616222562E+02 -0.40579614927E+02  0.68320001034E+02  0.00000000000E+00 0. -1.
          3    1    6    6  502    0 -0.29863123543E+02  0.29362110709E+02  0.82759363355E+02  0.92752638323E+02  0.00000000000E+00 0. -1.
          3    1    5    5  503    0  0.11704337823E+03 -0.10675108184E+01  0.17271305000E+03  0.20863865799E+03  0.00000000000E+00 0. -1.
         -3    1    5    5    0  503  0.31029844232E+03 -0.15541917296E+03  0.55417725486E+03  0.65387511991E+03  0.00000000000E+00 0.  1.
         -3    1    6    6    0  502 -0.30164106119E+03  0.21763224772E+03  0.30527132585E+03  0.48118780890E+03  0.00000000000E+00 0.  1.
<mgrwt>
<rscale>  0 0.16041433E+04</rscale>
<asrwt>0</asrwt>
<pdfrwt beam="1">  1        2 0.19920289E+00 0.16041433E+04</pdfrwt>
<pdfrwt beam="2">  1       -2 0.76437066E-01 0.16041433E+04</pdfrwt>
<totfact> 0.24430667E+01</totfact>
</mgrwt>
</event>
<event>
12    1  0.4672461E-008  0.2252395E+04  0.7818608E-02  0.8496931E-01
         -2   -1    0    0    0  501 -0.00000000000E+00  0.00000000000E+00  0.12576746990E+04  0.12576746990E+04  0.00000000000E+00 0.  1.
          2   -1    0    0  501    0  0.00000000000E+00 -0.00000000000E+00 -0.10084652504E+04  0.10084652504E+04  0.00000000000E+00 0. -1.
         23    2    1    2    0    0  0.61817695463E+03 -0.52509822804E+03 -0.38892014527E+03  0.90409891485E+03  0.90912441969E+02 0.  0.
        254    2    1    2    0    0 -0.61817695463E+03  0.52509822804E+03  0.63812959385E+03  0.13620410346E+04  0.88886191563E+03 0.  0.
         23    2    4    4    0    0  0.24098114150E+02  0.23998835454E+03 -0.15241373067E+03  0.30034661561E+03  0.93824382727E+02 0.  0.
         23    2    4    4    0    0 -0.64227506878E+03  0.28510987349E+03  0.79054332452E+03  0.10616944190E+04  0.91822586645E+02 0.  0.
         11    1    3    3    0    0  0.33026361581E+03 -0.31566785878E+03 -0.25859742456E+03  0.52496940957E+03  0.00000000000E+00 0.  1.
        -11    1    3    3    0    0  0.28791333882E+03 -0.20943036925E+03 -0.13032272071E+03  0.37912950528E+03  0.00000000000E+00 0. -1.
          1    1    5    5  502    0  0.52465634867E+02  0.79943934829E+02 -0.66745281119E+02  0.11661307006E+03  0.00000000000E+00 0. -1.
          3    1    6    6  503    0 -0.16288873837E+03  0.66394941348E+02  0.14191145877E+03  0.22600860925E+03  0.00000000000E+00 0. -1.
         -1    1    5    5    0  502 -0.28367520717E+02  0.16004441971E+03 -0.85668449547E+02  0.18373354555E+03  0.00000000000E+00 0.  1.
         -3    1    6    6    0  503 -0.47938633042E+03  0.21871493215E+03  0.64863186575E+03  0.83568580974E+03  0.00000000000E+00 0.  1.
<mgrwt>
<rscale>  0 0.22523954E+04</rscale>
<asrwt>0</asrwt>
<pdfrwt beam="1">  1        2 0.15514850E+00 0.22523954E+04</pdfrwt>
<pdfrwt beam="2">  1       -2 0.19348842E+00 0.22523954E+04</pdfrwt>
<totfact> 0.33247257E+00</totfact>
</mgrwt>
</event>
<event>
12    1  0.4672461E-008  0.2581974E+04  0.7818608E-02  0.8374350E-01
         -2   -1    0    0    0  501 -0.00000000000E+00  0.00000000000E+00  0.89122188059E+03  0.89122188059E+03  0.00000000000E+00 0.  1.
          2   -1    0    0  501    0  0.00000000000E+00 -0.00000000000E+00 -0.18700704646E+04  0.18700704646E+04  0.00000000000E+00 0. -1.
         23    2    1    2    0    0 -0.10715959126E+03  0.40153061866E+03  0.69894523325E+03  0.81822733789E+03  0.90892913193E+02 0.  0.
        254    2    1    2    0    0  0.10715959126E+03 -0.40153061866E+03 -0.16777938172E+04  0.19430650073E+04  0.88758070823E+03 0.  0.
         23    2    4    4    0    0  0.11099316742E+03 -0.67472577737E+03 -0.12380855256E+04  0.14172273840E+04  0.90018504980E+02 0.  0.
         23    2    4    4    0    0 -0.38335761562E+01  0.27319515870E+03 -0.43970829161E+03  0.52583762331E+03  0.92257971644E+02 0.  0.
         11    1    3    3    0    0 -0.44587956121E+02  0.14693829280E+03  0.34619754259E+03  0.37872375977E+03  0.00000000000E+00 0.  1.
        -11    1    3    3    0    0 -0.62571635140E+02  0.25459232587E+03  0.35274769066E+03  0.43950357812E+03  0.00000000000E+00 0. -1.
          1    1    5    5  502    0  0.72097241590E+02 -0.19498460843E+03 -0.34924252065E+03  0.40643246426E+03  0.00000000000E+00 0. -1.
          3    1    6    6  503    0 -0.35557330869E+01  0.11186920971E+03 -0.26695787464E+03  0.28947170873E+03  0.00000000000E+00 0. -1.
         -1    1    5    5    0  502  0.38895925826E+02 -0.47974116893E+03 -0.88884300497E+03  0.10107949197E+04  0.00000000000E+00 0.  1.
         -3    1    6    6    0  503 -0.27784306924E+00  0.16132594899E+03 -0.17275041697E+03  0.23636591459E+03  0.00000000000E+00 0.  1.
<mgrwt>
<rscale>  0 0.25819742E+04</rscale>
<asrwt>0</asrwt>
<pdfrwt beam="1">  1        2 0.28770315E+00 0.25819742E+04</pdfrwt>
<pdfrwt beam="2">  1       -2 0.13711106E+00 0.25819742E+04</pdfrwt>
<totfact> 0.26499843E+00</totfact>
</mgrwt>
</event>
<event>
12    1  0.4672461E-008  0.1749650E+04  0.7818608E-02  0.8733543E-01
         -1   -1    0    0    0  501 -0.00000000000E+00  0.00000000000E+00  0.13742382777E+04  0.13742382777E+04  0.00000000000E+00 0.  1.
          1   -1    0    0  501    0  0.00000000000E+00 -0.00000000000E+00 -0.55690401096E+03  0.55690401096E+03  0.00000000000E+00 0. -1.
         23    2    1    2    0    0  0.13195573008E+03  0.21671919201E+02  0.97709651659E+03  0.99054610546E+03  0.92639071212E+02 0.  0.
        254    2    1    2    0    0 -0.13195573008E+03 -0.21671919201E+02 -0.15976224989E+03  0.94059618316E+03  0.91723236778E+03 0.  0.
         23    2    4    4    0    0 -0.50533168214E+03  0.98974180840E+02 -0.72954213724E+02  0.52817861317E+03  0.92164703971E+02 0.  0.
         23    2    4    4    0    0  0.37337595206E+03 -0.12064610004E+03 -0.86808036169E+02  0.41241756999E+03  0.92668947659E+02 0.  0.
         13    1    3    3    0    0  0.12352840634E+03  0.80881163635E+01  0.57699338421E+03  0.59012375839E+03  0.00000000000E+00 0. -1.
        -13    1    3    3    0    0  0.84273237438E+01  0.13583802838E+02  0.40010313238E+03  0.40042234706E+03  0.00000000000E+00 0.  1.
          2    1    5    5  502    0 -0.23406665031E+03  0.84982569944E+02 -0.92790790000E+01  0.24918935629E+03  0.00000000000E+00 0. -1.
          1    1    6    6  503    0  0.10274409879E+02 -0.25661838341E+02 -0.25747260385E+01  0.27761892219E+02  0.00000000000E+00 0. -1.
         -2    1    5    5    0  502 -0.27126503184E+03  0.13991610896E+02 -0.63675134724E+02  0.27898925688E+03  0.00000000000E+00 0.  1.
         -1    1    6    6    0  503  0.36310154218E+03 -0.94984261700E+02 -0.84233310131E+02  0.38465567777E+03  0.00000000000E+00 0.  1.
<mgrwt>
<rscale>  0 0.17496500E+04</rscale>
<asrwt>0</asrwt>
<pdfrwt beam="1">  1        1 0.85677541E-01 0.17496500E+04</pdfrwt>
<pdfrwt beam="2">  1       -1 0.21142127E+00 0.17496500E+04</pdfrwt>
<totfact> 0.45401974E+00</totfact>
</mgrwt>
</event>
<event>
12    1  0.4672461E-008  0.1505856E+04  0.7818608E-02  0.8880568E-01
         -1   -1    0    0    0  501 -0.00000000000E+00  0.00000000000E+00  0.16247021782E+03  0.16247021782E+03  0.00000000000E+00 0.  1.
          1   -1    0    0  501    0  0.00000000000E+00 -0.00000000000E+00 -0.34892602899E+04  0.34892602899E+04  0.00000000000E+00 0. -1.
         23    2    1    2    0    0 -0.13353119861E+03  0.44264916380E+02  0.32601963781E+02  0.16993432571E+03  0.89581377459E+02 0.  0.
        254    2    1    2    0    0  0.13353119861E+03 -0.44264916380E+02 -0.33593920359E+04  0.34817961820E+04  0.90421227517E+03 0.  0.
         23    2    4    4    0    0  0.31523081287E+03 -0.21864975943E+03 -0.65779442114E+03  0.76702524515E+03  0.91956748187E+02 0.  0.
         23    2    4    4    0    0 -0.18169961426E+03  0.17438484305E+03 -0.27015976147E+04  0.27147709369E+04  0.89032265983E+02 0.  0.
         11    1    3    3    0    0 -0.86023481427E+02 -0.12086049203E+02  0.40427960590E+02  0.95815092441E+02  0.00000000000E+00 0.  1.
        -11    1    3    3    0    0 -0.47507717186E+02  0.56350965584E+02 -0.78259968085E+01  0.74119233269E+02  0.00000000000E+00 0. -1.
          2    1    5    5  502    0  0.58265755595E+02 -0.74979626805E+02 -0.11151640404E+03  0.14646757689E+03  0.00000000000E+00 0. -1.
          2    1    6    6  503    0  0.30069667951E+01  0.33847651040E+02 -0.43325055329E+03  0.43458111700E+03  0.00000000000E+00 0. -1.
         -2    1    5    5    0  502  0.25696505727E+03 -0.14367013262E+03 -0.54627801710E+03  0.62055766826E+03  0.00000000000E+00 0.  1.
         -2    1    6    6    0  503 -0.18470658105E+03  0.14053719201E+03 -0.22683470614E+04  0.22801898199E+04  0.00000000000E+00 0.  1.
<mgrwt>
<rscale>  0 0.15058564E+04</rscale>
<asrwt>0</asrwt>
<pdfrwt beam="1">  1        1 0.53680928E+00 0.15058564E+04</pdfrwt>
<pdfrwt beam="2">  1       -1 0.24995418E-01 0.15058564E+04</pdfrwt>
<totfact> 0.34919124E+00</totfact>
</mgrwt>
</event>
<event>
12    1  0.4672461E-008  0.2195160E+04  0.7818608E-02  0.8520445E-01
         -1   -1    0    0    0  501 -0.00000000000E+00  0.00000000000E+00  0.10356428597E+04  0.10356428597E+04  0.00000000000E+00 0.  1.
          1   -1    0    0  501    0  0.00000000000E+00 -0.00000000000E+00 -0.11632218444E+04  0.11632218444E+04  0.00000000000E+00 0. -1.
         23    2    1    2    0    0 -0.44529987219E+03  0.22259104322E+03  0.68228659719E+03  0.84936078500E+03  0.89777467653E+02 0.  0.
        254    2    1    2    0    0  0.44529987219E+03 -0.22259104322E+03 -0.80986558187E+03  0.13495039191E+04  0.95783078793E+03 0.  0.
         23    2    4    4    0    0  0.63002524391E+03  0.78026503355E+02 -0.73623987306E+03  0.97711626405E+03  0.98423064292E+02 0.  0.
         23    2    4    4    0    0 -0.18472537172E+03 -0.30061754657E+03 -0.73625708808E+02  0.37238765507E+03  0.93581239481E+02 0.  0.
         13    1    3    3    0    0 -0.49182168391E+02 -0.32589101478E+01  0.54961025395E+02  0.73825608670E+02  0.00000000000E+00 0. -1.
        -13    1    3    3    0    0 -0.39611770380E+03  0.22584995337E+03  0.62732557179E+03  0.77553517633E+03  0.00000000000E+00 0.  1.
          4    1    5    5  502    0  0.10064671041E+03 -0.17791406315E+01 -0.70860941159E+02  0.12310239088E+03  0.00000000000E+00 0. -1.
          3    1    6    6  503    0 -0.14012850733E+03 -0.14875535041E+03 -0.62570308892E+02  0.21372692015E+03  0.00000000000E+00 0. -1.
         -4    1    5    5    0  502  0.52937853351E+03  0.79805643986E+02 -0.66537893190E+03  0.85401387317E+03  0.00000000000E+00 0.  1.
         -3    1    6    6    0  503 -0.44596864395E+02 -0.15186219616E+03 -0.11055399917E+02  0.15866073492E+03  0.00000000000E+00 0.  1.
<mgrwt>
<rscale>  0 0.21951605E+04</rscale>
<asrwt>0</asrwt>
<pdfrwt beam="1">  1        1 0.17895721E+00 0.21951605E+04</pdfrwt>
<pdfrwt beam="2">  1       -1 0.15932967E+00 0.21951605E+04</pdfrwt>
<totfact> 0.30674355E+00</totfact>
</mgrwt>
</event>
<event>
12    1  0.4672461E-008  0.2159676E+04  0.7818608E-02  0.8535402E-01
          1   -1    0    0  501    0  0.00000000000E+00  0.00000000000E+00  0.15970267387E+04  0.15970267387E+04  0.00000000000E+00 0. -1.
         -1   -1    0    0    0  501 -0.00000000000E+00 -0.00000000000E+00 -0.73013841344E+03  0.73013841344E+03  0.00000000000E+00 0.  1.
         23    2    1    2    0    0 -0.13139813702E+03  0.53200377768E+02  0.13069477171E+04  0.13178253217E+04  0.91953752921E+02 0.  0.
        254    2    1    2    0    0  0.13139813702E+03 -0.53200377768E+02 -0.44005939185E+03  0.10093398304E+04  0.89722844044E+03 0.  0.
         23    2    4    4    0    0  0.19422287676E+03 -0.43329095603E+03 -0.37101457494E+03  0.60943943101E+03  0.91109971017E+02 0.  0.
         23    2    4    4    0    0 -0.62824739738E+02  0.38009057826E+03 -0.69044816911E+02  0.39990039942E+03  0.82081344467E+02 0.  0.
         13    1    3    3    0    0 -0.12509205775E+03  0.69023965443E+02  0.12561249030E+04  0.12642239131E+04  0.00000000000E+00 0. -1.
        -13    1    3    3    0    0 -0.63060792669E+01 -0.15823587675E+02  0.50822814139E+02  0.53601408561E+02  0.00000000000E+00 0.  1.
          2    1    5    5  502    0  0.12133343300E+02 -0.11837473797E+03 -0.10613648268E+03  0.15945140188E+03  0.00000000000E+00 0. -1.
          1    1    6    6  503    0 -0.18240747300E+02  0.20929558132E+03 -0.75555575109E+02  0.22326220045E+03  0.00000000000E+00 0. -1.
         -2    1    5    5    0  502  0.18208953346E+03 -0.31491621807E+03 -0.26487809226E+03  0.44998802912E+03  0.00000000000E+00 0.  1.
         -1    1    6    6    0  503 -0.44583992438E+02  0.17079499695E+03  0.65107581977E+01  0.17663819897E+03  0.00000000000E+00 0.  1.
<mgrwt>
<rscale>  0 0.21596764E+04</rscale>
<asrwt>0</asrwt>
<pdfrwt beam="1">  1        1 0.24569642E+00 0.21596764E+04</pdfrwt>
<pdfrwt beam="2">  1       -1 0.11232899E+00 0.21596764E+04</pdfrwt>
<totfact> 0.37244104E+00</totfact>
</mgrwt>
</event>
<event>
12    1  0.4672461E-008  0.2176111E+04  0.7818608E-02  0.8528437E-01
          1   -1    0    0  501    0  0.00000000000E+00  0.00000000000E+00  0.19588279592E+04  0.19588279592E+04  0.00000000000E+00 0. -1.
         -1   -1    0    0    0  501 -0.00000000000E+00 -0.00000000000E+00 -0.60437407061E+03  0.60437407061E+03  0.00000000000E+00 0.  1.
         23    2    1    2    0    0 -0.34212817079E+02  0.36449602744E+03  0.15239919194E+04  0.15699748234E+04  0.90783837174E+02 0.  0.
        254    2    1    2    0    0  0.34212817079E+02 -0.36449602744E+03 -0.16953803076E+03  0.99322720639E+03  0.90759532214E+03 0.  0.
         23    2    4    4    0    0 -0.68702909580E+02  0.22990155502E+03 -0.27438394199E+03  0.37449228745E+03  0.85925030998E+02 0.  0.
         23    2    4    4    0    0  0.10291572666E+03 -0.59439758245E+03  0.10484591124E+03  0.61873491894E+03  0.89107249926E+02 0.  0.
         11    1    3    3    0    0 -0.53565868972E+02  0.32498863521E+03  0.12598206196E+04  0.13021654691E+04  0.00000000000E+00 0. -1.
        -11    1    3    3    0    0  0.19353051893E+02  0.39507392225E+02  0.26417129972E+03  0.26780935431E+03  0.00000000000E+00 0.  1.
          2    1    5    5  502    0 -0.55836764392E+02  0.20092397989E+03 -0.18189552669E+03  0.27672038700E+03  0.00000000000E+00 0. -1.
          1    1    6    6  503    0  0.87764714599E+02 -0.58548547034E+03  0.99255443248E+02  0.60028953358E+03  0.00000000000E+00 0. -1.
         -2    1    5    5    0  502 -0.12866145188E+02  0.28977575130E+02 -0.92488415305E+02  0.97771900452E+02  0.00000000000E+00 0.  1.
         -1    1    6    6    0  503  0.15151012060E+02 -0.89121121139E+01  0.55904679882E+01  0.18445385361E+02  0.00000000000E+00 0.  1.
<mgrwt>
<rscale>  0 0.21761111E+04</rscale>
<asrwt>0</asrwt>
<pdfrwt beam="1">  1        1 0.30135814E+00 0.21761111E+04</pdfrwt>
<pdfrwt beam="2">  1       -1 0.92980627E-01 0.21761111E+04</pdfrwt>
<totfact> 0.32618583E+00</totfact>
</mgrwt>
</event>
<event>
12    1  0.4672461E-008  0.1524971E+04  0.7818608E-02  0.8868015E-01
          1   -1    0    0  501    0  0.00000000000E+00  0.00000000000E+00  0.12056641710E+04  0.12056641710E+04  0.00000000000E+00 0. -1.
         -1   -1    0    0    0  501 -0.00000000000E+00 -0.00000000000E+00 -0.48221053784E+03  0.48221053784E+03  0.00000000000E+00 0.  1.
         23    2    1    2    0    0 -0.47314570370E+03 -0.14240648712E+03  0.11606804135E+03  0.51557947073E+03  0.90575581189E+02 0.  0.
        254    2    1    2    0    0  0.47314570370E+03  0.14240648712E+03  0.60738559183E+03  0.11722952381E+04  0.87247487281E+03 0.  0.
         23    2    4    4    0    0  0.49803095097E+03 -0.17571274006E+03  0.69949767073E+02  0.54054667381E+03  0.91585705832E+02 0.  0.
         23    2    4    4    0    0 -0.24885247270E+02  0.31811922718E+03  0.53743582475E+03  0.63174856432E+03  0.91923144846E+02 0.  0.
         11    1    3    3    0    0 -0.18866246462E+02 -0.16392412963E+01  0.24978289436E+02  0.31345451197E+02  0.00000000000E+00 0. -1.
        -11    1    3    3    0    0 -0.45427945724E+03 -0.14076724583E+03  0.91089751915E+02  0.48423401953E+03  0.00000000000E+00 0.  1.
          4    1    5    5  502    0  0.48160466438E+03 -0.15039654163E+03  0.57156717440E+02  0.50776870998E+03  0.00000000000E+00 0. -1.
          3    1    6    6  503    0 -0.22725019668E+02  0.12282875709E+02  0.50636874947E+02  0.56845304634E+02  0.00000000000E+00 0.  1.
         -4    1    5    5    0  502  0.16426286591E+02 -0.25316198429E+02  0.12793049634E+02  0.32777963833E+02  0.00000000000E+00 0.  1.
         -3    1    6    6    0  503 -0.21602276026E+01  0.30583635147E+03  0.48679894981E+03  0.57490325969E+03  0.00000000000E+00 0. -1.
<mgrwt>
<rscale>  0 0.15249708E+04</rscale>
<asrwt>0</asrwt>
<pdfrwt beam="1">  1        1 0.18548680E+00 0.15249708E+04</pdfrwt>
<pdfrwt beam="2">  1       -1 0.74186237E-01 0.15249708E+04</pdfrwt>
<totfact> 0.18691613E+01</totfact>
</mgrwt>
</event>
<event>
12    1  0.4672461E-008  0.1154921E+04  0.7818608E-02  0.9153255E-01
         -1   -1    0    0    0  501 -0.00000000000E+00  0.00000000000E+00  0.11445760963E+04  0.11445760963E+04  0.00000000000E+00 0.  1.
          1   -1    0    0  501    0  0.00000000000E+00 -0.00000000000E+00 -0.29133999891E+03  0.29133999891E+03  0.00000000000E+00 0. -1.
         23    2    1    2    0    0 -0.12994353431E+03  0.80883076639E+02 -0.14174983746E+02  0.17728950461E+03  0.88335972781E+02 0.  0.
        254    2    1    2    0    0  0.12994353431E+03 -0.80883076639E+02  0.86741108116E+03  0.12586265906E+04  0.89906146437E+03 0.  0.
         23    2    4    4    0    0 -0.82796407271E+02  0.36840936395E+03  0.25360993961E+03  0.46404851754E+03  0.91882101951E+02 0.  0.
         23    2    4    4    0    0  0.21273994158E+03 -0.44929244059E+03  0.61380114155E+03  0.79457807309E+03  0.86489843029E+02 0.  0.
         11    1    3    3    0    0 -0.12253117722E+03  0.98247393870E+02 -0.17811393267E+02  0.15806228369E+03  0.00000000000E+00 0. -1.
        -11    1    3    3    0    0 -0.74123570839E+01 -0.17364317230E+02  0.36364095208E+01  0.19227220928E+02  0.00000000000E+00 0.  1.
          1    1    6    6  502    0  0.83644840966E+02 -0.18115951231E+03  0.31487369453E+03  0.37277429073E+03  0.00000000000E+00 0. -1.
          1    1    5    5  503    0  0.10538654942E+02  0.14076088522E+03  0.73606372869E+02  0.15919355572E+03  0.00000000000E+00 0. -1.
         -1    1    5    5    0  503 -0.93335062214E+02  0.22764847873E+03  0.18000356674E+03  0.30485496182E+03  0.00000000000E+00 0.  1.
         -1    1    6    6    0  502  0.12909510061E+03 -0.26813292828E+03  0.29892744702E+03  0.42180378236E+03  0.00000000000E+00 0.  1.
<mgrwt>
<rscale>  0 0.11549213E+04</rscale>
<asrwt>0</asrwt>
<pdfrwt beam="1">  1        1 0.44821539E-01 0.11549213E+04</pdfrwt>
<pdfrwt beam="2">  1       -1 0.17608863E+00 0.11549213E+04</pdfrwt>
<totfact> 0.20089305E+01</totfact>
</mgrwt>
</event>
<event>
12    1  0.4672461E-008  0.2140885E+04  0.7818608E-02  0.8543444E-01
         -2   -1    0    0    0  501 -0.00000000000E+00  0.00000000000E+00  0.10352174354E+04  0.10352174354E+04  0.00000000000E+00 0.  1.
          2   -1    0    0  501    0  0.00000000000E+00 -0.00000000000E+00 -0.11068660447E+04  0.11068660447E+04  0.00000000000E+00 0. -1.
         23    2    1    2    0    0  0.41818044209E+03 -0.49504395908E+03  0.57922426873E+03  0.87411349017E+03  0.92899066983E+02 0.  0.
        254    2    1    2    0    0 -0.41818044209E+03  0.49504395908E+03 -0.65087287802E+03  0.12679699898E+04  0.87416759735E+03 0.  0.
         23    2    4    4    0    0 -0.31023641267E+03  0.68507303453E+03 -0.69448974206E+03  0.10277760076E+04  0.91846750103E+02 0.  0.
         23    2    4    4    0    0 -0.10794402942E+03 -0.19002907545E+03  0.43616864045E+02  0.24019398229E+03  0.89597741572E+02 0.  0.
         13    1    3    3    0    0  0.20462404392E+03 -0.30129172122E+03  0.35777429277E+03  0.51053907313E+03  0.00000000000E+00 0.  1.
        -13    1    3    3    0    0  0.21355639816E+03 -0.19375223785E+03  0.22144997597E+03  0.36357441704E+03  0.00000000000E+00 0. -1.
          2    1    5    5  502    0 -0.28759854050E+03  0.55007228059E+03 -0.56559673875E+03  0.83975717041E+03  0.00000000000E+00 0. -1.
          3    1    6    6  503    0 -0.98425162855E+02 -0.19929467704E+03  0.36927509810E+02  0.22532093103E+03  0.00000000000E+00 0. -1.
         -2    1    5    5    0  502 -0.22637872166E+02  0.13500075394E+03 -0.12889300331E+03  0.18801883715E+03  0.00000000000E+00 0.  1.
         -3    1    6    6    0  503 -0.95188665666E+01  0.92656015934E+01  0.66893542342E+01  0.14873051256E+02  0.00000000000E+00 0.  1.
<mgrwt>
<rscale>  0 0.21408849E+04</rscale>
<asrwt>0</asrwt>
<pdfrwt beam="1">  1        2 0.17028708E+00 0.21408849E+04</pdfrwt>
<pdfrwt beam="2">  1       -2 0.15926422E+00 0.21408849E+04</pdfrwt>
<totfact> 0.50543685E+00</totfact>
</mgrwt>
</event>
<event>
12    1  0.4672461E-008  0.1789756E+04  0.7818608E-02  0.8711766E-01
         -1   -1    0    0    0  501 -0.00000000000E+00  0.00000000000E+00  0.24124696338E+04  0.24124696338E+04  0.00000000000E+00 0.  1.
          1   -1    0    0  501    0  0.00000000000E+00 -0.00000000000E+00 -0.33194482527E+03  0.33194482527E+03  0.00000000000E+00 0. -1.
         23    2    1    2    0    0  0.29980641870E+03 -0.30278330306E+02 -0.12806524930E+03  0.33978555737E+03  0.90845203162E+02 0.  0.
        254    2    1    2    0    0 -0.29980641870E+03  0.30278330306E+02  0.22085900579E+04  0.24046289017E+04  0.90198084538E+03 0.  0.
         23    2    4    4    0    0  0.85681779466E+02 -0.34167245285E+03  0.54823796291E+03  0.65765382764E+03  0.88669389717E+02 0.  0.
         23    2    4    4    0    0 -0.38548819817E+03  0.37195078316E+03  0.16603520949E+04  0.17469750741E+04  0.90577559531E+02 0.  0.
         11    1    3    3    0    0  0.58671359743E+02  0.29734340026E+02 -0.19427437953E+02  0.68584872795E+02  0.00000000000E+00 0.  1.
        -11    1    3    3    0    0  0.24113505896E+03 -0.60012670332E+02 -0.10863781135E+03  0.27120068457E+03  0.00000000000E+00 0. -1.
          2    1    5    5  502    0  0.62246742926E+02 -0.31141743658E+03  0.52280778775E+03  0.61170537004E+03  0.00000000000E+00 0. -1.
          2    1    6    6  503    0 -0.19946768965E+02  0.45411704275E+02  0.10318437719E+03  0.11448629688E+03  0.00000000000E+00 0.  1.
         -2    1    5    5    0  502  0.23435036540E+02 -0.30255016273E+02  0.25430175160E+02  0.45948457602E+02  0.00000000000E+00 0.  1.
         -2    1    6    6    0  503 -0.36554142920E+03  0.32653907888E+03  0.15571677178E+04  0.16324887772E+04  0.00000000000E+00 0. -1.
<mgrwt>
<rscale>  0 0.17897562E+04</rscale>
<asrwt>0</asrwt>
<pdfrwt beam="1">  1        1 0.51068436E-01 0.17897562E+04</pdfrwt>
<pdfrwt beam="2">  1       -1 0.37114916E+00 0.17897562E+04</pdfrwt>
<totfact> 0.81648594E-01</totfact>
</mgrwt>
</event>
<event>
12    1  0.4672461E-008  0.1148319E+04  0.7818608E-02  0.9159336E-01
          2   -1    0    0  501    0  0.00000000000E+00  0.00000000000E+00  0.12596746043E+04  0.12596746043E+04  0.00000000000E+00 0. -1.
         -2   -1    0    0    0  501 -0.00000000000E+00 -0.00000000000E+00 -0.26170176502E+03  0.26170176502E+03  0.00000000000E+00 0.  1.
         23    2    1    2    0    0  0.17267451137E+03  0.63491703883E+02  0.30598759413E+03  0.37039445676E+03  0.98569582020E+02 0.  0.
        254    2    1    2    0    0 -0.17267451137E+03 -0.63491703883E+02  0.69198524517E+03  0.11509819126E+04  0.90114821213E+03 0.  0.
         23    2    4    4    0    0 -0.19317372060E+03 -0.50490957095E+02  0.89780515021E+03  0.92386380231E+03  0.87205587040E+02 0.  0.
         23    2    4    4    0    0  0.20499209224E+02 -0.13000746788E+02 -0.20581990503E+03  0.22711811027E+03  0.92906219977E+02 0.  0.
         13    1    3    3    0    0  0.87174343329E+01  0.14804177156E+02  0.10539162509E+03  0.10678273251E+03  0.00000000000E+00 0. -1.
        -13    1    3    3    0    0  0.16395707704E+03  0.48687526728E+02  0.20059596904E+03  0.26361172426E+03  0.00000000000E+00 0.  1.
          1    1    5    5  502    0 -0.11315393874E+03 -0.11957377680E+02  0.32792904361E+03  0.34710841300E+03  0.00000000000E+00 0. -1.
          3    1    6    6  503    0  0.31938607012E+02  0.33727612287E+02 -0.12092830175E+03  0.12954258224E+03  0.00000000000E+00 0. -1.
         -1    1    5    5    0  502 -0.80019781855E+02 -0.38533579415E+02  0.56987610660E+03  0.57675538932E+03  0.00000000000E+00 0.  1.
         -3    1    6    6    0  503 -0.11439397788E+02 -0.46728359075E+02 -0.84891603285E+02  0.97575528038E+02  0.00000000000E+00 0.  1.
<mgrwt>
<rscale>  0 0.11483189E+04</rscale>
<asrwt>0</asrwt>
<pdfrwt beam="1">  1        2 0.19379609E+00 0.11483189E+04</pdfrwt>
<pdfrwt beam="2">  1       -2 0.40261811E-01 0.11483189E+04</pdfrwt>
<totfact> 0.10083738E+02</totfact>
</mgrwt>
</event>
<event>
12    1  0.4672461E-008  0.3527946E+04  0.7818608E-02  0.8107199E-01
         -1   -1    0    0    0  501 -0.00000000000E+00  0.00000000000E+00  0.15495932093E+04  0.15495932093E+04  0.00000000000E+00 0. -1.
          1   -1    0    0  501    0  0.00000000000E+00 -0.00000000000E+00 -0.20080118279E+04  0.20080118279E+04  0.00000000000E+00 0.  1.
         23    2    1    2    0    0  0.69802010273E+03  0.12560261579E+04  0.59766895185E+03  0.15589923516E+04  0.91734415959E+02 0.  0.
        254    2    1    2    0    0 -0.69802010273E+03 -0.12560261579E+04 -0.10560875705E+04  0.19986126857E+04  0.90238458412E+03 0.  0.
         23    2    4    4    0    0 -0.30987719363E+03 -0.12159480585E+04 -0.97177229049E+03  0.15893267910E+04  0.84051815655E+02 0.  0.
         23    2    4    4    0    0 -0.38814290910E+03 -0.40078099391E+02 -0.84315279986E+02  0.40928589472E+03  0.90248020726E+02 0.  0.
         11    1    3    3    0    0  0.23132825394E+03  0.44873722352E+03  0.25447686312E+03  0.56536389229E+03  0.00000000000E+00 0.  1.
        -11    1    3    3    0    0  0.46669184879E+03  0.80728893440E+03  0.34319208873E+03  0.99362845929E+03  0.00000000000E+00 0. -1.
          1    1    5    5  502    0 -0.20828547983E+03 -0.83539590633E+03 -0.61696268789E+03  0.10592035308E+04  0.00000000000E+00 0. -1.
          3    1    6    6  503    0 -0.33514940492E+03 -0.18520228680E+01 -0.69449366711E+02  0.34227440475E+03  0.00000000000E+00 0. -1.
         -1    1    5    5    0  502 -0.10159171380E+03 -0.38055215220E+03 -0.35480960260E+03  0.53012326015E+03  0.00000000000E+00 0.  1.
         -3    1    6    6    0  503 -0.52993504178E+02 -0.38226076523E+02 -0.14865913274E+02  0.67011489976E+02  0.00000000000E+00 0.  1.
<mgrwt>
<rscale>  0 0.35279464E+04</rscale>
<asrwt>0</asrwt>
<pdfrwt beam="1">  1        1 0.30892489E+00 0.35279464E+04</pdfrwt>
<pdfrwt beam="2">  1       -1 0.23839896E+00 0.35279464E+04</pdfrwt>
<totfact> 0.19898363E-01</totfact>
</mgrwt>
</event>
<event>
12    1  0.4672461E-008  0.1499609E+04  0.7818608E-02  0.8884713E-01
         -2   -1    0    0    0  501 -0.00000000000E+00  0.00000000000E+00  0.16063582076E+03  0.16063582076E+03  0.00000000000E+00 0.  1.
          2   -1    0    0  501    0  0.00000000000E+00 -0.00000000000E+00 -0.34998841473E+04  0.34998841473E+04  0.00000000000E+00 0. -1.
         23    2    1    2    0    0  0.23802379716E+03  0.10418835536E+03 -0.20411961116E+04  0.20598854427E+04  0.95582058204E+02 0.  0.
        254    2    1    2    0    0 -0.23802379716E+03 -0.10418835536E+03 -0.12980522150E+04  0.16006345254E+04  0.89976707515E+03 0.  0.
         23    2    4    4    0    0 -0.69262557341E+02 -0.48927771600E+03 -0.63935294368E+03  0.81336875669E+03  0.92771561064E+02 0.  0.
         23    2    4    4    0    0 -0.16876123982E+03  0.38508936064E+03 -0.65869927132E+03  0.78726576868E+03  0.95543125068E+02 0.  0.
         11    1    3    3    0    0  0.21355984987E+03  0.81129743628E+02 -0.14645911248E+04  0.14823012540E+04  0.00000000000E+00 0. -1.
        -11    1    3    3    0    0  0.24463947292E+02  0.23058611729E+02 -0.57660498678E+03  0.57758418873E+03  0.00000000000E+00 0.  1.
          1    1    5    5  502    0 -0.25078259808E+02 -0.25237628820E+02 -0.60207155920E+02  0.69933959186E+02  0.00000000000E+00 0. -1.
          3    1    6    6  503    0 -0.15208456174E+01  0.58714635603E+02 -0.52546417766E+02  0.78808929858E+02  0.00000000000E+00 0. -1.
         -1    1    5    5    0  502 -0.44184297533E+02 -0.46404008718E+03 -0.57914578776E+03  0.74343479751E+03  0.00000000000E+00 0.  1.
         -3    1    6    6    0  503 -0.16724039420E+03  0.32637472504E+03 -0.60615285356E+03  0.70845683882E+03  0.00000000000E+00 0.  1.
<mgrwt>
<rscale>  0 0.14996090E+04</rscale>
<asrwt>0</asrwt>
<pdfrwt beam="1">  1        2 0.53844366E+00 0.14996090E+04</pdfrwt>
<pdfrwt beam="2">  1       -2 0.24713206E-01 0.14996090E+04</pdfrwt>
<totfact> 0.11674523E+01</totfact>
</mgrwt>
</event>
<event>
12    1  0.4672461E-008  0.1397802E+04  0.7818608E-02  0.8955411E-01
          3   -1    0    0  501    0  0.00000000000E+00  0.00000000000E+00  0.49221062732E+03  0.49221062732E+03  0.00000000000E+00 0. -1.
         -3   -1    0    0    0  501 -0.00000000000E+00 -0.00000000000E+00 -0.99238561668E+03  0.99238561668E+03  0.00000000000E+00 0.  1.
         23    2    1    2    0    0 -0.20748956674E+03  0.33058537383E+03 -0.47873372605E+02  0.40388921410E+03  0.92173899598E+02 0.  0.
        254    2    1    2    0    0  0.20748956674E+03 -0.33058537383E+03 -0.45230161675E+03  0.10807070299E+04  0.90056222564E+03 0.  0.
         23    2    4    4    0    0  0.30986614929E+03 -0.90239184673E+02  0.18722187501E+03  0.38420972096E+03  0.91678450421E+02 0.  0.
         23    2    4    4    0    0 -0.10237658255E+03 -0.24034618916E+03 -0.63952349176E+03  0.69649730894E+03  0.88718372101E+02 0.  0.
         13    1    3    3    0    0 -0.16679711127E+03  0.31684409181E+03 -0.44158036590E+02  0.36077886169E+03  0.00000000000E+00 0. -1.
        -13    1    3    3    0    0 -0.40692455472E+02  0.13741282019E+02 -0.37153360155E+01  0.43110352417E+02  0.00000000000E+00 0.  1.
          2    1    5    5  502    0  0.22453337933E+03 -0.64951533563E+02  0.17981292062E+03  0.29490104538E+03  0.00000000000E+00 0. -1.
          3    1    6    6  503    0 -0.79834361132E+01 -0.12531650778E+03 -0.32939960401E+03  0.35252242695E+03  0.00000000000E+00 0. -1.
         -2    1    5    5    0  502  0.85332769964E+02 -0.25287651110E+02  0.74089543843E+01  0.89308675578E+02  0.00000000000E+00 0.  1.
         -3    1    6    6    0  503 -0.94393146434E+02 -0.11502968138E+03 -0.31012388775E+03  0.34397488199E+03  0.00000000000E+00 0.  1.
<mgrwt>
<rscale>  0 0.13978022E+04</rscale>
<asrwt>0</asrwt>
<pdfrwt beam="1">  1        3 0.75724712E-01 0.13978022E+04</pdfrwt>
<pdfrwt beam="2">  1       -3 0.15267471E+00 0.13978022E+04</pdfrwt>
<totfact> 0.12909736E+00</totfact>
</mgrwt>
</event>
<event>
12    1  0.4672461E-008  0.1401877E+04  0.7818608E-02  0.8952461E-01
          2   -1    0    0  501    0  0.00000000000E+00  0.00000000000E+00  0.10914118391E+04  0.10914118391E+04  0.00000000000E+00 0. -1.
         -2   -1    0    0    0  501 -0.00000000000E+00 -0.00000000000E+00 -0.45016469852E+03  0.45016469852E+03  0.00000000000E+00 0.  1.
         23    2    1    2    0    0 -0.35945028095E+03 -0.39108059016E+02 -0.15593306940E+02  0.37249548894E+03  0.88180458737E+02 0.  0.
        254    2    1    2    0    0  0.35945028095E+03  0.39108059016E+02  0.65684044753E+03  0.11690810487E+04  0.89698226301E+03 0.  0.
         23    2    4    4    0    0  0.30335683758E+03 -0.33531314407E+03  0.62695252326E+03  0.77846064330E+03  0.92039291873E+02 0.  0.
         23    2    4    4    0    0  0.56093443372E+02  0.37442120309E+03  0.29887924270E+02  0.39062040540E+03  0.91396397025E+02 0.  0.
         11    1    3    3    0    0 -0.21633546311E+03 -0.57572909098E+02 -0.36057497538E+02  0.22675055808E+03  0.00000000000E+00 0.  1.
        -11    1    3    3    0    0 -0.14311481784E+03  0.18464850082E+02  0.20464190599E+02  0.14574493086E+03  0.00000000000E+00 0. -1.
          1    1    5    5  502    0  0.18940228608E+03 -0.23394705811E+03  0.48062420198E+03  0.56710146844E+03  0.00000000000E+00 0. -1.
          3    1    6    6  503    0  0.17434574952E+02  0.19228661024E+03 -0.29214199094E+02  0.19527307625E+03  0.00000000000E+00 0. -1.
         -1    1    5    5    0  502  0.11395455150E+03 -0.10136608596E+03  0.14632832128E+03  0.21135917486E+03  0.00000000000E+00 0.  1.
         -3    1    6    6    0  503  0.38658868419E+02  0.18213459285E+03  0.59102123364E+02  0.19534732915E+03  0.00000000000E+00 0.  1.
<mgrwt>
<rscale>  0 0.14018774E+04</rscale>
<asrwt>0</asrwt>
<pdfrwt beam="1">  1        2 0.16790951E+00 0.14018774E+04</pdfrwt>
<pdfrwt beam="2">  1       -2 0.69256108E-01 0.14018774E+04</pdfrwt>
<totfact> 0.40846206E+01</totfact>
</mgrwt>
</event>
<event>
12    1  0.4672461E-008  0.2902033E+04  0.7818608E-02  0.8272273E-01
          1   -1    0    0  501    0  0.00000000000E+00  0.00000000000E+00  0.10494051019E+04  0.10494051019E+04  0.00000000000E+00 0. -1.
         -1   -1    0    0    0  501 -0.00000000000E+00 -0.00000000000E+00 -0.20063260367E+04  0.20063260367E+04  0.00000000000E+00 0.  1.
         23    2    1    2    0    0 -0.91576564964E+03  0.72466103473E+03  0.16271655099E+03  0.11820538374E+04  0.83751168293E+02 0.  0.
        254    2    1    2    0    0  0.91576564964E+03 -0.72466103473E+03 -0.11196374858E+04  0.18736773012E+04  0.94515511380E+03 0.  0.
         23    2    4    4    0    0  0.84737464918E+03 -0.18853189487E+03 -0.97163087097E+03  0.13061947725E+04  0.92142079547E+02 0.  0.
         23    2    4    4    0    0  0.68391000465E+02 -0.53612913985E+03 -0.14800661485E+03  0.56748252872E+03  0.89547076025E+02 0.  0.
         13    1    3    3    0    0 -0.14076168444E+03  0.80379035629E+02  0.68631389221E+01  0.16223977271E+03  0.00000000000E+00 0.  1.
        -13    1    3    3    0    0 -0.77500396520E+03  0.64428199910E+03  0.15585341207E+03  0.10198140647E+04  0.00000000000E+00 0. -1.
          2    1    5    5  502    0  0.58788854017E+03 -0.11628531482E+03 -0.72869987093E+03  0.94347162755E+03  0.00000000000E+00 0.  1.
          1    1    6    6  503    0  0.76021989403E+02 -0.29800449510E+03 -0.59024960122E+02  0.31316124902E+03  0.00000000000E+00 0. -1.
         -2    1    5    5    0  502  0.25948610900E+03 -0.72246580054E+02 -0.24293100004E+03  0.36272314494E+03  0.00000000000E+00 0. -1.
         -1    1    6    6    0  503 -0.76309889381E+01 -0.23812464475E+03 -0.88981654726E+02  0.25432127970E+03  0.00000000000E+00 0.  1.
<mgrwt>
<rscale>  0 0.29020329E+04</rscale>
<asrwt>0</asrwt>
<pdfrwt beam="1">  1        1 0.16144694E+00 0.29020329E+04</pdfrwt>
<pdfrwt beam="2">  1       -1 0.30866554E+00 0.29020329E+04</pdfrwt>
<totfact> 0.34488379E-01</totfact>
</mgrwt>
</event>
<event>
12    1  0.4672461E-008  0.2870030E+04  0.7818608E-02  0.8281851E-01
         -2   -1    0    0    0  501 -0.00000000000E+00  0.00000000000E+00  0.94821521179E+03  0.94821521179E+03  0.00000000000E+00 0.  1.
          2   -1    0    0  501    0  0.00000000000E+00 -0.00000000000E+00 -0.21717306918E+04  0.21717306918E+04  0.00000000000E+00 0. -1.
         23    2    1    2    0    0  0.71198304240E+03  0.10434401554E+04 -0.93049194135E+03  0.15716553617E+04  0.92726007383E+02 0.  0.
        254    2    1    2    0    0 -0.71198304240E+03 -0.10434401554E+04 -0.29302353864E+03  0.15482905419E+04  0.84596311823E+03 0.  0.
         23    2    4    4    0    0 -0.42301859009E+03 -0.24228552461E+03 -0.45886667134E+03  0.67573664724E+03  0.91729991607E+02 0.  0.
         23    2    4    4    0    0 -0.28896445231E+03 -0.80115463077E+03  0.16584313270E+03  0.87255389465E+03  0.92180026595E+02 0.  0.
         11    1    3    3    0    0  0.76477709467E+02  0.16208805553E+03 -0.15169081408E+03  0.23480093881E+03  0.00000000000E+00 0.  1.
        -11    1    3    3    0    0  0.63550533294E+03  0.88135209985E+03 -0.77880112727E+03  0.13368544229E+04  0.00000000000E+00 0. -1.
          2    1    5    5  502    0  0.26197986227E+01 -0.99024496354E+01 -0.44843422014E+01  0.11181734149E+02  0.00000000000E+00 0. -1.
          4    1    6    6  503    0 -0.22171769798E+03 -0.56815392641E+03  0.15753587127E+03  0.62990092271E+03  0.00000000000E+00 0.  1.
         -2    1    5    5    0  502 -0.42563838872E+03 -0.23238307497E+03 -0.45438232914E+03  0.66455491310E+03  0.00000000000E+00 0.  1.
         -4    1    6    6    0  503 -0.67246754326E+02 -0.23300070436E+03  0.83072614367E+01  0.24265297194E+03  0.00000000000E+00 0. -1.
<mgrwt>
<rscale>  0 0.28700300E+04</rscale>
<asrwt>0</asrwt>
<pdfrwt beam="1">  1        2 0.33411241E+00 0.28700300E+04</pdfrwt>
<pdfrwt beam="2">  1       -2 0.14587926E+00 0.28700300E+04</pdfrwt>
<totfact> 0.14945506E+00</totfact>
</mgrwt>
</event>
<event>
12    1  0.4672461E-008  0.1063140E+04  0.7818608E-02  0.9241882E-01
         -2   -1    0    0    0  501 -0.00000000000E+00  0.00000000000E+00  0.60725713987E+02  0.60725713987E+02  0.00000000000E+00 0.  1.
          2   -1    0    0  501    0  0.00000000000E+00 -0.00000000000E+00 -0.46531602302E+04  0.46531602302E+04  0.00000000000E+00 0. -1.
         23    2    1    2    0    0 -0.12612460854E+03  0.11019200279E+03 -0.13651910030E+04  0.13784803793E+04  0.91716885929E+02 0.  0.
        254    2    1    2    0    0  0.12612460854E+03 -0.11019200279E+03 -0.32272435132E+04  0.33354055649E+04  0.82569963919E+03 0.  0.
         23    2    4    4    0    0  0.93118915758E+02 -0.40021336565E+03 -0.26425218792E+04  0.26758614588E+04  0.92036917053E+02 0.  0.
         23    2    4    4    0    0  0.33005692787E+02  0.29002136286E+03 -0.58472163405E+03  0.65954410609E+03  0.88866596053E+02 0.  0.
         11    1    3    3    0    0 -0.90820142408E+02  0.52489783383E+02 -0.10924963453E+04  0.10975207242E+04  0.00000000000E+00 0. -1.
        -11    1    3    3    0    0 -0.35304466136E+02  0.57702219412E+02 -0.27269465771E+03  0.28095965511E+03  0.00000000000E+00 0.  1.
          1    1    5    5  502    0  0.27614194511E+02 -0.17248592557E+02 -0.20410576187E+03  0.20668628332E+03  0.00000000000E+00 0. -1.
          3    1    6    6  503    0  0.15923214036E+02  0.52372267449E+02 -0.19701192321E+03  0.20447518439E+03  0.00000000000E+00 0. -1.
         -1    1    5    5    0  502  0.65504721247E+02 -0.38296477309E+03 -0.24384161173E+04  0.24691751755E+04  0.00000000000E+00 0.  1.
         -3    1    6    6    0  503  0.17082478750E+02  0.23764909541E+03 -0.38770971083E+03  0.45506892170E+03  0.00000000000E+00 0.  1.
<mgrwt>
<rscale>  0 0.10631396E+04</rscale>
<asrwt>0</asrwt>
<pdfrwt beam="1">  1        2 0.71587087E+00 0.10631396E+04</pdfrwt>
<pdfrwt beam="2">  1       -2 0.93424166E-02 0.10631396E+04</pdfrwt>
<totfact> 0.71166653E+00</totfact>
</mgrwt>
</event>
<event>
12    1  0.4672461E-008  0.1960276E+04  0.7818608E-02  0.8625422E-01
          3   -1    0    0  501    0  0.00000000000E+00  0.00000000000E+00  0.25553276191E+04  0.25553276191E+04  0.00000000000E+00 0. -1.
         -3   -1    0    0    0  501 -0.00000000000E+00 -0.00000000000E+00 -0.37594796718E+03  0.37594796718E+03  0.00000000000E+00 0.  1.
         23    2    1    2    0    0 -0.20180223204E+03 -0.20444196370E+03  0.19145586594E+04  0.19381568798E+04  0.91632817759E+02 0.  0.
        254    2    1    2    0    0  0.20180223204E+03  0.20444196370E+03  0.26482099260E+03  0.99311870650E+03  0.91303556869E+03 0.  0.
         23    2    4    4    0    0  0.26676397970E+03 -0.96160569786E+02  0.50946222161E+03  0.59019265199E+03  0.91464392883E+02 0.  0.
         23    2    4    4    0    0 -0.64961747657E+02  0.30060253349E+03 -0.24464122901E+03  0.40292605451E+03  0.88984058534E+02 0.  0.
         11    1    3    3    0    0 -0.19428146977E+03 -0.14960950293E+03  0.14978407023E+04  0.15177796488E+04  0.00000000000E+00 0. -1.
        -11    1    3    3    0    0 -0.75207622636E+01 -0.54832460772E+02  0.41671795707E+03  0.42037723103E+03  0.00000000000E+00 0.  1.
          4    1    5    5  502    0  0.23708415096E+03 -0.73707159586E+02  0.48723229451E+03  0.54684270940E+03  0.00000000000E+00 0. -1.
          3    1    6    6  503    0 -0.23089038337E+02  0.17370968093E+03 -0.19025154218E+03  0.25865770091E+03  0.00000000000E+00 0. -1.
         -4    1    5    5    0  502  0.29679828738E+02 -0.22453410200E+02  0.22229927105E+02  0.43349942591E+02  0.00000000000E+00 0.  1.
         -3    1    6    6    0  503 -0.41872709321E+02  0.12689285256E+03 -0.54389686833E+02  0.14426835360E+03  0.00000000000E+00 0.  1.
<mgrwt>
<rscale>  0 0.19602757E+04</rscale>
<asrwt>0</asrwt>
<pdfrwt beam="1">  1        3 0.39312732E+00 0.19602757E+04</pdfrwt>
<pdfrwt beam="2">  1       -3 0.57838150E-01 0.19602757E+04</pdfrwt>
<totfact> 0.86788300E-02</totfact>
</mgrwt>
</event>
<event>
12    1  0.4672461E-008  0.1505912E+04  0.7818608E-02  0.8880531E-01
         -1   -1    0    0    0  501 -0.00000000000E+00  0.00000000000E+00  0.33874831879E+03  0.33874831879E+03  0.00000000000E+00 0.  1.
          1   -1    0    0  501    0  0.00000000000E+00 -0.00000000000E+00 -0.16736398927E+04  0.16736398927E+04  0.00000000000E+00 0. -1.
         23    2    1    2    0    0 -0.22337349755E+03 -0.37319422862E+03 -0.15465056833E+03  0.46664181209E+03  0.68323720768E+02 0.  0.
        254    2    1    2    0    0  0.22337349755E+03  0.37319422862E+03 -0.11802410056E+04  0.15457463994E+04  0.89843945170E+03 0.  0.
         23    2    4    4    0    0 -0.24968969347E+03  0.18232239762E+03 -0.90104720044E+03  0.95705433564E+03  0.92089870531E+02 0.  0.
         23    2    4    4    0    0  0.47306319102E+03  0.19087183100E+03 -0.27919380516E+03  0.58869206379E+03  0.91587807906E+02 0.  0.
         13    1    3    3    0    0 -0.22274668037E+03 -0.37037077238E+03 -0.14391580413E+03  0.45552425987E+03  0.00000000000E+00 0.  1.
        -13    1    3    3    0    0 -0.62681717485E+00 -0.28234562437E+01 -0.10734764200E+02  0.11117552220E+02  0.00000000000E+00 0. -1.
          1    1    5    5  502    0 -0.19853163608E+03  0.92906942169E+02 -0.59083396491E+03  0.63018353241E+03  0.00000000000E+00 0. -1.
          3    1    6    6  503    0  0.41021260953E+03  0.15591706610E+03 -0.20172674430E+03  0.48298881549E+03  0.00000000000E+00 0. -1.
         -1    1    5    5    0  502 -0.51158057390E+02  0.89415455451E+02 -0.31021323552E+03  0.32687080323E+03  0.00000000000E+00 0.  1.
         -3    1    6    6    0  503  0.62850581487E+02  0.34954764895E+02 -0.77467060857E+02  0.10570324829E+03  0.00000000000E+00 0.  1.
<mgrwt>
<rscale>  0 0.15059119E+04</rscale>
<asrwt>0</asrwt>
<pdfrwt beam="1">  1        1 0.25748306E+00 0.15059119E+04</pdfrwt>
<pdfrwt beam="2">  1       -1 0.52115127E-01 0.15059119E+04</pdfrwt>
<totfact> 0.17810298E+01</totfact>
</mgrwt>
</event>
<event>
12    1  0.4672461E-008  0.1470642E+04  0.7818608E-02  0.8904214E-01
         -1   -1    0    0    0  501 -0.00000000000E+00  0.00000000000E+00  0.68864273515E+03  0.68864273515E+03  0.00000000000E+00 0.  1.
          1   -1    0    0  501    0  0.00000000000E+00 -0.00000000000E+00 -0.78516370942E+03  0.78516370942E+03  0.00000000000E+00 0. -1.
         23    2    1    2    0    0 -0.13900092013E+03  0.36652781110E+03  0.20158452711E+03  0.45011093772E+03  0.91102374146E+02 0.  0.
        254    2    1    2    0    0  0.13900092013E+03 -0.36652781110E+03 -0.29810550138E+03  0.10236955068E+04  0.89745290053E+03 0.  0.
         23    2    4    4    0    0 -0.63117899045E+02  0.21414003368E+03  0.12554123452E+03  0.27119022446E+03  0.89127510208E+02 0.  0.
         23    2    4    4    0    0  0.20211881917E+03 -0.58066784478E+03 -0.42364673590E+03  0.75250528238E+03  0.93597436665E+02 0.  0.
         11    1    3    3    0    0 -0.11826728539E+03  0.27016589192E+03  0.10764674486E+03  0.31394996676E+03  0.00000000000E+00 0. -1.
        -11    1    3    3    0    0 -0.20733634738E+02  0.96361919186E+02  0.93937782250E+02  0.13616097096E+03  0.00000000000E+00 0.  1.
          4    1    5    5  502    0 -0.60220287010E+02  0.13921667576E+03  0.12445006481E+03  0.19620291641E+03  0.00000000000E+00 0. -1.
          1    1    6    6  503    0  0.17947979122E+03 -0.40270803959E+03 -0.32539449085E+03  0.54796745823E+03  0.00000000000E+00 0. -1.
         -4    1    5    5    0  502 -0.28976120348E+01  0.74923357923E+02  0.10911697088E+01  0.74987308054E+02  0.00000000000E+00 0.  1.
         -1    1    6    6    0  503  0.22639027949E+02 -0.17795980520E+03 -0.98252245048E+02  0.20453782415E+03  0.00000000000E+00 0.  1.
<mgrwt>
<rscale>  0 0.14706424E+04</rscale>
<asrwt>0</asrwt>
<pdfrwt beam="1">  1        1 0.12079442E+00 0.14706424E+04</pdfrwt>
<pdfrwt beam="2">  1       -1 0.10594504E+00 0.14706424E+04</pdfrwt>
<totfact> 0.18424672E+01</totfact>
</mgrwt>
</event>
<event>
12    1  0.4672461E-008  0.1300359E+04  0.7818608E-02  0.9029281E-01
         -2   -1    0    0    0  501 -0.00000000000E+00  0.00000000000E+00  0.10847400500E+03  0.10847400500E+03  0.00000000000E+00 0. -1.
          2   -1    0    0  501    0  0.00000000000E+00 -0.00000000000E+00 -0.38970929982E+04  0.38970929982E+04  0.00000000000E+00 0.  1.
         23    2    1    2    0    0  0.23011375713E+03 -0.15781254711E+03 -0.15373779254E+04  0.15651695905E+04  0.91475791220E+02 0.  0.
        254    2    1    2    0    0 -0.23011375713E+03  0.15781254711E+03 -0.22512410678E+04  0.24403974127E+04  0.89977555265E+03 0.  0.
         23    2    4    4    0    0 -0.12739292031E+03 -0.33845863274E+03 -0.13688084444E+04  0.14186942945E+04  0.90960109701E+02 0.  0.
         23    2    4    4    0    0 -0.10272083683E+03  0.49627117985E+03 -0.88243262344E+03  0.10217031182E+04  0.91396239399E+02 0.  0.
         11    1    3    3    0    0  0.75712963425E+02 -0.25107801690E+02 -0.64200621570E+03  0.64694268334E+03  0.00000000000E+00 0.  1.
        -11    1    3    3    0    0  0.15440079371E+03 -0.13270474542E+03 -0.89537170967E+03  0.91822690716E+03  0.00000000000E+00 0. -1.
          2    1    5    5  502    0 -0.30430963018E+02 -0.58463010036E+02 -0.14109572124E+03  0.15573043891E+03  0.00000000000E+00 0. -1.
          4    1    6    6  503    0 -0.31648871509E+01  0.86289727218E+02 -0.21988534552E+03  0.23623187488E+03  0.00000000000E+00 0. -1.
         -2    1    5    5    0  502 -0.96961957288E+02 -0.27999562270E+03 -0.12277127231E+04  0.12629638556E+04  0.00000000000E+00 0.  1.
         -4    1    6    6    0  503 -0.99555949677E+02  0.40998145263E+03 -0.66254727792E+03  0.78547124333E+03  0.00000000000E+00 0.  1.
<mgrwt>
<rscale>  0 0.13003589E+04</rscale>
<asrwt>0</asrwt>
<pdfrwt beam="1">  1        2 0.59955266E+00 0.13003589E+04</pdfrwt>
<pdfrwt beam="2">  1       -2 0.16688312E-01 0.13003589E+04</pdfrwt>
<totfact> 0.12226389E+01</totfact>
</mgrwt>
</event>
<event>
12    1  0.4672461E-008  0.2772285E+04  0.7818608E-02  0.8311925E-01
          2   -1    0    0  501    0  0.00000000000E+00  0.00000000000E+00  0.52362155145E+03  0.52362155145E+03  0.00000000000E+00 0. -1.
         -2   -1    0    0    0  501 -0.00000000000E+00 -0.00000000000E+00 -0.36694282495E+04  0.36694282495E+04  0.00000000000E+00 0.  1.
         23    2    1    2    0    0  0.55092198676E+03  0.10317249303E+04 -0.20026546003E+04  0.23207543733E+04  0.85463708528E+02 0.  0.
        254    2    1    2    0    0 -0.55092198676E+03 -0.10317249303E+04 -0.11431520977E+04  0.18722954277E+04  0.91143956606E+03 0.  0.
         23    2    4    4    0    0  0.21751204724E+03 -0.37474265225E+03 -0.51099449345E+03  0.67643217432E+03  0.93282195556E+02 0.  0.
         23    2    4    4    0    0 -0.76843403400E+03 -0.65698227810E+03 -0.63215760427E+03  0.11958632534E+04  0.91373441169E+02 0.  0.
         13    1    3    3    0    0  0.52369107332E+03  0.10075930264E+04 -0.19245188891E+04  0.22345623736E+04  0.00000000000E+00 0.  1.
        -13    1    3    3    0    0  0.27230913442E+02  0.24131903973E+02 -0.78135711297E+02  0.86191999722E+02  0.00000000000E+00 0. -1.
          2    1    5    5  502    0  0.19532356481E+03 -0.28782753682E+03 -0.44625011164E+03  0.56580486748E+03  0.00000000000E+00 0.  1.
          4    1    6    6  503    0 -0.29838545889E+03 -0.19769914286E+03 -0.22362054826E+03  0.42204855499E+03  0.00000000000E+00 0. -1.
         -2    1    5    5    0  502  0.22188482432E+02 -0.86915115433E+02 -0.64744381803E+02  0.11062730684E+03  0.00000000000E+00 0. -1.
         -4    1    6    6    0  503 -0.47004857511E+03 -0.45928313524E+03 -0.40853705601E+03  0.77381469837E+03  0.00000000000E+00 0.  1.
<mgrwt>
<rscale>  0 0.27722855E+04</rscale>
<asrwt>0</asrwt>
<pdfrwt beam="1">  1        2 0.80557158E-01 0.27722855E+04</pdfrwt>
<pdfrwt beam="2">  1       -2 0.56452745E+00 0.27722855E+04</pdfrwt>
<totfact> 0.36385018E-02</totfact>
</mgrwt>
</event>
<event>
12    1  0.4672461E-008  0.1595781E+04  0.7818608E-02  0.8823144E-01
          2   -1    0    0  501    0  0.00000000000E+00  0.00000000000E+00  0.18705876430E+04  0.18705876430E+04  0.00000000000E+00 0. -1.
         -2   -1    0    0    0  501 -0.00000000000E+00 -0.00000000000E+00 -0.34033630107E+03  0.34033630107E+03  0.00000000000E+00 0.  1.
         23    2    1    2    0    0 -0.18666683830E+03 -0.50614233872E+03  0.67963213356E+03  0.87238045668E+03  0.90129066718E+02 0.  0.
        254    2    1    2    0    0  0.18666683830E+03  0.50614233872E+03  0.85061920839E+03  0.13385434874E+04  0.88154469793E+03 0.  0.
         23    2    4    4    0    0 -0.29923547593E+03  0.26182306965E+03  0.61726574630E+03  0.73968324822E+03  0.89560684978E+02 0.  0.
         23    2    4    4    0    0  0.48590231423E+03  0.24431926907E+03  0.23335346209E+03  0.59886023919E+03  0.91579384140E+02 0.  0.
         11    1    3    3    0    0 -0.13508661651E+01 -0.24168242162E+02  0.66534594901E+02  0.70800996372E+02  0.00000000000E+00 0. -1.
        -11    1    3    3    0    0 -0.18531597214E+03 -0.48197409656E+03  0.61309753865E+03  0.80157946031E+03  0.00000000000E+00 0.  1.
          2    1    5    5  502    0 -0.19756451828E+03  0.15790091978E+03  0.46387392567E+03  0.52834028643E+03  0.00000000000E+00 0. -1.
          4    1    6    6  503    0  0.34455261086E+03  0.21333255390E+03  0.15174610849E+03  0.43272873911E+03  0.00000000000E+00 0. -1.
         -2    1    5    5    0  502 -0.10167095765E+03  0.10392214987E+03  0.15339182063E+03  0.21134296179E+03  0.00000000000E+00 0.  1.
         -4    1    6    6    0  503  0.14134970337E+03  0.30986715174E+02  0.81607353597E+02  0.16613150008E+03  0.00000000000E+00 0.  1.
<mgrwt>
<rscale>  0 0.15957805E+04</rscale>
<asrwt>0</asrwt>
<pdfrwt beam="1">  1        2 0.28778271E+00 0.15957805E+04</pdfrwt>
<pdfrwt beam="2">  1       -2 0.52359432E-01 0.15957805E+04</pdfrwt>
<totfact> 0.26036599E+01</totfact>
</mgrwt>
</event>
<event>
12    1  0.4672461E-008  0.1619511E+04  0.7818608E-02  0.8808651E-01
          1   -1    0    0  501    0  0.00000000000E+00  0.00000000000E+00  0.10300291925E+04  0.10300291925E+04  0.00000000000E+00 0. -1.
         -1   -1    0    0    0  501 -0.00000000000E+00 -0.00000000000E+00 -0.63658741559E+03  0.63658741559E+03  0.00000000000E+00 0.  1.
         23    2    1    2    0    0  0.78509751665E+01  0.27918165536E+03  0.63107388130E+03  0.69621684950E+03  0.91976210923E+02 0.  0.
        254    2    1    2    0    0 -0.78509751665E+01 -0.27918165536E+03 -0.23763210437E+03  0.97039975861E+03  0.89844456701E+03 0.  0.
         23    2    4    4    0    0 -0.25538968802E+03  0.19742017453E+03  0.72932946895E+02  0.34331174250E+03  0.91351626913E+02 0.  0.
         23    2    4    4    0    0  0.24753871286E+03 -0.47660182989E+03 -0.31056505127E+03  0.62708801611E+03  0.91454963034E+02 0.  0.
         13    1    3    3    0    0  0.29149717286E+02  0.95573955830E+02  0.31039199968E+03  0.32607864161E+03  0.00000000000E+00 0. -1.
        -13    1    3    3    0    0 -0.21298742119E+02  0.18360769953E+03  0.32068188162E+03  0.37013820789E+03  0.00000000000E+00 0.  1.
          4    1    5    5  502    0 -0.45181862645E+02  0.50484330551E+01  0.31639983826E+02  0.55389312732E+02  0.00000000000E+00 0. -1.
          1    1    6    6  503    0  0.45495992217E+02 -0.30747409566E+02 -0.38504335290E+02  0.67066178801E+02  0.00000000000E+00 0. -1.
         -4    1    5    5    0  502 -0.21020782538E+03  0.19237174147E+03  0.41292963070E+02  0.28792242977E+03  0.00000000000E+00 0.  1.
         -1    1    6    6    0  503  0.20204272064E+03 -0.44585442032E+03 -0.27206071598E+03  0.56002183731E+03  0.00000000000E+00 0.  1.
<mgrwt>
<rscale>  0 0.16195106E+04</rscale>
<asrwt>0</asrwt>
<pdfrwt beam="1">  1        1 0.15846603E+00 0.16195106E+04</pdfrwt>
<pdfrwt beam="2">  1       -1 0.97936525E-01 0.16195106E+04</pdfrwt>
<totfact> 0.13732788E+01</totfact>
</mgrwt>
</event>
<event>
12    1  0.5358168E-008  0.1760616E+04  0.7818608E-02  0.8727528E-01
         -1   -1    0    0    0  501 -0.00000000000E+00  0.00000000000E+00  0.58591837632E+03  0.58591837632E+03  0.00000000000E+00 0.  1.
          1   -1    0    0  501    0  0.00000000000E+00 -0.00000000000E+00 -0.13226117779E+04  0.13226117779E+04  0.00000000000E+00 0. -1.
         23    2    1    2    0    0  0.29848151792E+03  0.28894356669E+03  0.25785014861E+03  0.49719217933E+03  0.90187375930E+02 0.  0.
        254    2    1    2    0    0 -0.29848151792E+03 -0.28894356669E+03 -0.99454355020E+03  0.14113379749E+04  0.91114126506E+03 0.  0.
         23    2    4    4    0    0 -0.29262004777E+02 -0.58383465933E+03 -0.59546269842E+03  0.83944381644E+03  0.91492739515E+02 0.  0.
         23    2    4    4    0    0 -0.26921951314E+03  0.29489109264E+03 -0.39908085178E+03  0.57189415847E+03  0.91419360432E+02 0.  0.
         11    1    3    3    0    0  0.16364279744E+03  0.15138145264E+03  0.19018083932E+03  0.29302570024E+03  0.00000000000E+00 0.  1.
        -11    1    3    3    0    0  0.13483872048E+03  0.13756211405E+03  0.67669309282E+02  0.20416647909E+03  0.00000000000E+00 0. -1.
          1    1    5    5  502    0 -0.24108062984E+02 -0.58488483440E+03 -0.59403014948E+03  0.83399237808E+03  0.00000000000E+00 0. -1.
          3    1    6    6  503    0 -0.26582351435E+03  0.30087976877E+03 -0.38515185241E+03  0.55635665311E+03  0.00000000000E+00 0. -1.
         -1    1    5    5    0  502 -0.51539417938E+01  0.10501750675E+01 -0.14325489474E+01  0.54514383582E+01  0.00000000000E+00 0.  1.
         -3    1    6    6    0  503 -0.33959987886E+01 -0.59886761331E+01 -0.13928999362E+02  0.15537505361E+02  0.00000000000E+00 0.  1.
<mgrwt>
<rscale>  0 0.17606164E+04</rscale>
<asrwt>0</asrwt>
<pdfrwt beam="1">  1        1 0.20347873E+00 0.17606164E+04</pdfrwt>
<pdfrwt beam="2">  1       -1 0.90141290E-01 0.17606164E+04</pdfrwt>
<totfact> 0.99332597E+00</totfact>
</mgrwt>
</event>
<event>
12    1  0.4672461E-008  0.1969002E+04  0.7818608E-02  0.8621252E-01
          2   -1    0    0  501    0  0.00000000000E+00  0.00000000000E+00  0.78916623508E+03  0.78916623508E+03  0.00000000000E+00 0. -1.
         -2   -1    0    0    0  501 -0.00000000000E+00 -0.00000000000E+00 -0.12281852400E+04  0.12281852400E+04  0.00000000000E+00 0.  1.
         23    2    1    2    0    0 -0.17050446402E+03 -0.47398647053E+03 -0.79969242238E+03  0.94945525375E+03  0.90677240650E+02 0.  0.
        254    2    1    2    0    0  0.17050446402E+03  0.47398647053E+03  0.36067341744E+03  0.10678962213E+04  0.86981726760E+03 0.  0.
         23    2    4    4    0    0  0.28522446485E+03 -0.98502920552E+01  0.46220928624E+03  0.55104202714E+03  0.92519553567E+02 0.  0.
         23    2    4    4    0    0 -0.11472000083E+03  0.48383676258E+03 -0.10153586880E+03  0.51685419420E+03  0.97826550544E+02 0.  0.
         13    1    3    3    0    0 -0.17660192961E+03 -0.39620444158E+03 -0.68044189782E+03  0.80694942678E+03  0.00000000000E+00 0.  1.
        -13    1    3    3    0    0  0.60974655864E+01 -0.77782028948E+02 -0.11925052455E+03  0.14250582697E+03  0.00000000000E+00 0. -1.
          1    1    5    5  502    0  0.26846627345E+03  0.97687190834E+01  0.44572685656E+03  0.52042482503E+03  0.00000000000E+00 0. -1.
          3    1    6    6  503    0 -0.72740448604E+02  0.24264075564E+03 -0.99143652675E+02  0.27202053788E+03  0.00000000000E+00 0. -1.
         -1    1    5    5    0  502  0.16758191392E+02 -0.19619011139E+02  0.16482429681E+02  0.30617202109E+02  0.00000000000E+00 0.  1.
         -3    1    6    6    0  503 -0.41979552222E+02  0.24119600694E+03 -0.23922161221E+01  0.24483365632E+03  0.00000000000E+00 0.  1.
<mgrwt>
<rscale>  0 0.19690021E+04</rscale>
<asrwt>0</asrwt>
<pdfrwt beam="1">  1        2 0.12141019E+00 0.19690021E+04</pdfrwt>
<pdfrwt beam="2">  1       -2 0.18895158E+00 0.19690021E+04</pdfrwt>
<totfact> 0.51439047E+00</totfact>
</mgrwt>
</event>
<event>
12    1  0.4672461E-008  0.1720774E+04  0.7818608E-02  0.8749604E-01
          1   -1    0    0  501    0  0.00000000000E+00  0.00000000000E+00  0.92385207370E+03  0.92385207370E+03  0.00000000000E+00 0. -1.
         -1   -1    0    0    0  501 -0.00000000000E+00 -0.00000000000E+00 -0.80128192424E+03  0.80128192424E+03  0.00000000000E+00 0.  1.
         23    2    1    2    0    0  0.65283484485E+01  0.38432876708E+03 -0.42770635729E+03  0.58216382378E+03  0.90723586341E+02 0.  0.
        254    2    1    2    0    0 -0.65283484485E+01 -0.38432876708E+03  0.55027650674E+03  0.11429701742E+04  0.92510829885E+03 0.  0.
         23    2    4    4    0    0 -0.33491015418E+03  0.10071564380E+03  0.38404175504E+03  0.52748736838E+03  0.91904308408E+02 0.  0.
         23    2    4    4    0    0  0.32838180573E+03 -0.48504441088E+03  0.16623475170E+03  0.61548280578E+03  0.89902172843E+02 0.  0.
         13    1    3    3    0    0 -0.15861671573E+02  0.31707118688E+03 -0.38651047096E+03  0.50017604335E+03  0.00000000000E+00 0.  1.
        -13    1    3    3    0    0  0.22390020022E+02  0.67257580200E+02 -0.41195886330E+02  0.81987780440E+02  0.00000000000E+00 0. -1.
          2    1    5    5  502    0 -0.33754252823E+03  0.10719383971E+03  0.37245045890E+03  0.51395021351E+03  0.00000000000E+00 0.  1.
          3    1    6    6  503    0  0.56019489978E+02 -0.11127455831E+03  0.16454821577E+01  0.12459100367E+03  0.00000000000E+00 0. -1.
         -2    1    5    5    0  502  0.26323740510E+01 -0.64781959183E+01  0.11591296148E+02  0.13537154867E+02  0.00000000000E+00 0. -1.
         -3    1    6    6    0  503  0.27236231575E+03 -0.37376985257E+03  0.16458926954E+03  0.49089180211E+03  0.00000000000E+00 0.  1.
<mgrwt>
<rscale>  0 0.17207742E+04</rscale>
<asrwt>0</asrwt>
<pdfrwt beam="1">  1        1 0.14213109E+00 0.17207742E+04</pdfrwt>
<pdfrwt beam="2">  1       -1 0.12327414E+00 0.17207742E+04</pdfrwt>
<totfact> 0.95767779E+00</totfact>
</mgrwt>
</event>
<event>
12    1  0.4672461E-008  0.2112925E+04  0.7818608E-02  0.8555571E-01
          1   -1    0    0  501    0  0.00000000000E+00  0.00000000000E+00  0.25854142700E+04  0.25854142700E+04  0.00000000000E+00 0. -1.
         -1   -1    0    0    0  501 -0.00000000000E+00 -0.00000000000E+00 -0.43169583067E+03  0.43169583067E+03  0.00000000000E+00 0.  1.
         23    2    1    2    0    0 -0.35237885158E+03  0.12615228958E+03 -0.22389923457E+03  0.44669059951E+03  0.96521340853E+02 0.  0.
        254    2    1    2    0    0  0.35237885158E+03 -0.12615228958E+03  0.23776176739E+04  0.25704195011E+04  0.90216703192E+03 0.  0.
         23    2    4    4    0    0 -0.15440205576E+03 -0.60395052708E+02  0.65576320435E+02  0.20084585531E+03  0.92472950527E+02 0.  0.
         23    2    4    4    0    0  0.50678090734E+03 -0.65757236871E+02  0.23120413534E+04  0.23695736458E+04  0.90515969538E+02 0.  0.
         11    1    3    3    0    0 -0.24063197538E+03  0.12640648384E+03 -0.18308544862E+03  0.32772340202E+03  0.00000000000E+00 0. -1.
        -11    1    3    3    0    0 -0.11174687620E+03 -0.25419426295E+00 -0.40813785950E+02  0.11896719749E+03  0.00000000000E+00 0.  1.
          2    1    5    5  502    0 -0.58164483573E+02 -0.49349052633E+02  0.70476397007E+02  0.10385258148E+03  0.00000000000E+00 0. -1.
          1    1    6    6  503    0  0.43379356708E+03 -0.31470471247E+02  0.18409242032E+04  0.18916049195E+04  0.00000000000E+00 0. -1.
         -2    1    5    5    0  502 -0.96237572183E+02 -0.11046000076E+02 -0.49000765719E+01  0.96993273828E+02  0.00000000000E+00 0.  1.
         -1    1    6    6    0  503  0.72987340258E+02 -0.34286765624E+02  0.47111715022E+03  0.47796872635E+03  0.00000000000E+00 0.  1.
<mgrwt>
<rscale>  0 0.21129246E+04</rscale>
<asrwt>0</asrwt>
<pdfrwt beam="1">  1        1 0.39775603E+00 0.21129246E+04</pdfrwt>
<pdfrwt beam="2">  1       -1 0.66414745E-01 0.21129246E+04</pdfrwt>
<totfact> 0.24938223E+00</totfact>
</mgrwt>
</event>
<event>
12    1  0.4672461E-008  0.1678043E+04  0.7818608E-02  0.8773987E-01
         -1   -1    0    0    0  501 -0.00000000000E+00  0.00000000000E+00  0.30982008866E+03  0.30982008866E+03  0.00000000000E+00 0.  1.
          1   -1    0    0  501    0  0.00000000000E+00 -0.00000000000E+00 -0.22721491518E+04  0.22721491518E+04  0.00000000000E+00 0. -1.
         23    2    1    2    0    0  0.38379270414E+03  0.37088569817E+03 -0.10833825316E+04  0.12122742861E+04  0.10506281084E+03 0.  0.
        254    2    1    2    0    0 -0.38379270414E+03 -0.37088569817E+03 -0.87894653154E+03  0.13696949543E+04  0.90480065301E+03 0.  0.
         23    2    4    4    0    0 -0.37788368839E+03 -0.44197354902E+03 -0.11936106539E+03  0.60110957748E+03  0.94598944099E+02 0.  0.
         23    2    4    4    0    0 -0.59090157465E+01  0.71087850849E+02 -0.75958546614E+03  0.76858537682E+03  0.93085992911E+02 0.  0.
         11    1    3    3    0    0  0.25034382592E+03  0.29849115246E+03 -0.83019518985E+03  0.91705673354E+03  0.00000000000E+00 0. -1.
        -11    1    3    3    0    0  0.13344887822E+03  0.72394545709E+02 -0.25318734171E+03  0.29521755257E+03  0.00000000000E+00 0.  1.
          2    1    5    5  502    0 -0.30517202367E+03 -0.32065430041E+03 -0.56225809126E+02  0.44621798038E+03  0.00000000000E+00 0. -1.
          1    1    6    6  503    0 -0.28708437848E+02  0.81926594604E+02 -0.66679108608E+03  0.67241839191E+03  0.00000000000E+00 0. -1.
         -2    1    5    5    0  502 -0.72711664727E+02 -0.12131924861E+03 -0.63135256265E+02  0.15489159711E+03  0.00000000000E+00 0.  1.
         -1    1    6    6    0  503  0.22799422101E+02 -0.10838743754E+02 -0.92794380068E+02  0.96166984910E+02  0.00000000000E+00 0.  1.
<mgrwt>
<rscale>  0 0.16780434E+04</rscale>
<asrwt>0</asrwt>
<pdfrwt beam="1">  1        1 0.34956141E+00 0.16780434E+04</pdfrwt>
<pdfrwt beam="2">  1       -1 0.47664629E-01 0.16780434E+04</pdfrwt>
<totfact> 0.81564913E+00</totfact>
</mgrwt>
</event>
<event>
12    1  0.4672461E-008  0.2686127E+04  0.7818608E-02  0.8339520E-01
          1   -1    0    0  501    0  0.00000000000E+00  0.00000000000E+00  0.95736581823E+03  0.95736581823E+03  0.00000000000E+00 0. -1.
         -1   -1    0    0    0  501 -0.00000000000E+00 -0.00000000000E+00 -0.18841491716E+04  0.18841491716E+04  0.00000000000E+00 0.  1.
         23    2    1    2    0    0  0.43700955273E+03 -0.91724429813E+03 -0.10690366602E+04  0.14776120590E+04  0.90463056002E+02 0.  0.
        254    2    1    2    0    0 -0.43700955273E+03  0.91724429813E+03  0.14225330682E+03  0.13639029308E+04  0.89871060398E+03 0.  0.
         23    2    4    4    0    0 -0.65836387157E+03  0.65334985070E+03 -0.94503758197E+02  0.93670594878E+03  0.90432623368E+02 0.  0.
         23    2    4    4    0    0  0.22135431884E+03  0.26389444743E+03  0.23675706501E+03  0.42719698202E+03  0.88347833891E+02 0.  0.
         11    1    3    3    0    0  0.19689324642E+03 -0.50562420168E+03 -0.53807340540E+03  0.76416344679E+03  0.00000000000E+00 0.  1.
        -11    1    3    3    0    0  0.24011630630E+03 -0.41162009645E+03 -0.53096325476E+03  0.71344861221E+03  0.00000000000E+00 0. -1.
          1    1    5    5  502    0 -0.45396005873E+03  0.39763963308E+03 -0.82695131062E+02  0.60912683196E+03  0.00000000000E+00 0. -1.
          3    1    6    6  503    0  0.18709188292E+03  0.17100193585E+03  0.19475027073E+03  0.31964465061E+03  0.00000000000E+00 0. -1.
         -1    1    5    5    0  502 -0.20440381284E+03  0.25571021762E+03 -0.11808627135E+02  0.32757911682E+03  0.00000000000E+00 0.  1.
         -3    1    6    6    0  503  0.34262435925E+02  0.92892511583E+02  0.42006794288E+02  0.10755233140E+03  0.00000000000E+00 0.  1.
<mgrwt>
<rscale>  0 0.26861273E+04</rscale>
<asrwt>0</asrwt>
<pdfrwt beam="1">  1        1 0.14728705E+00 0.26861273E+04</pdfrwt>
<pdfrwt beam="2">  1       -1 0.28986910E+00 0.26861273E+04</pdfrwt>
<totfact> 0.54910189E-01</totfact>
</mgrwt>
</event>
<event>
12    1  0.4672461E-008  0.1828998E+04  0.7818608E-02  0.8691029E-01
          2   -1    0    0  501    0  0.00000000000E+00  0.00000000000E+00  0.33203332604E+04  0.33203332604E+04  0.00000000000E+00 0.  1.
         -2   -1    0    0    0  501 -0.00000000000E+00 -0.00000000000E+00 -0.25187495623E+03  0.25187495623E+03  0.00000000000E+00 0. -1.
         23    2    1    2    0    0  0.50302874567E+02  0.40662735967E+03  0.22695418866E+04  0.23070297351E+04  0.60742363284E+02 0.  0.
        254    2    1    2    0    0 -0.50302874567E+02 -0.40662735967E+03  0.79891641754E+03  0.12651784815E+04  0.89136578298E+03 0.  0.
         23    2    4    4    0    0 -0.14806519131E+02  0.27678829618E+03  0.21907009462E+03  0.36418816845E+03  0.88376024864E+02 0.  0.
         23    2    4    4    0    0 -0.35496355436E+02 -0.68341565585E+03  0.57984632291E+03  0.90099031307E+03  0.85116603198E+02 0.  0.
         13    1    3    3    0    0  0.98066145295E+01  0.29941124631E+03  0.16303230985E+04  0.16576177695E+04  0.00000000000E+00 0.  1.
        -13    1    3    3    0    0  0.40496260038E+02  0.10721611336E+03  0.63921878805E+03  0.64941196558E+03  0.00000000000E+00 0. -1.
          2    1    6    6  502    0 -0.12398458998E+02 -0.33049664994E+03  0.33557290530E+03  0.47115913679E+03  0.00000000000E+00 0. -1.
          2    1    5    5  503    0 -0.23770740080E+02  0.15853363731E+03  0.73299454143E+02  0.17626903364E+03  0.00000000000E+00 0. -1.
         -2    1    5    5    0  503  0.89642209495E+01  0.11825465887E+03  0.14577064048E+03  0.18791913481E+03  0.00000000000E+00 0.  1.
         -2    1    6    6    0  502 -0.23097896438E+02 -0.35291900591E+03  0.24427341762E+03  0.42983117628E+03  0.00000000000E+00 0.  1.
<mgrwt>
<rscale>  0 0.18289984E+04</rscale>
<asrwt>0</asrwt>
<pdfrwt beam="1">  1        2 0.51082047E+00 0.18289984E+04</pdfrwt>
<pdfrwt beam="2">  1       -2 0.38749996E-01 0.18289984E+04</pdfrwt>
<totfact> 0.64374534E+00</totfact>
</mgrwt>
</event>
<event>
12    1  0.4672461E-008  0.1907663E+04  0.7818608E-02  0.8651051E-01
         -1   -1    0    0    0  501 -0.00000000000E+00  0.00000000000E+00  0.63172440426E+03  0.63172440426E+03  0.00000000000E+00 0.  1.
          1   -1    0    0  501    0  0.00000000000E+00 -0.00000000000E+00 -0.14401764972E+04  0.14401764972E+04  0.00000000000E+00 0. -1.
         23    2    1    2    0    0 -0.68548994515E+03  0.27619599855E+03 -0.37578942019E+03  0.83395963376E+03  0.89946027628E+02 0.  0.
        254    2    1    2    0    0  0.68548994515E+03 -0.27619599855E+03 -0.43266267273E+03  0.12379412677E+04  0.89393562372E+03 0.  0.
         23    2    4    4    0    0  0.12331594202E+03 -0.39263990526E+03 -0.49845284846E+03  0.65292700228E+03  0.92116835633E+02 0.  0.
         23    2    4    4    0    0  0.56217400313E+03  0.11644390671E+03  0.65790175735E+02  0.58501426540E+03  0.91184155989E+02 0.  0.
         13    1    3    3    0    0 -0.48111499118E+03  0.18779682866E+03 -0.30736782714E+03  0.60101103547E+03  0.00000000000E+00 0.  1.
        -13    1    3    3    0    0 -0.20437495397E+03  0.88399169893E+02 -0.68421593050E+02  0.23294859829E+03  0.00000000000E+00 0. -1.
          2    1    5    5  502    0  0.12426004465E+03 -0.36015608018E+03 -0.41496488739E+03  0.56333721566E+03  0.00000000000E+00 0. -1.
          1    1    6    6  503    0  0.31596343145E+03  0.28413420470E+02  0.63490985861E+02  0.32352946969E+03  0.00000000000E+00 0. -1.
         -2    1    5    5    0  502 -0.94410262653E+00 -0.32483825081E+02 -0.83487961077E+02  0.89589786620E+02  0.00000000000E+00 0.  1.
         -1    1    6    6    0  503  0.24621057168E+03  0.88030486239E+02  0.22991898739E+01  0.26148479571E+03  0.00000000000E+00 0.  1.
<mgrwt>
<rscale>  0 0.19076631E+04</rscale>
<asrwt>0</asrwt>
<pdfrwt beam="1">  1        1 0.22156561E+00 0.19076631E+04</pdfrwt>
<pdfrwt beam="2">  1       -1 0.97188371E-01 0.19076631E+04</pdfrwt>
<totfact> 0.68473490E+00</totfact>
</mgrwt>
</event>
<event>
12    1  0.4672461E-008  0.1362961E+04  0.7818608E-02  0.8981075E-01
         -1   -1    0    0    0  501 -0.00000000000E+00  0.00000000000E+00  0.36042741201E+03  0.36042741201E+03  0.00000000000E+00 0.  1.
          1   -1    0    0  501    0  0.00000000000E+00 -0.00000000000E+00 -0.12885128377E+04  0.12885128377E+04  0.00000000000E+00 0. -1.
         23    2    1    2    0    0  0.11120639415E+03  0.21964494573E+03  0.76331360038E+02  0.27335381536E+03  0.91022346492E+02 0.  0.
        254    2    1    2    0    0 -0.11120639415E+03 -0.21964494573E+03 -0.10044167857E+04  0.13755864343E+04  0.90706901314E+03 0.  0.
         23    2    4    4    0    0  0.37315905214E+03 -0.50871276432E+02 -0.60790537125E+03  0.72086287854E+03  0.90877853794E+02 0.  0.
         23    2    4    4    0    0 -0.48436544629E+03 -0.16877366930E+03 -0.39651141446E+03  0.65472355578E+03  0.91362988615E+02 0.  0.
         11    1    3    3    0    0  0.98265934329E+02  0.16065010352E+03  0.93928264866E+02  0.21044516757E+03  0.00000000000E+00 0.  1.
        -11    1    3    3    0    0  0.12940459822E+02  0.58994842210E+02 -0.17596904827E+02  0.62908647794E+02  0.00000000000E+00 0. -1.
          2    1    5    5  502    0  0.23371581558E+02  0.15810618047E+02 -0.24485065558E+02  0.37359401802E+02  0.00000000000E+00 0. -1.
          4    1    6    6  503    0 -0.11722058592E+03 -0.39886404011E+01 -0.10923259827E+03  0.16027581084E+03  0.00000000000E+00 0. -1.
         -2    1    5    5    0  502  0.34978747058E+03 -0.66681894479E+02 -0.58342030569E+03  0.68350347674E+03  0.00000000000E+00 0.  1.
         -4    1    6    6    0  503 -0.36714486037E+03 -0.16478502890E+03 -0.28727881619E+03  0.49444774494E+03  0.00000000000E+00 0.  1.
<mgrwt>
<rscale>  0 0.13629605E+04</rscale>
<asrwt>0</asrwt>
<pdfrwt beam="1">  1        1 0.19823275E+00 0.13629605E+04</pdfrwt>
<pdfrwt beam="2">  1       -1 0.55450370E-01 0.13629605E+04</pdfrwt>
<totfact> 0.29641158E+01</totfact>
</mgrwt>
</event>
<event>
12    1  0.4672461E-008  0.1509531E+04  0.7818608E-02  0.8878140E-01
         -2   -1    0    0    0  501 -0.00000000000E+00  0.00000000000E+00  0.25694328275E+03  0.25694328275E+03  0.00000000000E+00 0.  1.
          2   -1    0    0  501    0  0.00000000000E+00 -0.00000000000E+00 -0.22171065659E+04  0.22171065659E+04  0.00000000000E+00 0. -1.
         23    2    1    2    0    0 -0.52839820408E+02  0.58533660816E+02 -0.14052552436E+04  0.14105014000E+04  0.92486018381E+02 0.  0.
        254    2    1    2    0    0  0.52839820408E+02 -0.58533660816E+02 -0.55490803954E+03  0.10635484487E+04  0.90387727831E+03 0.  0.
         23    2    4    4    0    0 -0.22940397996E+02 -0.24456416671E+03  0.16572814491E+03  0.30991478716E+03  0.90793522836E+02 0.  0.
         23    2    4    4    0    0  0.75780218403E+02  0.18603050589E+03 -0.72063618445E+03  0.75363366151E+03  0.91088938897E+02 0.  0.
         13    1    3    3    0    0 -0.64537107045E+02  0.76133825509E+02 -0.12085568416E+04  0.12126710341E+04  0.00000000000E+00 0. -1.
        -13    1    3    3    0    0  0.11697286638E+02 -0.17600164694E+02 -0.19669840207E+03  0.19783036594E+03  0.00000000000E+00 0.  1.
          4    1    5    5  502    0  0.34166421810E+02 -0.78859331288E+02  0.44269364352E+02  0.96674273365E+02  0.00000000000E+00 0. -1.
          1    1    6    6  503    0  0.99886639320E+01  0.64231310185E+02 -0.38694980135E+03  0.39237174131E+03  0.00000000000E+00 0. -1.
         -4    1    5    5    0  502 -0.57106819806E+02 -0.16570483542E+03  0.12145878056E+03  0.21324051380E+03  0.00000000000E+00 0.  1.
         -1    1    6    6    0  503  0.65791554471E+02  0.12179919571E+03 -0.33368638310E+03  0.36126192019E+03  0.00000000000E+00 0.  1.
<mgrwt>
<rscale>  0 0.15095306E+04</rscale>
<asrwt>0</asrwt>
<pdfrwt beam="1">  1        2 0.34109332E+00 0.15095306E+04</pdfrwt>
<pdfrwt beam="2">  1       -2 0.39529736E-01 0.15095306E+04</pdfrwt>
<totfact> 0.29548534E+01</totfact>
</mgrwt>
</event>
<event>
12    1  0.4672461E-008  0.2394817E+04  0.7818608E-02  0.8441447E-01
          2   -1    0    0  501    0  0.00000000000E+00  0.00000000000E+00  0.72334118091E+03  0.72334118091E+03  0.00000000000E+00 0. -1.
         -2   -1    0    0    0  501 -0.00000000000E+00 -0.00000000000E+00 -0.19821719701E+04  0.19821719701E+04  0.00000000000E+00 0.  1.
         23    2    1    2    0    0 -0.28844015591E+03 -0.70320101295E+03  0.23637461420E+03  0.80126382211E+03  0.91985684934E+02 0.  0.
        254    2    1    2    0    0  0.28844015591E+03  0.70320101295E+03 -0.14952054034E+04  0.19042493289E+04  0.90157468917E+03 0.  0.
         23    2    4    4    0    0 -0.80560582008E+02  0.70429450206E+03 -0.12819076586E+04  0.14678038451E+04  0.92952296849E+02 0.  0.
         23    2    4    4    0    0  0.36900073791E+03 -0.10934891146E+01 -0.21329774472E+03  0.43644548375E+03  0.93946751318E+02 0.  0.
         11    1    3    3    0    0 -0.31548418938E+02 -0.13265667344E+03  0.72578162876E+02  0.15446904373E+03  0.00000000000E+00 0.  1.
        -11    1    3    3    0    0 -0.25689173697E+03 -0.57054433951E+03  0.16379645132E+03  0.64679477838E+03  0.00000000000E+00 0. -1.
          2    1    6    6  502    0  0.46002499499E+01 -0.10331430082E+02 -0.22103681953E+02  0.24828884450E+02  0.00000000000E+00 0. -1.
          2    1    5    5  503    0  0.64843135346E+01  0.12060197657E+03 -0.28124670178E+03  0.30608265279E+03  0.00000000000E+00 0. -1.
         -2    1    5    5    0  503 -0.87044895542E+02  0.58369252549E+03 -0.10006609568E+04  0.11617211923E+04  0.00000000000E+00 0.  1.
         -2    1    6    6    0  502  0.36440048796E+03  0.92379409676E+01 -0.19119406277E+03  0.41161659930E+03  0.00000000000E+00 0.  1.
<mgrwt>
<rscale>  0 0.23948166E+04</rscale>
<asrwt>0</asrwt>
<pdfrwt beam="1">  1        2 0.11128326E+00 0.23948166E+04</pdfrwt>
<pdfrwt beam="2">  1       -2 0.30494953E+00 0.23948166E+04</pdfrwt>
<totfact> 0.10480686E+00</totfact>
</mgrwt>
</event>
<event>
12    1  0.4672461E-008  0.1928575E+04  0.7818608E-02  0.8640762E-01
         -2   -1    0    0    0  501 -0.00000000000E+00  0.00000000000E+00  0.25929182198E+04  0.25929182198E+04  0.00000000000E+00 0. -1.
          2   -1    0    0  501    0  0.00000000000E+00 -0.00000000000E+00 -0.35861153936E+03  0.35861153936E+03  0.00000000000E+00 0.  1.
         23    2    1    2    0    0  0.82942674397E+02 -0.44401145732E+03  0.17960513762E+04  0.18543752853E+04  0.94241663193E+02 0.  0.
        254    2    1    2    0    0 -0.82942674397E+02  0.44401145732E+03  0.43825530418E+03  0.10971544739E+04  0.89869603672E+03 0.  0.
         23    2    4    4    0    0 -0.72923361382E+02  0.30223678101E+02 -0.25655079757E+03  0.28335718714E+03  0.90783789387E+02 0.  0.
         23    2    4    4    0    0 -0.10019313015E+02  0.41378777922E+03  0.69480610175E+03  0.81379728673E+03  0.90497469546E+02 0.  0.
         11    1    3    3    0    0  0.92593653186E+02 -0.41177526032E+03  0.15660890960E+04  0.16219640891E+04  0.00000000000E+00 0. -1.
        -11    1    3    3    0    0 -0.96509787891E+01 -0.32236196993E+02  0.22996228023E+03  0.23241119619E+03  0.00000000000E+00 0.  1.
          1    1    5    5  502    0  0.56387931110E+01 -0.13667151291E+02 -0.40945595442E+01  0.15341200410E+02  0.00000000000E+00 0. -1.
          1    1    6    6  503    0  0.16668508198E+02  0.11037517719E+02  0.29935282771E+02  0.35997043177E+02  0.00000000000E+00 0. -1.
         -1    1    5    5    0  502 -0.78562154493E+02  0.43890829392E+02 -0.25245623802E+03  0.26801598673E+03  0.00000000000E+00 0.  1.
         -1    1    6    6    0  503 -0.26687821212E+02  0.40275026150E+03  0.66487081898E+03  0.77780024355E+03  0.00000000000E+00 0.  1.
<mgrwt>
<rscale>  0 0.19285750E+04</rscale>
<asrwt>0</asrwt>
<pdfrwt beam="1">  1        2 0.55171008E-01 0.19285750E+04</pdfrwt>
<pdfrwt beam="2">  1       -2 0.39891048E+00 0.19285750E+04</pdfrwt>
<totfact> 0.63622690E-01</totfact>
</mgrwt>
</event>
<event>
12    1  0.4672461E-008  0.1819973E+04  0.7818608E-02  0.8695750E-01
          2   -1    0    0  501    0  0.00000000000E+00  0.00000000000E+00  0.11023729656E+04  0.11023729656E+04  0.00000000000E+00 0. -1.
         -2   -1    0    0    0  501 -0.00000000000E+00 -0.00000000000E+00 -0.75117533170E+03  0.75117533170E+03  0.00000000000E+00 0.  1.
         23    2    1    2    0    0 -0.49219211728E+03 -0.46070557883E+03  0.22949458157E+03  0.71795944672E+03  0.91078501709E+02 0.  0.
        254    2    1    2    0    0  0.49219211728E+03  0.46070557883E+03  0.12170305229E+03  0.11355888505E+04  0.90567526953E+03 0.  0.
         23    2    4    4    0    0  0.17153509905E+03  0.32787526429E+03 -0.36746444053E+03  0.52962002632E+03  0.92416330162E+02 0.  0.
         23    2    4    4    0    0  0.32065701823E+03  0.13283031454E+03  0.48916749281E+03  0.60596882422E+03  0.86305064143E+02 0.  0.
         11    1    3    3    0    0 -0.18201607468E+03 -0.15445026564E+03  0.37438050931E+02  0.24163266265E+03  0.00000000000E+00 0.  1.
        -11    1    3    3    0    0 -0.31017604260E+03 -0.30625531319E+03  0.19205653064E+03  0.47632678407E+03  0.00000000000E+00 0. -1.
          3    1    6    6  502    0  0.66277677035E+02  0.58709594646E+02  0.85302265444E+02  0.12294723855E+03  0.00000000000E+00 0. -1.
          3    1    5    5  503    0 -0.10791501219E+02  0.12634361489E+02 -0.22771040904E+02  0.28188719245E+02  0.00000000000E+00 0. -1.
         -3    1    5    5    0  503  0.18232660027E+03  0.31524090280E+03 -0.34469339962E+03  0.50143130707E+03  0.00000000000E+00 0.  1.
         -3    1    6    6    0  502  0.25437934120E+03  0.74120719894E+02  0.40386522737E+03  0.48302158567E+03  0.00000000000E+00 0.  1.
<mgrwt>
<rscale>  0 0.18199729E+04</rscale>
<asrwt>0</asrwt>
<pdfrwt beam="1">  1        2 0.16959584E+00 0.18199729E+04</pdfrwt>
<pdfrwt beam="2">  1       -2 0.11556544E+00 0.18199729E+04</pdfrwt>
<totfact> 0.11925386E+01</totfact>
</mgrwt>
</event>
<event>
12    1  0.4672461E-008  0.3043947E+04  0.7818608E-02  0.8231292E-01
         -2   -1    0    0    0  501 -0.00000000000E+00  0.00000000000E+00  0.90665769131E+03  0.90665769131E+03  0.00000000000E+00 0.  1.
          2   -1    0    0  501    0  0.00000000000E+00 -0.00000000000E+00 -0.25548813550E+04  0.25548813550E+04  0.00000000000E+00 0. -1.
         23    2    1    2    0    0  0.13563144824E+04  0.13735377708E+03 -0.10361720198E+04  0.17148176263E+04  0.92152056349E+02 0.  0.
        254    2    1    2    0    0 -0.13563144824E+04 -0.13735377708E+03 -0.61205164383E+03  0.17467214200E+04  0.90441885704E+03 0.  0.
         23    2    4    4    0    0 -0.34025706512E+03  0.11986242962E+03  0.19538300780E+03  0.42044562960E+03  0.91968121188E+02 0.  0.
         23    2    4    4    0    0 -0.10160574173E+04 -0.25721620670E+03 -0.80743465163E+03  0.13262757904E+04  0.92324987018E+02 0.  0.
         13    1    3    3    0    0  0.12806361948E+04  0.15084699470E+03 -0.97838892308E+03  0.16186502908E+04  0.00000000000E+00 0. -1.
        -13    1    3    3    0    0  0.75678287625E+02 -0.13493217618E+02 -0.57783096765E+02  0.96167335470E+02  0.00000000000E+00 0.  1.
          2    1    5    5  502    0 -0.97340360595E+02  0.64049303505E+02  0.26871671532E+02  0.11958070836E+03  0.00000000000E+00 0.  1.
          1    1    6    6  503    0 -0.95755622026E+03 -0.26393567884E+03 -0.76052561928E+03  0.12509896783E+04  0.00000000000E+00 0. -1.
         -2    1    5    5    0  502 -0.24291670452E+03  0.55813126114E+02  0.16851133627E+03  0.30086492124E+03  0.00000000000E+00 0. -1.
         -1    1    6    6    0  503 -0.58501197061E+02  0.67194721416E+01 -0.46909032351E+02  0.75286112129E+02  0.00000000000E+00 0.  1.
<mgrwt>
<rscale>  0 0.30439467E+04</rscale>
<asrwt>0</asrwt>
<pdfrwt beam="1">  1        2 0.39305867E+00 0.30439467E+04</pdfrwt>
<pdfrwt beam="2">  1       -2 0.13948580E+00 0.30439467E+04</pdfrwt>
<totfact> 0.10000482E+00</totfact>
</mgrwt>
</event>
<event>
12    1  0.4672461E-008  0.1915764E+04  0.7818608E-02  0.8647049E-01
          1   -1    0    0  501    0  0.00000000000E+00  0.00000000000E+00  0.76156269235E+03  0.76156269235E+03  0.00000000000E+00 0. -1.
         -1   -1    0    0    0  501 -0.00000000000E+00 -0.00000000000E+00 -0.12048089241E+04  0.12048089241E+04  0.00000000000E+00 0.  1.
         23    2    1    2    0    0  0.25274439429E+03  0.69620398587E+03 -0.19935129415E+03  0.77149086748E+03  0.82930702022E+02 0.  0.
        254    2    1    2    0    0 -0.25274439429E+03 -0.69620398587E+03 -0.24389493765E+03  0.11948807490E+04  0.90535934576E+03 0.  0.
         23    2    4    4    0    0  0.29020871642E+03 -0.28776367146E+03  0.94063473802E+02  0.43048602010E+03  0.97166077903E+02 0.  0.
         23    2    4    4    0    0 -0.54295311071E+03 -0.40844031441E+03 -0.33795841145E+03  0.76439472891E+03  0.91988275613E+02 0.  0.
         13    1    3    3    0    0  0.14849233714E+03  0.38951375365E+03 -0.70003403655E+02  0.42269541634E+03  0.00000000000E+00 0. -1.
        -13    1    3    3    0    0  0.10425205715E+03  0.30669023222E+03 -0.12934789050E+03  0.34879545114E+03  0.00000000000E+00 0.  1.
          2    1    5    5  502    0  0.11960921719E+03 -0.67778907342E+02  0.27404062336E+01  0.13750583604E+03  0.00000000000E+00 0. -1.
          3    1    6    6  503    0 -0.90814223603E+02 -0.11529734166E+03 -0.73653719501E+02  0.16421196850E+03  0.00000000000E+00 0. -1.
         -2    1    5    5    0  502  0.17059949923E+03 -0.21998476412E+03  0.91323067568E+02  0.29298018406E+03  0.00000000000E+00 0.  1.
         -3    1    6    6    0  503 -0.45213888711E+03 -0.29314297276E+03 -0.26430469195E+03  0.60018276042E+03  0.00000000000E+00 0.  1.
<mgrwt>
<rscale>  0 0.19157636E+04</rscale>
<asrwt>0</asrwt>
<pdfrwt beam="1">  1        1 0.11716349E+00 0.19157636E+04</pdfrwt>
<pdfrwt beam="2">  1       -1 0.18535522E+00 0.19157636E+04</pdfrwt>
<totfact> 0.42571886E+00</totfact>
</mgrwt>
</event>
<event>
12    1  0.4672461E-008  0.1119744E+04  0.7818608E-02  0.9186159E-01
         -2   -1    0    0    0  501 -0.00000000000E+00  0.00000000000E+00  0.91431034045E+02  0.91431034045E+02  0.00000000000E+00 0.  1.
          2   -1    0    0  501    0  0.00000000000E+00 -0.00000000000E+00 -0.34283413293E+04  0.34283413293E+04  0.00000000000E+00 0. -1.
         23    2    1    2    0    0  0.96219165222E+02 -0.10789337382E+02 -0.14293517794E+03  0.19572764685E+03  0.92218810942E+02 0.  0.
        254    2    1    2    0    0 -0.96219165222E+02  0.10789337382E+02 -0.31939751174E+04  0.33240447165E+04  0.91565369528E+03 0.  0.
         23    2    4    4    0    0  0.51683975392E+02  0.10446057096E+03 -0.31060016784E+04  0.31095480023E+04  0.91973411317E+02 0.  0.
         23    2    4    4    0    0 -0.14790314061E+03 -0.93671233579E+02 -0.87973438957E+02  0.21449671420E+03  0.87291897898E+02 0.  0.
         13    1    3    3    0    0 -0.57670533559E+01 -0.19525444119E+02 -0.54855418230E+00  0.20366707739E+02  0.00000000000E+00 0. -1.
        -13    1    3    3    0    0  0.10198621858E+03  0.87361067362E+01 -0.14238662376E+03  0.17536093911E+03  0.00000000000E+00 0.  1.
          1    1    5    5  502    0  0.14263662837E+02  0.10574441308E+03 -0.25858029674E+04  0.25880035392E+04  0.00000000000E+00 0. -1.
          3    1    6    6  503    0 -0.14926432036E+03 -0.10606450545E+03 -0.83502123180E+02  0.20125138813E+03  0.00000000000E+00 0. -1.
         -1    1    5    5    0  502  0.37420312556E+02 -0.12838421164E+01 -0.52019871103E+03  0.52154446311E+03  0.00000000000E+00 0.  1.
         -3    1    6    6    0  503  0.13611797460E+01  0.12393271872E+02 -0.44713157762E+01  0.13245326072E+02  0.00000000000E+00 0.  1.
<mgrwt>
<rscale>  0 0.11197442E+04</rscale>
<asrwt>0</asrwt>
<pdfrwt beam="1">  1        2 0.52743714E+00 0.11197442E+04</pdfrwt>
<pdfrwt beam="2">  1       -2 0.14066313E-01 0.11197442E+04</pdfrwt>
<totfact> 0.36410511E+01</totfact>
</mgrwt>
</event>
