<event>
12    2  0.8147979E-008  0.1843722E+04  0.7818608E-02  0.8683388E-01
          2   -1    0    0  501    0  0.00000000000E+00  0.00000000000E+00  0.69846917436E+03  0.69846917436E+03  0.00000000000E+00 0. -1.
         -2   -1    0    0    0  501 -0.00000000000E+00 -0.00000000000E+00 -0.12167006788E+04  0.12167006788E+04  0.00000000000E+00 0.  1.
         23    2    1    2    0    0 -0.18978285930E+03 -0.67143814656E+03 -0.12455381661E+03  0.71314138141E+03  0.78805192135E+02 0.  0.
        254    2    1    2    0    0  0.18978285930E+03  0.67143814656E+03 -0.39367768784E+03  0.12020284718E+04  0.89612700365E+03 0.  0.
         23    2    4    4    0    0 -0.20780454275E+03 -0.12893634949E+02 -0.33415531877E+03  0.40349048566E+03  0.88293947374E+02 0.  0.
         23    2    4    4    0    0  0.39758740205E+03  0.68433178151E+03 -0.59522369064E+02  0.79853798609E+03  0.87944717619E+02 0.  0.
          2    1    3    3  502    0 -0.76818217507E+02 -0.16882266620E+03 -0.53997939965E+02  0.19317843742E+03  0.00000000000E+00 0. -1.
         -2    1    3    3    0  502 -0.11296464179E+03 -0.50261548036E+03 -0.70555876643E+02  0.51996294399E+03  0.00000000000E+00 0.  1.
         11    1    5    5    0    0 -0.42570306416E+02 -0.20764323234E+02 -0.14329388122E+03  0.15091893355E+03  0.00000000000E+00 0.  1.
        -11    1    5    5    0    0 -0.16523423634E+03  0.78706882850E+01 -0.19086143755E+03  0.25257155211E+03  0.00000000000E+00 0. -1.
          3    1    6    6  503    0  0.16521371975E+03  0.20818912330E+03 -0.35891574029E+02  0.26819114330E+03  0.00000000000E+00 0. -1.
         -3    1    6    6    0  503  0.23237368230E+03  0.47614265820E+03 -0.23630795035E+02  0.53034684279E+03  0.00000000000E+00 0.  1.
<mgrwt>
<rscale>  0 0.18437222E+04</rscale>
<asrwt>0</asrwt>
<pdfrwt beam="1">  1        2 0.10745680E+00 0.18437222E+04</pdfrwt>
<pdfrwt beam="2">  1       -2 0.18718472E+00 0.18437222E+04</pdfrwt>
<totfact> 0.62545023E+00</totfact>
</mgrwt>
</event>
<event>
12    2  0.8147979E-008  0.1138032E+04  0.7818608E-02  0.9168896E-01
         -2   -1    0    0    0  501 -0.00000000000E+00  0.00000000000E+00  0.13751498834E+03  0.13751498834E+03  0.00000000000E+00 0.  1.
          2   -1    0    0  501    0  0.00000000000E+00 -0.00000000000E+00 -0.23545008643E+04  0.23545008643E+04  0.00000000000E+00 0. -1.
         23    2    1    2    0    0 -0.12652216787E+03 -0.61236803426E+02 -0.73228479119E+03  0.75117691494E+03  0.90928197359E+02 0.  0.
        254    2    1    2    0    0  0.12652216787E+03  0.61236803426E+02 -0.14847010848E+04  0.17408389377E+04  0.89801174317E+03 0.  0.
         23    2    4    4    0    0  0.22397836967E+03 -0.30104144671E+03 -0.28342336395E+03  0.47902301518E+03  0.91334457472E+02 0.  0.
         23    2    4    4    0    0 -0.97456201806E+02  0.36227825014E+03 -0.12012777209E+04  0.12618159226E+04  0.91476871477E+02 0.  0.
          3    1    3    3  502    0 -0.30149001567E+02 -0.59295810630E+02 -0.21749158576E+03  0.22743690407E+03  0.00000000000E+00 0. -1.
         -3    1    3    3    0  502 -0.96373166298E+02 -0.19409927961E+01 -0.51479320542E+03  0.52374001087E+03  0.00000000000E+00 0.  1.
         11    1    5    5    0    0  0.79353231961E+02 -0.16403170410E+03 -0.17293414953E+03  0.25121615284E+03  0.00000000000E+00 0.  1.
        -11    1    5    5    0    0  0.14462513771E+03 -0.13700974261E+03 -0.11048921443E+03  0.22780686234E+03  0.00000000000E+00 0. -1.
          1    1    6    6  503    0 -0.11057146231E+03  0.31050508029E+03 -0.10828385553E+04  0.11318916865E+04  0.00000000000E+00 0. -1.
         -1    1    6    6    0  503  0.13115260504E+02  0.51773169848E+02 -0.11843916553E+03  0.12992423603E+03  0.00000000000E+00 0.  1.
<mgrwt>
<rscale>  0 0.11380319E+04</rscale>
<asrwt>0</asrwt>
<pdfrwt beam="1">  1        2 0.36223088E+00 0.11380319E+04</pdfrwt>
<pdfrwt beam="2">  1       -2 0.21156153E-01 0.11380319E+04</pdfrwt>
<totfact> 0.81394800E+01</totfact>
</mgrwt>
</event>
<event>
12    2  0.8147979E-008  0.2890311E+04  0.7818608E-02  0.8275766E-01
          1   -1    0    0  501    0  0.00000000000E+00  0.00000000000E+00  0.34450652536E+04  0.34450652536E+04  0.00000000000E+00 0. -1.
         -1   -1    0    0    0  501 -0.00000000000E+00 -0.00000000000E+00 -0.60622213857E+03  0.60622213857E+03  0.00000000000E+00 0.  1.
         23    2    1    2    0    0 -0.10125719137E+04 -0.30679898001E+03  0.21661284714E+03  0.10835332109E+04  0.87724563482E+02 0.  0.
        254    2    1    2    0    0  0.10125719137E+04  0.30679898001E+03  0.26222302679E+04  0.29677541812E+04  0.90113584315E+03 0.  0.
         23    2    4    4    0    0  0.72511988426E+02 -0.21878340221E+03  0.21197534763E+03  0.32626634392E+03  0.91607934290E+02 0.  0.
         23    2    4    4    0    0  0.94005992531E+03  0.52558238222E+03  0.24102549203E+04  0.26414878373E+04  0.90441751272E+02 0.  0.
          4    1    3    3  502    0 -0.88626576346E+03 -0.23748179320E+03  0.18353560863E+03  0.93570824792E+03  0.00000000000E+00 0. -1.
         -4    1    3    3    0  502 -0.12630615027E+03 -0.69317186814E+02  0.33077238511E+02  0.14782496302E+03  0.00000000000E+00 0.  1.
         11    1    5    5    0    0  0.53967500388E+02 -0.47878140500E+02  0.90659944931E+02  0.11586212949E+03  0.00000000000E+00 0. -1.
        -11    1    5    5    0    0  0.18544488038E+02 -0.17090526171E+03  0.12131540270E+03  0.21040421443E+03  0.00000000000E+00 0.  1.
          3    1    6    6  503    0  0.18063097136E+03  0.14143165568E+03  0.53872974473E+03  0.58554265336E+03  0.00000000000E+00 0. -1.
         -3    1    6    6    0  503  0.75942895395E+03  0.38415072654E+03  0.18715251755E+04  0.20559451840E+04  0.00000000000E+00 0.  1.
<mgrwt>
<rscale>  0 0.28903113E+04</rscale>
<asrwt>0</asrwt>
<pdfrwt beam="1">  1        1 0.53001003E+00 0.28903113E+04</pdfrwt>
<pdfrwt beam="2">  1       -1 0.93264946E-01 0.28903113E+04</pdfrwt>
<totfact> 0.26441856E-01</totfact>
</mgrwt>
</event>
<event>
12    2  0.8147979E-008  0.1393791E+04  0.7818608E-02  0.8958325E-01
         -2   -1    0    0    0  501 -0.00000000000E+00  0.00000000000E+00  0.14345883351E+03  0.14345883351E+03  0.00000000000E+00 0. -1.
          2   -1    0    0  501    0  0.00000000000E+00 -0.00000000000E+00 -0.33853862979E+04  0.33853862979E+04  0.00000000000E+00 0.  1.
         23    2    1    2    0    0  0.17017362964E+03  0.35107676206E+03 -0.11315961597E+04  0.12021698919E+04  0.11175250910E+03 0.  0.
        254    2    1    2    0    0 -0.17017362964E+03 -0.35107676206E+03 -0.21103313047E+04  0.23266752395E+04  0.89872437236E+03 0.  0.
         23    2    4    4    0    0  0.20705730340E+03  0.12618529840E+03 -0.22529040054E+03  0.34377225515E+03  0.92887794739E+02 0.  0.
         23    2    4    4    0    0 -0.37723093304E+03 -0.47726206046E+03 -0.18850409042E+04  0.19829029844E+04  0.91884622489E+02 0.  0.
          2    1    3    3  502    0  0.74908798249E+02  0.11895156846E+03 -0.26495108890E+03  0.29993313123E+03  0.00000000000E+00 0. -1.
         -2    1    3    3    0  502  0.95264831393E+02  0.23212519360E+03 -0.86664507079E+03  0.90223676068E+03  0.00000000000E+00 0.  1.
         11    1    5    5    0    0  0.33193646008E+02  0.33405434789E+02 -0.99215035465E+02  0.10982424355E+03  0.00000000000E+00 0.  1.
        -11    1    5    5    0    0  0.17386365739E+03  0.92779863608E+02 -0.12607536508E+03  0.23394801160E+03  0.00000000000E+00 0. -1.
          4    1    6    6  503    0 -0.37977716719E+03 -0.45437151340E+03 -0.18109200888E+04  0.19052862612E+04  0.00000000000E+00 0. -1.
         -4    1    6    6    0  503  0.25462341481E+01 -0.22890547058E+02 -0.74120815338E+02  0.77616723193E+02  0.00000000000E+00 0.  1.
<mgrwt>
<rscale>  0 0.13937913E+04</rscale>
<asrwt>0</asrwt>
<pdfrwt beam="1">  1        2 0.52082867E+00 0.13937913E+04</pdfrwt>
<pdfrwt beam="2">  1       -2 0.22070589E-01 0.13937913E+04</pdfrwt>
<totfact> 0.17317075E+01</totfact>
</mgrwt>
</event>
<event>
12    2  0.8147979E-008  0.1487251E+04  0.7818608E-02  0.8892975E-01
          1   -1    0    0  501    0  0.00000000000E+00  0.00000000000E+00  0.58041978312E+03  0.58041978312E+03  0.00000000000E+00 0. -1.
         -1   -1    0    0    0  501 -0.00000000000E+00 -0.00000000000E+00 -0.95272265296E+03  0.95272265296E+03  0.00000000000E+00 0.  1.
         23    2    1    2    0    0  0.30737556642E+03 -0.19244660580E+03 -0.43415315346E+03  0.57272686142E+03  0.89507889168E+02 0.  0.
        254    2    1    2    0    0 -0.30737556642E+03  0.19244660580E+03  0.61850283615E+02  0.96041557467E+03  0.88716243358E+03 0.  0.
         23    2    4    4    0    0 -0.53076849459E+03  0.12357225124E+03  0.28710383077E+03  0.62292852464E+03  0.92876482694E+02 0.  0.
         23    2    4    4    0    0  0.22339292818E+03  0.68874354562E+02 -0.22525354716E+03  0.33748705003E+03  0.92251131988E+02 0.  0.
          1    1    3    3  502    0  0.15060607890E+01 -0.14542382053E+01  0.44500399188E+01  0.49179145110E+01  0.00000000000E+00 0. -1.
         -1    1    3    3    0  502  0.30586950563E+03 -0.19099236760E+03 -0.43860319338E+03  0.56780894691E+03  0.00000000000E+00 0.  1.
         11    1    5    5    0    0 -0.41530316901E+02 -0.14782416570E+02  0.17352487312E+02  0.47375055435E+02  0.00000000000E+00 0.  1.
        -11    1    5    5    0    0 -0.48923817769E+03  0.13835466781E+03  0.26975134346E+03  0.57555346920E+03  0.00000000000E+00 0. -1.
          1    1    6    6  503    0  0.23094867911E+03  0.63216668286E+02 -0.22414016619E+03  0.32798239836E+03  0.00000000000E+00 0. -1.
         -1    1    6    6    0  503 -0.75557509347E+01  0.56576862766E+01 -0.11133809684E+01  0.95046516702E+01  0.00000000000E+00 0.  1.
<mgrwt>
<rscale>  0 0.14872513E+04</rscale>
<asrwt>0</asrwt>
<pdfrwt beam="1">  1        1 0.89295352E-01 0.14872513E+04</pdfrwt>
<pdfrwt beam="2">  1       -1 0.14657272E+00 0.14872513E+04</pdfrwt>
<totfact> 0.12916792E+01</totfact>
</mgrwt>
</event>
<event>
12    2  0.8147979E-008  0.1682378E+04  0.7818608E-02  0.8771479E-01
          1   -1    0    0  501    0  0.00000000000E+00  0.00000000000E+00  0.11383565775E+04  0.11383565775E+04  0.00000000000E+00 0. -1.
         -1   -1    0    0    0  501 -0.00000000000E+00 -0.00000000000E+00 -0.62159725662E+03  0.62159725662E+03  0.00000000000E+00 0.  1.
         23    2    1    2    0    0 -0.48835099271E+03  0.17058644246E+03  0.49529741936E+03  0.72198697219E+03  0.91428813619E+02 0.  0.
        254    2    1    2    0    0  0.48835099271E+03 -0.17058644246E+03  0.21461901569E+02  0.10379668620E+04  0.89962668197E+03 0.  0.
         23    2    4    4    0    0 -0.22808231551E+03 -0.26061140544E+02  0.15060022589E+03  0.28984864986E+03  0.92903638752E+02 0.  0.
         23    2    4    4    0    0  0.71643330822E+03 -0.14452530192E+03 -0.12913832432E+03  0.74811821211E+03  0.94020766155E+02 0.  0.
          1    1    3    3  502    0 -0.38945921370E+03  0.16768374198E+03  0.37344878602E+03  0.56503124891E+03  0.00000000000E+00 0. -1.
         -1    1    3    3    0  502 -0.98891779008E+02  0.29027004791E+01  0.12184863333E+03  0.15695572328E+03  0.00000000000E+00 0.  1.
         11    1    5    5    0    0 -0.65179098303E+02 -0.50567579603E+02  0.58309457336E+02  0.10102171933E+03  0.00000000000E+00 0. -1.
        -11    1    5    5    0    0 -0.16290321721E+03  0.24506439059E+02  0.92290768553E+02  0.18882693053E+03  0.00000000000E+00 0.  1.
          2    1    6    6  503    0  0.32492233692E+03 -0.27383473546E+02 -0.28954707090E+02  0.32735722799E+03  0.00000000000E+00 0. -1.
         -2    1    6    6    0  503  0.39151097130E+03 -0.11714182837E+03 -0.10018361723E+03  0.42076098413E+03  0.00000000000E+00 0.  1.
<mgrwt>
<rscale>  0 0.16823785E+04</rscale>
<asrwt>0</asrwt>
<pdfrwt beam="1">  1        1 0.17513178E+00 0.16823785E+04</pdfrwt>
<pdfrwt beam="2">  1       -1 0.95630347E-01 0.16823785E+04</pdfrwt>
<totfact> 0.11932029E+01</totfact>
</mgrwt>
</event>
<event>
12    2  0.8147979E-008  0.2026527E+04  0.7818608E-02  0.8594318E-01
         -1   -1    0    0    0  501 -0.00000000000E+00  0.00000000000E+00  0.25045645495E+04  0.25045645495E+04  0.00000000000E+00 0.  1.
          1   -1    0    0  501    0  0.00000000000E+00 -0.00000000000E+00 -0.40993258092E+03  0.40993258092E+03  0.00000000000E+00 0. -1.
         23    2    1    2    0    0  0.18524010252E+03  0.45385655676E+03  0.17703781874E+04  0.18392474326E+04  0.91063287094E+02 0.  0.
        254    2    1    2    0    0 -0.18524010252E+03 -0.45385655676E+03  0.32425378119E+03  0.10752496978E+04  0.90040087093E+03 0.  0.
         23    2    4    4    0    0 -0.42149121977E+03 -0.24450352776E+03  0.50026586230E+03  0.70429550960E+03  0.91265592783E+02 0.  0.
         23    2    4    4    0    0  0.23625111726E+03 -0.20935302900E+03 -0.17601208111E+03  0.37095418822E+03  0.83567193978E+02 0.  0.
          4    1    3    3  502    0  0.39736372127E+02  0.17761997806E+03  0.77325827559E+03  0.79439045604E+03  0.00000000000E+00 0.  1.
         -4    1    3    3    0  502  0.14550373039E+03  0.27623657870E+03  0.99711991183E+03  0.10448569766E+04  0.00000000000E+00 0. -1.
         11    1    5    5    0    0 -0.24951599882E+03 -0.12938217639E+03  0.22568896256E+03  0.36046288166E+03  0.00000000000E+00 0.  1.
        -11    1    5    5    0    0 -0.17197522095E+03 -0.11512135138E+03  0.27457689974E+03  0.34383262794E+03  0.00000000000E+00 0. -1.
          1    1    6    6  503    0  0.24056710721E+02 -0.10239064065E+02 -0.44538489943E+02  0.51645337157E+02  0.00000000000E+00 0. -1.
         -1    1    6    6    0  503  0.21219440654E+03 -0.19911396493E+03 -0.13147359117E+03  0.31930885107E+03  0.00000000000E+00 0.  1.
<mgrwt>
<rscale>  0 0.20265267E+04</rscale>
<asrwt>0</asrwt>
<pdfrwt beam="1">  1        1 0.63066553E-01 0.20265267E+04</pdfrwt>
<pdfrwt beam="2">  1       -1 0.38531761E+00 0.20265267E+04</pdfrwt>
<totfact> 0.48478229E-01</totfact>
</mgrwt>
</event>
<event>
12    2  0.8147979E-008  0.2289595E+04  0.7818608E-02  0.8482035E-01
          1   -1    0    0  501    0  0.00000000000E+00  0.00000000000E+00  0.96474463895E+03  0.96474463895E+03  0.00000000000E+00 0. -1.
         -1   -1    0    0    0  501 -0.00000000000E+00 -0.00000000000E+00 -0.13584537591E+04  0.13584537591E+04  0.00000000000E+00 0.  1.
         23    2    1    2    0    0 -0.80230496673E+03  0.53772651067E+03 -0.14259741257E+03  0.98034791628E+03  0.88909813658E+02 0.  0.
        254    2    1    2    0    0  0.80230496673E+03 -0.53772651067E+03 -0.25111170757E+03  0.13428504818E+04  0.89852505074E+03 0.  0.
         23    2    4    4    0    0 -0.47109486734E+02 -0.21292538249E+03 -0.35177365854E+03  0.42343992032E+03  0.89443485136E+02 0.  0.
         23    2    4    4    0    0  0.84941445346E+03 -0.32480112818E+03  0.10066195096E+03  0.91941056145E+03  0.90455876114E+02 0.  0.
          3    1    3    3  502    0 -0.38800855821E+03  0.20727622312E+03 -0.58532845556E+02  0.44377941359E+03  0.00000000000E+00 0. -1.
         -3    1    3    3    0  502 -0.41429640852E+03  0.33045028755E+03 -0.84064567015E+02  0.53656850269E+03  0.00000000000E+00 0.  1.
         11    1    5    5    0    0 -0.25533724138E+02 -0.12837438809E+02 -0.82234615614E+02  0.87059191983E+02  0.00000000000E+00 0.  1.
        -11    1    5    5    0    0 -0.21575762596E+02 -0.20008794369E+03 -0.26953904292E+03  0.33638072834E+03  0.00000000000E+00 0. -1.
          4    1    6    6  503    0  0.46560638526E+03 -0.17741546461E+03  0.10039632100E+03  0.50827647432E+03  0.00000000000E+00 0. -1.
         -4    1    6    6    0  503  0.38380806820E+03 -0.14738566357E+03  0.26562996137E+00  0.41113408713E+03  0.00000000000E+00 0.  1.
<mgrwt>
<rscale>  0 0.22895947E+04</rscale>
<asrwt>0</asrwt>
<pdfrwt beam="1">  1        1 0.14842225E+00 0.22895947E+04</pdfrwt>
<pdfrwt beam="2">  1       -1 0.20899289E+00 0.22895947E+04</pdfrwt>
<totfact> 0.19059496E+00</totfact>
</mgrwt>
</event>
<event>
12    2  0.8147979E-008  0.2177192E+04  0.7818608E-02  0.8527981E-01
          1   -1    0    0  501    0  0.00000000000E+00  0.00000000000E+00  0.15630538346E+04  0.15630538346E+04  0.00000000000E+00 0. -1.
         -1   -1    0    0    0  501 -0.00000000000E+00 -0.00000000000E+00 -0.75815797623E+03  0.75815797623E+03  0.00000000000E+00 0.  1.
         23    2    1    2    0    0  0.14917037732E+03  0.88232042068E+03  0.39237832220E+03  0.98134792710E+03  0.91333893329E+02 0.  0.
        254    2    1    2    0    0 -0.14917037732E+03 -0.88232042068E+03  0.41251753621E+03  0.13398638838E+04  0.90792256451E+03 0.  0.
         23    2    4    4    0    0 -0.15366739990E+03 -0.58625494846E+03 -0.20901418657E+03  0.64679311562E+03  0.85708050060E+02 0.  0.
         23    2    4    4    0    0  0.44970225791E+01 -0.29606547223E+03  0.62153172278E+03  0.69307076816E+03  0.79814912116E+02 0.  0.
          3    1    3    3  502    0  0.55915184432E+02  0.26422408682E+03  0.74980260657E+02  0.28029076937E+03  0.00000000000E+00 0. -1.
         -3    1    3    3    0  502  0.93255192884E+02  0.61809633386E+03  0.31739806154E+03  0.70105715773E+03  0.00000000000E+00 0.  1.
         11    1    5    5    0    0 -0.14902686435E+02 -0.18600890957E+03 -0.40893502439E+02  0.19103319880E+03  0.00000000000E+00 0.  1.
        -11    1    5    5    0    0 -0.13876471346E+03 -0.40024603889E+03 -0.16812068413E+03  0.45575991682E+03  0.00000000000E+00 0. -1.
          1    1    6    6  503    0  0.14160319638E+02 -0.25441022763E+03  0.45872005556E+03  0.52473723705E+03  0.00000000000E+00 0. -1.
         -1    1    6    6    0  503 -0.96632970593E+01 -0.41655244603E+02  0.16281166722E+03  0.16833353111E+03  0.00000000000E+00 0.  1.
<mgrwt>
<rscale>  0 0.21771924E+04</rscale>
<asrwt>0</asrwt>
<pdfrwt beam="1">  1        1 0.24046982E+00 0.21771924E+04</pdfrwt>
<pdfrwt beam="2">  1       -1 0.11663969E+00 0.21771924E+04</pdfrwt>
<totfact> 0.35855698E+00</totfact>
</mgrwt>
</event>
<event>
12    2  0.8147979E-008  0.1568799E+04  0.7818608E-02  0.8839948E-01
         -1   -1    0    0    0  501 -0.00000000000E+00  0.00000000000E+00  0.42141304120E+03  0.42141304120E+03  0.00000000000E+00 0.  1.
          1   -1    0    0  501    0  0.00000000000E+00 -0.00000000000E+00 -0.14600472015E+04  0.14600472015E+04  0.00000000000E+00 0. -1.
         23    2    1    2    0    0 -0.32056459114E+03  0.11089405829E+03 -0.82265027495E+03  0.89425508979E+03  0.88766781368E+02 0.  0.
        254    2    1    2    0    0  0.32056459114E+03 -0.11089405829E+03 -0.21598388531E+03  0.98720515288E+03  0.90159071972E+03 0.  0.
         23    2    4    4    0    0 -0.18229898827E+03 -0.31613060632E+03  0.43433217180E+02  0.37831624584E+03  0.89806771112E+02 0.  0.
         23    2    4    4    0    0  0.50286357941E+03  0.20523654803E+03 -0.25941710249E+03  0.60888890703E+03  0.91949159307E+02 0.  0.
          1    1    3    3  502    0 -0.24469210494E+03  0.48436547448E+02 -0.63908584387E+03  0.68604011631E+03  0.00000000000E+00 0. -1.
         -1    1    3    3    0  502 -0.75872486194E+02  0.62457510839E+02 -0.18356443109E+03  0.20821497348E+03  0.00000000000E+00 0.  1.
         11    1    5    5    0    0 -0.11705762331E+03 -0.13202025574E+03  0.48278834895E+02  0.18292807603E+03  0.00000000000E+00 0.  1.
        -11    1    5    5    0    0 -0.65241364962E+02 -0.18411035058E+03 -0.48456177148E+01  0.19538816982E+03  0.00000000000E+00 0. -1.
          1    1    6    6  503    0  0.51155984001E+02  0.34941936224E+02 -0.24150334205E+01  0.61997628927E+02  0.00000000000E+00 0. -1.
         -1    1    6    6    0  503  0.45170759541E+03  0.17029461181E+03 -0.25700206907E+03  0.54689127811E+03  0.00000000000E+00 0.  1.
<mgrwt>
<rscale>  0 0.15687995E+04</rscale>
<asrwt>0</asrwt>
<pdfrwt beam="1">  1        1 0.22462265E+00 0.15687995E+04</pdfrwt>
<pdfrwt beam="2">  1       -1 0.64832775E-01 0.15687995E+04</pdfrwt>
<totfact> 0.16182205E+01</totfact>
</mgrwt>
</event>
<event>
12    2  0.8147979E-008  0.1684839E+04  0.7818608E-02  0.8770059E-01
          2   -1    0    0  501    0  0.00000000000E+00  0.00000000000E+00  0.49619080415E+03  0.49619080415E+03  0.00000000000E+00 0. -1.
         -2   -1    0    0    0  501 -0.00000000000E+00 -0.00000000000E+00 -0.14302376403E+04  0.14302376403E+04  0.00000000000E+00 0.  1.
         23    2    1    2    0    0  0.30625694772E+03 -0.48711360490E+03 -0.51332777645E+03  0.77702017141E+03  0.95822537005E+02 0.  0.
        254    2    1    2    0    0 -0.30625694772E+03  0.48711360490E+03 -0.42071905972E+03  0.11494082731E+04  0.90169943377E+03 0.  0.
         23    2    4    4    0    0  0.23694850046E+03 -0.19698964722E+01  0.71347593500E+02  0.26342835401E+03  0.90308062962E+02 0.  0.
         23    2    4    4    0    0 -0.54320544818E+03  0.48908350137E+03 -0.49206665322E+03  0.88597991905E+03  0.92498624392E+02 0.  0.
          4    1    3    3  502    0  0.18397572163E+03 -0.30566773641E+03 -0.25524503400E+03  0.43866827856E+03  0.00000000000E+00 0. -1.
         -4    1    3    3    0  502  0.12228122609E+03 -0.18144586849E+03 -0.25808274245E+03  0.33835189286E+03  0.00000000000E+00 0.  1.
         11    1    5    5    0    0  0.37087157629E+02  0.12462104025E+02  0.47643391461E+02  0.61649444828E+02  0.00000000000E+00 0. -1.
        -11    1    5    5    0    0  0.19986134283E+03 -0.14432000497E+02  0.23704202039E+02  0.20177890918E+03  0.00000000000E+00 0.  1.
          3    1    6    6  503    0 -0.39039862708E+03  0.29299105235E+03 -0.33119941080E+03  0.58987108295E+03  0.00000000000E+00 0.  1.
         -3    1    6    6    0  503 -0.15280682109E+03  0.19609244902E+03 -0.16086724241E+03  0.29610883610E+03  0.00000000000E+00 0. -1.
<mgrwt>
<rscale>  0 0.16848392E+04</rscale>
<asrwt>0</asrwt>
<pdfrwt beam="1">  1        2 0.76337048E-01 0.16848392E+04</pdfrwt>
<pdfrwt beam="2">  1       -2 0.22003656E+00 0.16848392E+04</pdfrwt>
<totfact> 0.58428683E+00</totfact>
</mgrwt>
</event>
<event>
12    2  0.8147979E-008  0.1367747E+04  0.7818608E-02  0.8977502E-01
          1   -1    0    0  501    0  0.00000000000E+00  0.00000000000E+00  0.85969543425E+03  0.85969543425E+03  0.00000000000E+00 0. -1.
         -1   -1    0    0    0  501 -0.00000000000E+00 -0.00000000000E+00 -0.54400966210E+03  0.54400966210E+03  0.00000000000E+00 0.  1.
         23    2    1    2    0    0  0.15343913866E+03 -0.26429468051E+03  0.32758324190E+03  0.45756735831E+03  0.93069111912E+02 0.  0.
        254    2    1    2    0    0 -0.15343913866E+03  0.26429468051E+03 -0.11897469752E+02  0.94613773804E+03  0.89534341017E+03 0.  0.
         23    2    4    4    0    0  0.22249086992E+03 -0.44012814936E+02 -0.28939812478E+03  0.37890478686E+03  0.91532769000E+02 0.  0.
         23    2    4    4    0    0 -0.37593000858E+03  0.30830749545E+03  0.27750065503E+03  0.56723295118E+03  0.91486197142E+02 0.  0.
          3    1    3    3  502    0  0.24219887755E+02 -0.52128979965E+02  0.12293343361E+03  0.13570800497E+03  0.00000000000E+00 0. -1.
         -3    1    3    3    0  502  0.12921925091E+03 -0.21216570055E+03  0.20464980830E+03  0.32185935333E+03  0.00000000000E+00 0.  1.
         11    1    5    5    0    0  0.14325367549E+03 -0.19204504452E+01 -0.11865372429E+03  0.18602153090E+03  0.00000000000E+00 0. -1.
        -11    1    5    5    0    0  0.79237194433E+02 -0.42092364491E+02 -0.17074440049E+03  0.19288325596E+03  0.00000000000E+00 0.  1.
          3    1    6    6  503    0 -0.26309001023E+03  0.16060271308E+03  0.15941348651E+03  0.34701908393E+03  0.00000000000E+00 0. -1.
         -3    1    6    6    0  503 -0.11283999835E+03  0.14770478236E+03  0.11808716852E+03  0.22021386725E+03  0.00000000000E+00 0.  1.
<mgrwt>
<rscale>  0 0.13677465E+04</rscale>
<asrwt>0</asrwt>
<pdfrwt beam="1">  1        1 0.13226084E+00 0.13677465E+04</pdfrwt>
<pdfrwt beam="2">  1       -1 0.83693794E-01 0.13677465E+04</pdfrwt>
<totfact> 0.27210918E+01</totfact>
</mgrwt>
</event>
<event>
12    2  0.8147979E-008  0.1632268E+04  0.7818608E-02  0.8800966E-01
         -2   -1    0    0    0  501 -0.00000000000E+00  0.00000000000E+00  0.52370305442E+03  0.52370305442E+03  0.00000000000E+00 0.  1.
          2   -1    0    0  501    0  0.00000000000E+00 -0.00000000000E+00 -0.12718554011E+04  0.12718554011E+04  0.00000000000E+00 0. -1.
         23    2    1    2    0    0 -0.46974244176E+03  0.17519617208E+03 -0.54371933862E+03  0.74514224558E+03  0.90854755827E+02 0.  0.
        254    2    1    2    0    0  0.46974244176E+03 -0.17519617208E+03 -0.20443300802E+03  0.10504162099E+04  0.90012760147E+03 0.  0.
         23    2    4    4    0    0  0.58878899898E+03 -0.41104787366E+03 -0.25102220314E+03  0.76631271131E+03  0.92683252451E+02 0.  0.
         23    2    4    4    0    0 -0.11904655722E+03  0.23585170158E+03  0.46589195117E+02  0.28410349859E+03  0.93520783172E+02 0.  0.
          4    1    3    3  502    0 -0.34828362800E+03  0.85883137793E+02 -0.38695027014E+03  0.52764373440E+03  0.00000000000E+00 0. -1.
         -4    1    3    3    0  502 -0.12145881376E+03  0.89313034286E+02 -0.15676906848E+03  0.21749851118E+03  0.00000000000E+00 0.  1.
         11    1    5    5    0    0  0.19057421004E+02 -0.23126738851E+02 -0.30200807990E+02  0.42545506795E+02  0.00000000000E+00 0.  1.
        -11    1    5    5    0    0  0.56973157797E+03 -0.38792113481E+03 -0.22082139515E+03  0.72376720451E+03  0.00000000000E+00 0. -1.
          4    1    6    6  503    0 -0.13004700757E+03  0.23398097290E+03  0.38787139539E+02  0.27048800722E+03  0.00000000000E+00 0. -1.
         -4    1    6    6    0  503  0.11000450356E+02  0.18707286777E+01  0.78020555776E+01  0.13615491363E+02  0.00000000000E+00 0.  1.
<mgrwt>
<rscale>  0 0.16322678E+04</rscale>
<asrwt>0</asrwt>
<pdfrwt beam="1">  1        2 0.19567006E+00 0.16322678E+04</pdfrwt>
<pdfrwt beam="2">  1       -2 0.80569701E-01 0.16322678E+04</pdfrwt>
<totfact> 0.22346485E+01</totfact>
</mgrwt>
</event>
<event>
12    2  0.8147979E-008  0.1838733E+04  0.7818608E-02  0.8685968E-01
          1   -1    0    0  501    0  0.00000000000E+00  0.00000000000E+00  0.26638952747E+04  0.26638952747E+04  0.00000000000E+00 0. -1.
         -1   -1    0    0    0  501 -0.00000000000E+00 -0.00000000000E+00 -0.31729289730E+03  0.31729289730E+03  0.00000000000E+00 0.  1.
         23    2    1    2    0    0  0.80666393958E+02  0.55771933927E+03  0.15537735710E+04  0.16553163427E+04  0.91115070273E+02 0.  0.
        254    2    1    2    0    0 -0.80666393958E+02 -0.55771933927E+03  0.79282880640E+03  0.13258718293E+04  0.90099981293E+03 0.  0.
         23    2    4    4    0    0  0.84935969448E+02 -0.22991608862E+03  0.89625301329E+03  0.93352867579E+03  0.90170937582E+02 0.  0.
         23    2    4    4    0    0 -0.16560236341E+03 -0.32780325065E+03 -0.10342420688E+03  0.39234315349E+03  0.91419197202E+02 0.  0.
          2    1    3    3  502    0  0.44032170630E+02  0.32358912050E+03  0.10274870958E+04  0.10781365790E+04  0.00000000000E+00 0. -1.
         -2    1    3    3    0  502  0.36634223328E+02  0.23413021878E+03  0.52628647515E+03  0.57717976366E+03  0.00000000000E+00 0.  1.
         11    1    5    5    0    0  0.58749151623E+02 -0.22315514296E+03  0.83987355685E+03  0.87099786001E+03  0.00000000000E+00 0. -1.
        -11    1    5    5    0    0  0.26186817825E+02 -0.67609456591E+01  0.56379456438E+02  0.62530815781E+02  0.00000000000E+00 0.  1.
          4    1    6    6  503    0  0.10619801153E+02 -0.35782922386E+02 -0.79903185872E+01  0.38171231341E+02  0.00000000000E+00 0.  1.
         -4    1    6    6    0  503 -0.17622216456E+03 -0.29202032827E+03 -0.95433888297E+02  0.35417192215E+03  0.00000000000E+00 0. -1.
<mgrwt>
<rscale>  0 0.18387333E+04</rscale>
<asrwt>0</asrwt>
<pdfrwt beam="1">  1        1 0.40983003E+00 0.18387333E+04</pdfrwt>
<pdfrwt beam="2">  1       -1 0.48814294E-01 0.18387333E+04</pdfrwt>
<totfact> 0.41178775E+00</totfact>
</mgrwt>
</event>
<event>
12    2  0.8147979E-008  0.1633293E+04  0.7818608E-02  0.8800352E-01
         -2   -1    0    0    0  501 -0.00000000000E+00  0.00000000000E+00  0.42593687750E+03  0.42593687750E+03  0.00000000000E+00 0.  1.
          2   -1    0    0  501    0  0.00000000000E+00 -0.00000000000E+00 -0.15657526725E+04  0.15657526725E+04  0.00000000000E+00 0. -1.
         23    2    1    2    0    0 -0.55614626148E+03  0.19636034638E+02 -0.51699714722E+03  0.76419444806E+03  0.83802542827E+02 0.  0.
        254    2    1    2    0    0  0.55614626148E+03 -0.19636034638E+02 -0.62281864779E+03  0.12274951019E+04  0.89953149986E+03 0.  0.
         23    2    4    4    0    0  0.76669105645E+03  0.83011361523E+02 -0.33573389543E+03  0.84617429114E+03  0.92669413844E+02 0.  0.
         23    2    4    4    0    0 -0.21054479497E+03 -0.10264739616E+03 -0.28708475236E+03  0.38132081080E+03  0.90123843054E+02 0.  0.
          2    1    3    3  502    0 -0.10982470186E+03  0.24087992001E+02 -0.14276256583E+03  0.18172189384E+03  0.00000000000E+00 0. -1.
         -2    1    3    3    0  502 -0.44632155962E+03 -0.44519573635E+01 -0.37423458139E+03  0.58247255422E+03  0.00000000000E+00 0.  1.
         11    1    5    5    0    0  0.69925639523E+03  0.97016982942E+02 -0.28833866816E+03  0.76256867809E+03  0.00000000000E+00 0.  1.
        -11    1    5    5    0    0  0.67434661224E+02 -0.14005621420E+02 -0.47395227272E+02  0.83605613053E+02  0.00000000000E+00 0. -1.
          1    1    6    6  503    0 -0.17955706764E+02 -0.42455269242E+02 -0.79040704097E+02  0.91500219650E+02  0.00000000000E+00 0. -1.
         -1    1    6    6    0  503 -0.19258908821E+03 -0.60192126919E+02 -0.20804404826E+03  0.28982059115E+03  0.00000000000E+00 0.  1.
<mgrwt>
<rscale>  0 0.16332934E+04</rscale>
<asrwt>0</asrwt>
<pdfrwt beam="1">  1        2 0.24088503E+00 0.16332934E+04</pdfrwt>
<pdfrwt beam="2">  1       -2 0.65528751E-01 0.16332934E+04</pdfrwt>
<totfact> 0.23916085E+01</totfact>
</mgrwt>
</event>
<event>
12    2  0.8147979E-008  0.2695548E+04  0.7818608E-02  0.8336451E-01
          2   -1    0    0  501    0  0.00000000000E+00  0.00000000000E+00  0.25901058461E+04  0.25901058461E+04  0.00000000000E+00 0. -1.
         -2   -1    0    0    0  501 -0.00000000000E+00 -0.00000000000E+00 -0.70132051174E+03  0.70132051174E+03  0.00000000000E+00 0.  1.
         23    2    1    2    0    0 -0.60124549109E+03 -0.75254767909E+03  0.17043235281E+04  0.19598270969E+04  0.91539124722E+02 0.  0.
        254    2    1    2    0    0  0.60124549109E+03  0.75254767909E+03  0.18446180624E+03  0.13315992609E+04  0.90072542094E+03 0.  0.
         23    2    4    4    0    0 -0.18818574449E+03 -0.16406552845E+02  0.41114666006E+02  0.21632589414E+03  0.97074339079E+02 0.  0.
         23    2    4    4    0    0  0.78943123558E+03  0.76895423193E+03  0.14334714023E+03  0.11152733668E+04  0.93776295373E+02 0.  0.
          2    1    3    3  502    0 -0.24609691028E+03 -0.31791088789E+03  0.80310833328E+03  0.89811692828E+03  0.00000000000E+00 0. -1.
         -2    1    3    3    0  502 -0.35514858081E+03 -0.43463679120E+03  0.90121519484E+03  0.10617101686E+04  0.00000000000E+00 0.  1.
         11    1    5    5    0    0 -0.70729294386E+02 -0.93439604515E+01 -0.31571830098E+02  0.78017454053E+02  0.00000000000E+00 0. -1.
        -11    1    5    5    0    0 -0.11745645011E+03 -0.70625923938E+01  0.72686496104E+02  0.13830844009E+03  0.00000000000E+00 0.  1.
          1    1    6    6  503    0  0.42602935823E+03  0.39398049918E+03  0.12013906523E+03  0.59258336359E+03  0.00000000000E+00 0. -1.
         -1    1    6    6    0  503  0.36340187735E+03  0.37497373275E+03  0.23208075000E+02  0.52269000321E+03  0.00000000000E+00 0.  1.
<mgrwt>
<rscale>  0 0.26955477E+04</rscale>
<asrwt>0</asrwt>
<pdfrwt beam="1">  1        2 0.39847782E+00 0.26955477E+04</pdfrwt>
<pdfrwt beam="2">  1       -2 0.10789546E+00 0.26955477E+04</pdfrwt>
<totfact> 0.18629736E+00</totfact>
</mgrwt>
</event>
<event>
12    2  0.8147979E-008  0.1855265E+04  0.7818608E-02  0.8677450E-01
          1   -1    0    0  501    0  0.00000000000E+00  0.00000000000E+00  0.12293116775E+04  0.12293116775E+04  0.00000000000E+00 0. -1.
         -1   -1    0    0    0  501 -0.00000000000E+00 -0.00000000000E+00 -0.69998654491E+03  0.69998654491E+03  0.00000000000E+00 0.  1.
         23    2    1    2    0    0  0.58635666935E+03 -0.39097177786E+03  0.17785435572E+03  0.73228931286E+03  0.89120093730E+02 0.  0.
        254    2    1    2    0    0 -0.58635666935E+03  0.39097177786E+03  0.35147077688E+03  0.11970089096E+04  0.90145745757E+03 0.  0.
         23    2    4    4    0    0  0.25393899561E+02  0.48966195587E+03  0.46904984993E+02  0.50060539275E+03  0.89397989176E+02 0.  0.
         23    2    4    4    0    0 -0.61175056891E+03 -0.98690178011E+02  0.30456579189E+03  0.69640351682E+03  0.90769085336E+02 0.  0.
          1    1    3    3  502    0  0.44221036326E+03 -0.27014154940E+03  0.16469914702E+03  0.54373915724E+03  0.00000000000E+00 0. -1.
         -1    1    3    3    0  502  0.14414630609E+03 -0.12083022846E+03  0.13155208706E+02  0.18855015562E+03  0.00000000000E+00 0.  1.
         11    1    5    5    0    0  0.59064380206E+02  0.29634060704E+03  0.29148061283E+02  0.30357201100E+03  0.00000000000E+00 0.  1.
        -11    1    5    5    0    0 -0.33670480646E+02  0.19332134883E+03  0.17756923710E+02  0.19703338174E+03  0.00000000000E+00 0. -1.
          1    1    6    6  503    0 -0.69535353322E+02 -0.25844648477E+02  0.67008932091E+02  0.99966535383E+02  0.00000000000E+00 0. -1.
         -1    1    6    6    0  503 -0.54221521559E+03 -0.72845529535E+02  0.23755685979E+03  0.59643698144E+03  0.00000000000E+00 0.  1.
<mgrwt>
<rscale>  0 0.18552645E+04</rscale>
<asrwt>0</asrwt>
<pdfrwt beam="1">  1        1 0.18912487E+00 0.18552645E+04</pdfrwt>
<pdfrwt beam="2">  1       -1 0.10769024E+00 0.18552645E+04</pdfrwt>
<totfact> 0.76661891E+00</totfact>
</mgrwt>
</event>
<event>
12    2  0.8147979E-008  0.1658544E+04  0.7818608E-02  0.8785368E-01
          1   -1    0    0  501    0  0.00000000000E+00  0.00000000000E+00  0.16440573420E+04  0.16440573420E+04  0.00000000000E+00 0. -1.
         -1   -1    0    0    0  501 -0.00000000000E+00 -0.00000000000E+00 -0.41828940022E+03  0.41828940022E+03  0.00000000000E+00 0.  1.
         23    2    1    2    0    0  0.14285494989E+03  0.82504278711E+02  0.11258389662E+04  0.11414992085E+04  0.91063563617E+02 0.  0.
        254    2    1    2    0    0 -0.14285494989E+03 -0.82504278711E+02  0.99928975661E+02  0.92084753373E+03  0.90042206075E+03 0.  0.
         23    2    4    4    0    0  0.17478195091E+03 -0.28776682546E+03 -0.22346763214E+03  0.41425714305E+03  0.91174128756E+02 0.  0.
         23    2    4    4    0    0 -0.31763690080E+03  0.20526254675E+03  0.32339660780E+03  0.50659039068E+03  0.94987073548E+02 0.  0.
          4    1    3    3  502    0  0.14002921645E+03  0.50354669990E+02  0.77340817704E+03  0.78759379287E+03  0.00000000000E+00 0. -1.
         -4    1    3    3    0  502  0.28257334365E+01  0.32149608721E+02  0.35243078912E+03  0.35390541565E+03  0.00000000000E+00 0.  1.
         11    1    5    5    0    0 -0.11025636984E+02 -0.20687574997E+02 -0.16047939454E+02  0.28409096974E+02  0.00000000000E+00 0. -1.
        -11    1    5    5    0    0  0.18580758790E+03 -0.26707925047E+03 -0.20741969269E+03  0.38584804608E+03  0.00000000000E+00 0.  1.
          4    1    6    6  503    0 -0.57453770119E+02  0.22782466697E+02  0.10204909918E+03  0.11930630802E+03  0.00000000000E+00 0. -1.
         -4    1    6    6    0  503 -0.26018313068E+03  0.18248008005E+03  0.22134750862E+03  0.38728408266E+03  0.00000000000E+00 0.  1.
<mgrwt>
<rscale>  0 0.16585436E+04</rscale>
<asrwt>0</asrwt>
<pdfrwt beam="1">  1        1 0.25293190E+00 0.16585436E+04</pdfrwt>
<pdfrwt beam="2">  1       -1 0.64352216E-01 0.16585436E+04</pdfrwt>
<totfact> 0.12170029E+01</totfact>
</mgrwt>
</event>
<event>
12    2  0.8147979E-008  0.2386914E+04  0.7818608E-02  0.8444419E-01
          1   -1    0    0  501    0  0.00000000000E+00  0.00000000000E+00  0.24955534895E+04  0.24955534895E+04  0.00000000000E+00 0. -1.
         -1   -1    0    0    0  501 -0.00000000000E+00 -0.00000000000E+00 -0.57075092764E+03  0.57075092764E+03  0.00000000000E+00 0.  1.
         23    2    1    2    0    0  0.87466310438E+03 -0.49888302216E+03  0.10579022352E+04  0.14633603298E+04  0.91359179426E+02 0.  0.
        254    2    1    2    0    0 -0.87466310438E+03  0.49888302216E+03  0.86690032663E+03  0.16029440873E+04  0.89665698835E+03 0.  0.
         23    2    4    4    0    0 -0.17144069054E+03  0.42874038046E+03 -0.11934259329E+02  0.47092273684E+03  0.91736433992E+02 0.  0.
         23    2    4    4    0    0 -0.70322241384E+03  0.70142641701E+02  0.87883458596E+03  0.11320213505E+04  0.98388794697E+02 0.  0.
          4    1    3    3  502    0  0.52628483395E+03 -0.33440391946E+03  0.70103697875E+03  0.93821881956E+03  0.00000000000E+00 0. -1.
         -4    1    3    3    0  502  0.34837827043E+03 -0.16447910269E+03  0.35686525646E+03  0.52514151026E+03  0.00000000000E+00 0.  1.
         11    1    5    5    0    0  0.55161698805E+01  0.13380762946E+02 -0.12975540956E+02  0.19438045434E+02  0.00000000000E+00 0. -1.
        -11    1    5    5    0    0 -0.17695686042E+03  0.41535961751E+03  0.10412816275E+01  0.45148469141E+03  0.00000000000E+00 0.  1.
          2    1    6    6  503    0 -0.14961365040E+03 -0.25343004406E+02  0.18697850391E+03  0.24080588278E+03  0.00000000000E+00 0. -1.
         -2    1    6    6    0  503 -0.55360876344E+03  0.95485646107E+02  0.69185608205E+03  0.89121546768E+03  0.00000000000E+00 0.  1.
<mgrwt>
<rscale>  0 0.23869139E+04</rscale>
<asrwt>0</asrwt>
<pdfrwt beam="1">  1        1 0.38393130E+00 0.23869139E+04</pdfrwt>
<pdfrwt beam="2">  1       -1 0.87807836E-01 0.23869139E+04</pdfrwt>
<totfact> 0.15607547E+00</totfact>
</mgrwt>
</event>
<event>
12    2  0.8147979E-008  0.2420440E+04  0.7818608E-02  0.8431891E-01
         -1   -1    0    0    0  501 -0.00000000000E+00  0.00000000000E+00  0.20346067964E+04  0.20346067964E+04  0.00000000000E+00 0.  1.
          1   -1    0    0  501    0  0.00000000000E+00 -0.00000000000E+00 -0.71986023941E+03  0.71986023941E+03  0.00000000000E+00 0. -1.
         23    2    1    2    0    0  0.25279416364E+03 -0.98369385196E+03  0.30417821798E+03  0.10641467492E+04  0.91243805717E+02 0.  0.
        254    2    1    2    0    0 -0.25279416364E+03  0.98369385196E+03  0.10105683390E+04  0.16903202865E+04  0.89687001276E+03 0.  0.
         23    2    4    4    0    0 -0.20949410877E+03  0.57993940318E+03  0.28859243092E+02  0.62397046346E+03  0.91042794289E+02 0.  0.
         23    2    4    4    0    0 -0.43300054872E+02  0.40375444878E+03  0.98170909589E+03  0.10663498231E+04  0.91960027044E+02 0.  0.
          3    1    3    3  502    0  0.21040634903E+03 -0.75785474408E+03  0.19823776907E+03  0.81111827616E+03  0.00000000000E+00 0. -1.
         -3    1    3    3    0  502  0.42387814607E+02 -0.22583910788E+03  0.10594044892E+03  0.25302847308E+03  0.00000000000E+00 0.  1.
         11    1    5    5    0    0 -0.12181827741E+03  0.39806402250E+03  0.56789868250E+02  0.42014253279E+03  0.00000000000E+00 0. -1.
        -11    1    5    5    0    0 -0.87675831359E+02  0.18187538068E+03 -0.27930625158E+02  0.20382793067E+03  0.00000000000E+00 0.  1.
          1    1    6    6  503    0 -0.63792137164E+02  0.27781161995E+03  0.74057405058E+03  0.79353554258E+03  0.00000000000E+00 0. -1.
         -1    1    6    6    0  503  0.20492082293E+02  0.12594282883E+03  0.24113504531E+03  0.27281428050E+03  0.00000000000E+00 0.  1.
<mgrwt>
<rscale>  0 0.24204401E+04</rscale>
<asrwt>0</asrwt>
<pdfrwt beam="1">  1        1 0.11074773E+00 0.24204401E+04</pdfrwt>
<pdfrwt beam="2">  1       -1 0.31301643E+00 0.24204401E+04</pdfrwt>
<totfact> 0.63477134E-01</totfact>
</mgrwt>
</event>
<event>
12    2  0.8147979E-008  0.2323009E+04  0.7818608E-02  0.8468904E-01
          2   -1    0    0  501    0  0.00000000000E+00  0.00000000000E+00  0.12500368526E+04  0.12500368526E+04  0.00000000000E+00 0. -1.
         -2   -1    0    0    0  501 -0.00000000000E+00 -0.00000000000E+00 -0.10792427396E+04  0.10792427396E+04  0.00000000000E+00 0.  1.
         23    2    1    2    0    0  0.30396390090E+03 -0.92715163332E+03 -0.44283742772E+02  0.98103081901E+03  0.91957673625E+02 0.  0.
        254    2    1    2    0    0 -0.30396390090E+03  0.92715163332E+03  0.21507785581E+03  0.13482487732E+04  0.90526905739E+03 0.  0.
         23    2    4    4    0    0 -0.11408696642E+03 -0.13486647642E+03 -0.97465611306E+02  0.22113426624E+03  0.90531850466E+02 0.  0.
         23    2    4    4    0    0 -0.18987693449E+03  0.10620181097E+04  0.31254346711E+03  0.11271145070E+04  0.93637478610E+02 0.  0.
          1    1    3    3  502    0  0.27413597514E+03 -0.89511366195E+03 -0.39319559833E+02  0.93697653570E+03  0.00000000000E+00 0. -1.
         -1    1    3    3    0  502  0.29827925761E+02 -0.32037971377E+02 -0.49641829399E+01  0.44054283304E+02  0.00000000000E+00 0.  1.
         11    1    5    5    0    0 -0.72155142571E+02 -0.56551737420E+02 -0.95353335551E+02  0.13227517607E+03  0.00000000000E+00 0.  1.
        -11    1    5    5    0    0 -0.41931823848E+02 -0.78314739001E+02 -0.21122757542E+01  0.88859090164E+02  0.00000000000E+00 0. -1.
          3    1    6    6  503    0 -0.11248011510E+03  0.38451612647E+03  0.10135746809E+03  0.41325266381E+03  0.00000000000E+00 0. -1.
         -3    1    6    6    0  503 -0.77396819383E+02  0.67750198328E+03  0.21118599902E+03  0.71386184320E+03  0.00000000000E+00 0.  1.
<mgrwt>
<rscale>  0 0.23230094E+04</rscale>
<asrwt>0</asrwt>
<pdfrwt beam="1">  1        2 0.19231336E+00 0.23230094E+04</pdfrwt>
<pdfrwt beam="2">  1       -2 0.16603735E+00 0.23230094E+04</pdfrwt>
<totfact> 0.36421685E+00</totfact>
</mgrwt>
</event>
<event>
12    2  0.8147979E-008  0.1977893E+04  0.7818608E-02  0.8617027E-01
         -2   -1    0    0    0  501 -0.00000000000E+00  0.00000000000E+00  0.72040775792E+03  0.72040775792E+03  0.00000000000E+00 0.  1.
          2   -1    0    0  501    0  0.00000000000E+00 -0.00000000000E+00 -0.13575851317E+04  0.13575851317E+04  0.00000000000E+00 0. -1.
         23    2    1    2    0    0  0.66213310712E+03 -0.39693325656E+03 -0.38247294950E+03  0.86569282512E+03  0.84630069431E+02 0.  0.
        254    2    1    2    0    0 -0.66213310712E+03  0.39693325656E+03 -0.25470442426E+03  0.12123000645E+04  0.89934467304E+03 0.  0.
         23    2    4    4    0    0  0.20045985557E+03 -0.23886699146E+02 -0.52133868468E+02  0.22730828917E+03  0.90533916245E+02 0.  0.
         23    2    4    4    0    0 -0.86259296269E+03  0.42081995571E+03 -0.20257055579E+03  0.98499177532E+03  0.89542799707E+02 0.  0.
          2    1    3    3  502    0  0.49840804424E+03 -0.29055238710E+03 -0.32499483308E+03  0.66215776801E+03  0.00000000000E+00 0. -1.
         -2    1    3    3    0  502  0.16372506288E+03 -0.10638086946E+03 -0.57478116417E+02  0.20353505711E+03  0.00000000000E+00 0.  1.
         11    1    5    5    0    0  0.14349199326E+03 -0.57918406158E+02 -0.32635651907E+02  0.15814417370E+03  0.00000000000E+00 0. -1.
        -11    1    5    5    0    0  0.56967862313E+02  0.34031707012E+02 -0.19498216562E+02  0.69164115463E+02  0.00000000000E+00 0.  1.
          1    1    6    6  503    0 -0.52204785352E+03  0.29797508974E+03 -0.14594599079E+03  0.61856555651E+03  0.00000000000E+00 0. -1.
         -1    1    6    6    0  503 -0.34054510917E+03  0.12284486596E+03 -0.56624564998E+02  0.36642621881E+03  0.00000000000E+00 0.  1.
<mgrwt>
<rscale>  0 0.19778927E+04</rscale>
<asrwt>0</asrwt>
<pdfrwt beam="1">  1        2 0.20885925E+00 0.19778927E+04</pdfrwt>
<pdfrwt beam="2">  1       -2 0.11083196E+00 0.19778927E+04</pdfrwt>
<totfact> 0.91921255E+00</totfact>
</mgrwt>
</event>
<event>
12    2  0.8147979E-008  0.1964741E+04  0.7818608E-02  0.8623285E-01
          2   -1    0    0  501    0  0.00000000000E+00  0.00000000000E+00  0.68301620411E+03  0.68301620411E+03  0.00000000000E+00 0. -1.
         -2   -1    0    0    0  501 -0.00000000000E+00 -0.00000000000E+00 -0.14129264279E+04  0.14129264279E+04  0.00000000000E+00 0.  1.
         23    2    1    2    0    0 -0.20572195428E+03  0.31892667548E+03  0.42809523881E+03  0.57945092930E+03  0.91989668830E+02 0.  0.
        254    2    1    2    0    0  0.20572195428E+03 -0.31892667548E+03 -0.11580054626E+04  0.15164917028E+04  0.90262654858E+03 0.  0.
         23    2    4    4    0    0 -0.26100781254E+03  0.83664871787E+02 -0.13454817266E+03  0.31842099457E+03  0.90353915461E+02 0.  0.
         23    2    4    4    0    0  0.46672976682E+03 -0.40259154726E+03 -0.10234572900E+04  0.11980707082E+04  0.89397808764E+02 0.  0.
          1    1    3    3  502    0 -0.15745123680E+03  0.16940942964E+03  0.28403371186E+03  0.36628622182E+03  0.00000000000E+00 0. -1.
         -1    1    3    3    0  502 -0.48270717478E+02  0.14951724584E+03  0.14406152695E+03  0.21316470748E+03  0.00000000000E+00 0.  1.
         11    1    5    5    0    0 -0.27264784178E+01 -0.91797949206E+01  0.46870280220E+01  0.10661639228E+02  0.00000000000E+00 0. -1.
        -11    1    5    5    0    0 -0.25828133412E+03  0.92844666707E+02 -0.13923520068E+03  0.30775935534E+03  0.00000000000E+00 0.  1.
          3    1    6    6  503    0  0.16439286070E+03 -0.14192355071E+03 -0.44595984665E+03  0.49603174467E+03  0.00000000000E+00 0. -1.
         -3    1    6    6    0  503  0.30233690612E+03 -0.26066799655E+03 -0.57749744334E+03  0.70203896352E+03  0.00000000000E+00 0.  1.
<mgrwt>
<rscale>  0 0.19647408E+04</rscale>
<asrwt>0</asrwt>
<pdfrwt beam="1">  1        2 0.10507942E+00 0.19647408E+04</pdfrwt>
<pdfrwt beam="2">  1       -2 0.21737329E+00 0.19647408E+04</pdfrwt>
<totfact> 0.40420675E+00</totfact>
</mgrwt>
</event>
<event>
12    2  0.8147979E-008  0.1822377E+04  0.7818608E-02  0.8694489E-01
         -1   -1    0    0    0  501 -0.00000000000E+00  0.00000000000E+00  0.31106309969E+03  0.31106309969E+03  0.00000000000E+00 0.  1.
          1   -1    0    0  501    0  0.00000000000E+00 -0.00000000000E+00 -0.26691196709E+04  0.26691196709E+04  0.00000000000E+00 0. -1.
         23    2    1    2    0    0 -0.24872756763E+03  0.49438427191E+03 -0.15604809547E+04  0.16581408084E+04  0.89715769668E+02 0.  0.
        254    2    1    2    0    0  0.24872756763E+03 -0.49438427191E+03 -0.79757561648E+03  0.13220419622E+04  0.89743349307E+03 0.  0.
         23    2    4    4    0    0  0.84993272081E+02 -0.41640532316E+03  0.61576365409E+02  0.43921516881E+03  0.92201227119E+02 0.  0.
         23    2    4    4    0    0  0.16373429555E+03 -0.77978948745E+02 -0.85915198188E+03  0.88282679334E+03  0.91385901949E+02 0.  0.
          2    1    3    3  502    0 -0.21573454479E+03  0.34393903939E+03 -0.10953681242E+04  0.11681895326E+04  0.00000000000E+00 0. -1.
         -2    1    3    3    0  502 -0.32993022840E+02  0.15044523252E+03 -0.46511283051E+03  0.48995127579E+03  0.00000000000E+00 0.  1.
         11    1    5    5    0    0  0.54052054503E+02 -0.11103988619E+03 -0.10482156200E+02  0.12394093964E+03  0.00000000000E+00 0. -1.
        -11    1    5    5    0    0  0.30941217578E+02 -0.30536543697E+03  0.72058521609E+02  0.31527422917E+03  0.00000000000E+00 0.  1.
          1    1    6    6  503    0  0.97745630020E+02 -0.97874420464E+01 -0.57276844182E+03  0.58113138803E+03  0.00000000000E+00 0. -1.
         -1    1    6    6    0  503  0.65988665533E+02 -0.68191506698E+02 -0.28638354006E+03  0.30169540531E+03  0.00000000000E+00 0.  1.
<mgrwt>
<rscale>  0 0.18223772E+04</rscale>
<asrwt>0</asrwt>
<pdfrwt beam="1">  1        1 0.41063381E+00 0.18223772E+04</pdfrwt>
<pdfrwt beam="2">  1       -1 0.47855859E-01 0.18223772E+04</pdfrwt>
<totfact> 0.42458393E+00</totfact>
</mgrwt>
</event>
<event>
12    2  0.8147979E-008  0.3465753E+04  0.7818608E-02  0.8121954E-01
          2   -1    0    0  501    0  0.00000000000E+00  0.00000000000E+00  0.47595503940E+04  0.47595503940E+04  0.00000000000E+00 0. -1.
         -2   -1    0    0    0  501 -0.00000000000E+00 -0.00000000000E+00 -0.63091261319E+03  0.63091261319E+03  0.00000000000E+00 0.  1.
         23    2    1    2    0    0  0.58342575488E+03  0.12819577010E+04  0.31542460758E+04  0.34556238459E+04  0.90921387520E+02 0.  0.
        254    2    1    2    0    0 -0.58342575488E+03 -0.12819577010E+04  0.97439170505E+03  0.19348391614E+04  0.90020121459E+03 0.  0.
         23    2    4    4    0    0 -0.18393366408E+03 -0.37708377463E+03  0.82587720732E+03  0.93063799984E+03  0.89387691025E+02 0.  0.
         23    2    4    4    0    0 -0.39949209080E+03 -0.90487392640E+03  0.14851449773E+03  0.10042011615E+04  0.89289772414E+02 0.  0.
          3    1    3    3  502    0  0.20166438719E+03  0.38130050599E+03  0.88561410724E+03  0.98507408243E+03  0.00000000000E+00 0. -1.
         -3    1    3    3    0  502  0.38176136770E+03  0.90065719505E+03  0.22686319685E+04  0.24705497634E+04  0.00000000000E+00 0.  1.
         11    1    5    5    0    0 -0.63474606599E+02 -0.11385030591E+03  0.17431760397E+03  0.21766383460E+03  0.00000000000E+00 0. -1.
        -11    1    5    5    0    0 -0.12045905748E+03 -0.26323346872E+03  0.65155960335E+03  0.71297416524E+03  0.00000000000E+00 0.  1.
          3    1    6    6  503    0 -0.36213136707E+02 -0.40848958837E+02  0.20022219455E+02  0.58145661748E+02  0.00000000000E+00 0. -1.
         -3    1    6    6    0  503 -0.36327895410E+03 -0.86402496756E+03  0.12849227827E+03  0.94605549977E+03  0.00000000000E+00 0.  1.
<mgrwt>
<rscale>  0 0.34657527E+04</rscale>
<asrwt>0</asrwt>
<pdfrwt beam="1">  1        2 0.73223850E+00 0.34657527E+04</pdfrwt>
<pdfrwt beam="2">  1       -2 0.97063482E-01 0.34657527E+04</pdfrwt>
<totfact> 0.47967824E-02</totfact>
</mgrwt>
</event>
<event>
12    2  0.8147979E-008  0.2160862E+04  0.7818608E-02  0.8534897E-01
         -2   -1    0    0    0  501 -0.00000000000E+00  0.00000000000E+00  0.55187723593E+03  0.55187723593E+03  0.00000000000E+00 0.  1.
          2   -1    0    0  501    0  0.00000000000E+00 -0.00000000000E+00 -0.21152002998E+04  0.21152002998E+04  0.00000000000E+00 0. -1.
         23    2    1    2    0    0  0.86932687606E+03 -0.19308950564E+03 -0.62897172066E+03  0.10940060764E+04  0.90725382815E+02 0.  0.
        254    2    1    2    0    0 -0.86932687606E+03  0.19308950564E+03 -0.93435134323E+03  0.15730714594E+04  0.89918218907E+03 0.  0.
         23    2    4    4    0    0 -0.33748650065E+03 -0.17600004902E+03  0.46913896502E+02  0.39436629775E+03  0.91927731061E+02 0.  0.
         23    2    4    4    0    0 -0.53184037541E+03  0.36908955466E+03 -0.98126523973E+03  0.11787051617E+04  0.85924985387E+02 0.  0.
          4    1    3    3  502    0  0.10875893022E+03 -0.55501977023E+02 -0.91677792106E+02  0.15268854548E+03  0.00000000000E+00 0. -1.
         -4    1    3    3    0  502  0.76056794584E+03 -0.13758752862E+03 -0.53729392855E+03  0.94131753088E+03  0.00000000000E+00 0.  1.
         11    1    5    5    0    0 -0.30663437543E+03 -0.18062385418E+03  0.59328674432E+02  0.36079011697E+03  0.00000000000E+00 0.  1.
        -11    1    5    5    0    0 -0.30852125215E+02  0.46238051533E+01 -0.12414777930E+02  0.33576180775E+02  0.00000000000E+00 0. -1.
          2    1    6    6  503    0 -0.29242643574E+03  0.16002977523E+03 -0.54653459712E+03  0.64017405066E+03  0.00000000000E+00 0. -1.
         -2    1    6    6    0  503 -0.23941393967E+03  0.20905977943E+03 -0.43473064261E+03  0.53853111099E+03  0.00000000000E+00 0.  1.
<mgrwt>
<rscale>  0 0.21608618E+04</rscale>
<asrwt>0</asrwt>
<pdfrwt beam="1">  1        2 0.32541543E+00 0.21608618E+04</pdfrwt>
<pdfrwt beam="2">  1       -2 0.84904190E-01 0.21608618E+04</pdfrwt>
<totfact> 0.63819136E+00</totfact>
</mgrwt>
</event>
<event>
12    2  0.8147979E-008  0.1939046E+04  0.7818608E-02  0.8635661E-01
         -2   -1    0    0    0  501 -0.00000000000E+00  0.00000000000E+00  0.56880003175E+03  0.56880003175E+03  0.00000000000E+00 0.  1.
          2   -1    0    0  501    0  0.00000000000E+00 -0.00000000000E+00 -0.16525578045E+04  0.16525578045E+04  0.00000000000E+00 0. -1.
         23    2    1    2    0    0  0.23416481533E+03 -0.19529141750E+03 -0.12196476875E+04  0.12605294146E+04  0.91771591366E+02 0.  0.
        254    2    1    2    0    0 -0.23416481533E+03  0.19529141750E+03  0.13588991477E+03  0.96082842162E+03  0.90097352257E+03 0.  0.
         23    2    4    4    0    0  0.27047533695E+03  0.31434908061E+03  0.64520741641E+02  0.42941795844E+03  0.90909870459E+02 0.  0.
         23    2    4    4    0    0 -0.50464015228E+03 -0.11905766311E+03  0.71369173129E+02  0.53141046318E+03  0.92016906401E+02 0.  0.
          2    1    3    3  502    0  0.15752890292E+03 -0.13903488198E+03 -0.65323165984E+03  0.68619068420E+03  0.00000000000E+00 0.  1.
         -2    1    3    3    0  502  0.76635912410E+02 -0.56256535515E+02 -0.56641602764E+03  0.57433873039E+03  0.00000000000E+00 0. -1.
         11    1    5    5    0    0  0.88091856623E+02  0.46545924164E+02  0.33801607185E+01  0.99690138660E+02  0.00000000000E+00 0. -1.
        -11    1    5    5    0    0  0.18238348033E+03  0.26780315645E+03  0.61140580922E+02  0.32972781978E+03  0.00000000000E+00 0.  1.
          3    1    6    6  503    0 -0.13108442448E+02  0.50404128668E+01  0.16233904219E+02  0.21465709200E+02  0.00000000000E+00 0. -1.
         -3    1    6    6    0  503 -0.49153170984E+03 -0.12409807598E+03  0.55135268910E+02  0.50994475398E+03  0.00000000000E+00 0.  1.
<mgrwt>
<rscale>  0 0.19390461E+04</rscale>
<asrwt>0</asrwt>
<pdfrwt beam="1">  1        2 0.25423966E+00 0.19390461E+04</pdfrwt>
<pdfrwt beam="2">  1       -2 0.87507698E-01 0.19390461E+04</pdfrwt>
<totfact> 0.10970363E+01</totfact>
</mgrwt>
</event>
<event>
12    2  0.8147979E-008  0.1909841E+04  0.7818608E-02  0.8649973E-01
         -2   -1    0    0    0  501 -0.00000000000E+00  0.00000000000E+00  0.49895012914E+03  0.49895012914E+03  0.00000000000E+00 0.  1.
          2   -1    0    0  501    0  0.00000000000E+00 -0.00000000000E+00 -0.18275845100E+04  0.18275845100E+04  0.00000000000E+00 0. -1.
         23    2    1    2    0    0 -0.17537671564E+03 -0.70482659182E+03 -0.69908862054E+03  0.10121845364E+04  0.90857687744E+02 0.  0.
        254    2    1    2    0    0  0.17537671564E+03  0.70482659182E+03 -0.62954576029E+03  0.13143501027E+04  0.89646573346E+03 0.  0.
         23    2    4    4    0    0 -0.10791541970E+03  0.70783642986E+03 -0.70248855087E+03  0.10073627811E+04  0.92797949178E+02 0.  0.
         23    2    4    4    0    0  0.28329213533E+03 -0.30098380446E+01  0.72942790579E+02  0.30698732162E+03  0.93043387037E+02 0.  0.
          3    1    3    3  502    0 -0.16955251665E+03 -0.51980494332E+03 -0.52972046331E+03  0.76128115979E+03  0.00000000000E+00 0. -1.
         -3    1    3    3    0  502 -0.58241989863E+01 -0.18502164850E+03 -0.16936815723E+03  0.25090337660E+03  0.00000000000E+00 0.  1.
         11    1    5    5    0    0 -0.64879272104E+02  0.61348723767E+03 -0.62243946895E+03  0.87635997355E+03  0.00000000000E+00 0. -1.
        -11    1    5    5    0    0 -0.43036147592E+02  0.94349192193E+02 -0.80049081914E+02  0.13100280754E+03  0.00000000000E+00 0.  1.
          4    1    6    6  503    0  0.27459311961E+03  0.16604715393E+02  0.58858676907E+02  0.28132088753E+03  0.00000000000E+00 0. -1.
         -4    1    6    6    0  503  0.86990157201E+01 -0.19614553438E+02  0.14084113672E+02  0.25666434092E+02  0.00000000000E+00 0.  1.
<mgrwt>
<rscale>  0 0.19098414E+04</rscale>
<asrwt>0</asrwt>
<pdfrwt beam="1">  1        2 0.28116685E+00 0.19098414E+04</pdfrwt>
<pdfrwt beam="2">  1       -2 0.76761559E-01 0.19098414E+04</pdfrwt>
<totfact> 0.11819787E+01</totfact>
</mgrwt>
</event>
<event>
12    2  0.8147979E-008  0.2023833E+04  0.7818608E-02  0.8595558E-01
          1   -1    0    0  501    0  0.00000000000E+00  0.00000000000E+00  0.27052503305E+04  0.27052503305E+04  0.00000000000E+00 0. -1.
         -1   -1    0    0    0  501 -0.00000000000E+00 -0.00000000000E+00 -0.37851403572E+03  0.37851403572E+03  0.00000000000E+00 0.  1.
         23    2    1    2    0    0 -0.78518336162E+03 -0.12312255550E+03  0.68836609009E+03  0.10553109511E+04  0.90339661897E+02 0.  0.
        254    2    1    2    0    0  0.78518336162E+03  0.12312255550E+03  0.16383702047E+04  0.20284534151E+04  0.89369695901E+03 0.  0.
         23    2    4    4    0    0  0.52863295377E+03  0.23191049983E+03  0.16337778375E+04  0.17351087894E+04  0.90206478929E+02 0.  0.
         23    2    4    4    0    0  0.25655040786E+03 -0.10878794432E+03  0.45923671209E+01  0.29334462568E+03  0.91526231091E+02 0.  0.
          2    1    3    3  502    0 -0.72299543376E+03 -0.13776043336E+03  0.63443663733E+03  0.97170478080E+03  0.00000000000E+00 0. -1.
         -2    1    3    3    0  502 -0.62187927863E+02  0.14637877857E+02  0.53929452761E+02  0.83606170318E+02  0.00000000000E+00 0.  1.
         11    1    5    5    0    0  0.39253872014E+03  0.14139022309E+03  0.10829593166E+04  0.11605510430E+04  0.00000000000E+00 0. -1.
        -11    1    5    5    0    0  0.13609423363E+03  0.90520276737E+02  0.55081852095E+03  0.57455774640E+03  0.00000000000E+00 0.  1.
          1    1    6    6  503    0  0.69013919405E+02 -0.76385152412E+02 -0.94086253652E+00  0.10294900584E+03  0.00000000000E+00 0. -1.
         -1    1    6    6    0  503  0.18753648845E+03 -0.32402791911E+02  0.55332296574E+01  0.19039561984E+03  0.00000000000E+00 0.  1.
<mgrwt>
<rscale>  0 0.20238332E+04</rscale>
<asrwt>0</asrwt>
<pdfrwt beam="1">  1        1 0.41619235E+00 0.20238332E+04</pdfrwt>
<pdfrwt beam="2">  1       -1 0.58232930E-01 0.20238332E+04</pdfrwt>
<totfact> 0.26937909E+00</totfact>
</mgrwt>
</event>
<event>
12    2  0.8147979E-008  0.2572828E+04  0.7818608E-02  0.8377490E-01
         -1   -1    0    0    0  501 -0.00000000000E+00  0.00000000000E+00  0.17377048399E+04  0.17377048399E+04  0.00000000000E+00 0.  1.
          1   -1    0    0  501    0  0.00000000000E+00 -0.00000000000E+00 -0.95232591555E+03  0.95232591555E+03  0.00000000000E+00 0. -1.
         23    2    1    2    0    0 -0.40939362564E+03  0.91784815812E+03 -0.18717322157E+03  0.10264468352E+04  0.92254585875E+02 0.  0.
        254    2    1    2    0    0  0.40939362564E+03 -0.91784815812E+03  0.97255214590E+03  0.16635839202E+04  0.90089144794E+03 0.  0.
         23    2    4    4    0    0 -0.15676878639E+03 -0.29259863645E+03  0.68761584733E+03  0.76878565221E+03  0.89584658847E+02 0.  0.
         23    2    4    4    0    0  0.56616241203E+03 -0.62524952167E+03  0.28493629857E+03  0.89479826799E+03  0.89433802378E+02 0.  0.
          4    1    3    3  502    0 -0.35115653632E+03  0.74775166952E+03 -0.18539064489E+03  0.84664819346E+03  0.00000000000E+00 0. -1.
         -4    1    3    3    0  502 -0.58237089324E+02  0.17009648860E+03 -0.17825766806E+01  0.17979864178E+03  0.00000000000E+00 0.  1.
         11    1    5    5    0    0 -0.13793936058E+03 -0.26464961029E+03  0.66293586644E+03  0.72701488735E+03  0.00000000000E+00 0.  1.
        -11    1    5    5    0    0 -0.18829425809E+02 -0.27949026161E+02  0.24679980895E+02  0.41770764856E+02  0.00000000000E+00 0. -1.
          3    1    6    6  503    0  0.28922746388E+03 -0.36782017592E+03  0.18953391467E+03  0.50484384961E+03  0.00000000000E+00 0. -1.
         -3    1    6    6    0  503  0.27693494816E+03 -0.25742934575E+03  0.95402383898E+02  0.38995441838E+03  0.00000000000E+00 0.  1.
<mgrwt>
<rscale>  0 0.25728283E+04</rscale>
<asrwt>0</asrwt>
<pdfrwt beam="1">  1        1 0.14651168E+00 0.25728283E+04</pdfrwt>
<pdfrwt beam="2">  1       -1 0.26733921E+00 0.25728283E+04</pdfrwt>
<totfact> 0.78331632E-01</totfact>
</mgrwt>
</event>
<event>
12    2  0.8147979E-008  0.2541590E+04  0.7818608E-02  0.8388317E-01
          2   -1    0    0  501    0  0.00000000000E+00  0.00000000000E+00  0.23822121692E+04  0.23822121692E+04  0.00000000000E+00 0. -1.
         -2   -1    0    0    0  501 -0.00000000000E+00 -0.00000000000E+00 -0.67790769395E+03  0.67790769395E+03  0.00000000000E+00 0.  1.
         23    2    1    2    0    0 -0.67854610786E+03  0.48547705115E+03  0.16288150842E+04  0.18323616918E+04  0.91640621390E+02 0.  0.
        254    2    1    2    0    0  0.67854610786E+03 -0.48547705115E+03  0.75489391087E+02  0.12277581713E+04  0.89754035645E+03 0.  0.
         23    2    4    4    0    0  0.80344231871E+03 -0.55180698127E+03  0.22257563798E+03  0.10039647879E+04  0.91623559462E+02 0.  0.
         23    2    4    4    0    0 -0.12489621084E+03  0.66329930118E+02 -0.14708624689E+03  0.22379338345E+03  0.91926010132E+02 0.  0.
          4    1    3    3  502    0 -0.49545882226E+03  0.40195752535E+03  0.12254774603E+04  0.13816093162E+04  0.00000000000E+00 0. -1.
         -4    1    3    3    0  502 -0.18308728560E+03  0.83519525799E+02  0.40333762389E+03  0.45075237568E+03  0.00000000000E+00 0.  1.
         11    1    5    5    0    0  0.38813115081E+03 -0.31989444950E+03  0.10121871852E+03  0.51305309475E+03  0.00000000000E+00 0. -1.
        -11    1    5    5    0    0  0.41531116789E+03 -0.23191253177E+03  0.12135691945E+03  0.49091169315E+03  0.00000000000E+00 0.  1.
          1    1    6    6  503    0 -0.14031395464E+02  0.21797382189E+02 -0.85572724953E+02  0.89413070548E+02  0.00000000000E+00 0. -1.
         -1    1    6    6    0  503 -0.11086481538E+03  0.44532547929E+02 -0.61513521937E+02  0.13438031290E+03  0.00000000000E+00 0.  1.
<mgrwt>
<rscale>  0 0.25415900E+04</rscale>
<asrwt>0</asrwt>
<pdfrwt beam="1">  1        2 0.36649418E+00 0.25415900E+04</pdfrwt>
<pdfrwt beam="2">  1       -2 0.10429349E+00 0.25415900E+04</pdfrwt>
<totfact> 0.27020918E+00</totfact>
</mgrwt>
</event>
<event>
12    2  0.8147979E-008  0.2927659E+04  0.7818608E-02  0.8264695E-01
          2   -1    0    0  501    0  0.00000000000E+00  0.00000000000E+00  0.14068788426E+04  0.14068788426E+04  0.00000000000E+00 0.  1.
         -2   -1    0    0    0  501 -0.00000000000E+00 -0.00000000000E+00 -0.15230855006E+04  0.15230855006E+04  0.00000000000E+00 0. -1.
         23    2    1    2    0    0 -0.12414176290E+04  0.45416273040E+03  0.21816136259E+02  0.13256377628E+04  0.97252347694E+02 0.  0.
        254    2    1    2    0    0  0.12414176290E+04 -0.45416273040E+03 -0.13802279425E+03  0.16043265804E+04  0.89857218390E+03 0.  0.
         23    2    4    4    0    0  0.22594455066E+03  0.25799201121E+03 -0.22075928685E+02  0.35530395483E+03  0.90237109168E+02 0.  0.
         23    2    4    4    0    0  0.10154730783E+04 -0.71215474161E+03 -0.11594686557E+03  0.12490226256E+04  0.90905966737E+02 0.  0.
          1    1    3    3  502    0 -0.37182997827E+03  0.89880327893E+02  0.14131018170E+02  0.38279980637E+03  0.00000000000E+00 0. -1.
         -1    1    3    3    0  502 -0.86958765070E+03  0.36428240250E+03  0.76851180888E+01  0.94283795642E+03  0.00000000000E+00 0.  1.
         11    1    5    5    0    0  0.11369572157E+03  0.98025924553E+02  0.29948836912E+02  0.15307753532E+03  0.00000000000E+00 0. -1.
        -11    1    5    5    0    0  0.11224882909E+03  0.15996608666E+03 -0.52024765597E+02  0.20222641951E+03  0.00000000000E+00 0.  1.
          3    1    6    6  503    0  0.93105835824E+03 -0.68118743263E+03 -0.10404325303E+03  0.11583224868E+04  0.00000000000E+00 0. -1.
         -3    1    6    6    0  503  0.84414720081E+02 -0.30967308982E+02 -0.11903612540E+02  0.90700138829E+02  0.00000000000E+00 0.  1.
<mgrwt>
<rscale>  0 0.29276590E+04</rscale>
<asrwt>0</asrwt>
<pdfrwt beam="1">  1        2 0.21644290E+00 0.29276590E+04</pdfrwt>
<pdfrwt beam="2">  1       -2 0.23432084E+00 0.29276590E+04</pdfrwt>
<totfact> 0.99216955E-01</totfact>
</mgrwt>
</event>
<event>
12    2  0.8147979E-008  0.3041984E+04  0.7818608E-02  0.8231843E-01
         -1   -1    0    0    0  501 -0.00000000000E+00  0.00000000000E+00  0.10172656591E+04  0.10172656591E+04  0.00000000000E+00 0.  1.
          1   -1    0    0  501    0  0.00000000000E+00 -0.00000000000E+00 -0.22741514939E+04  0.22741514939E+04  0.00000000000E+00 0. -1.
         23    2    1    2    0    0  0.23528236059E+03  0.10347961651E+04 -0.15382457208E+04  0.18709805944E+04  0.90595775056E+02 0.  0.
        254    2    1    2    0    0 -0.23528236059E+03 -0.10347961651E+04  0.28135988602E+03  0.14204365585E+04  0.90128560333E+03 0.  0.
         23    2    4    4    0    0 -0.28280854342E+03  0.43132212336E+01  0.22795704607E+03  0.37477326754E+03  0.92148310385E+02 0.  0.
         23    2    4    4    0    0  0.47526182826E+02 -0.10391093864E+04  0.53402839953E+02  0.10456632910E+04  0.92481349000E+02 0.  0.
          4    1    3    3  502    0  0.24668151762E+02  0.26452632356E+03 -0.35230064699E+03  0.44124646110E+03  0.00000000000E+00 0. -1.
         -4    1    3    3    0  502  0.21061420883E+03  0.77026984158E+03 -0.11859450738E+04  0.14297341333E+04  0.00000000000E+00 0.  1.
         11    1    5    5    0    0 -0.13346009737E+03 -0.25139914785E+02  0.15465169490E+03  0.20581729675E+03  0.00000000000E+00 0. -1.
        -11    1    5    5    0    0 -0.14934844605E+03  0.29453136018E+02  0.73305351170E+02  0.16895597080E+03  0.00000000000E+00 0.  1.
          3    1    6    6  503    0  0.57428767425E+02 -0.46288422715E+03 -0.44699907683E+01  0.46645455501E+03  0.00000000000E+00 0. -1.
         -3    1    6    6    0  503 -0.99025845983E+01 -0.57622515923E+03  0.57872830721E+02  0.57920873599E+03  0.00000000000E+00 0.  1.
<mgrwt>
<rscale>  0 0.30419837E+04</rscale>
<asrwt>0</asrwt>
<pdfrwt beam="1">  1        1 0.34986945E+00 0.30419837E+04</pdfrwt>
<pdfrwt beam="2">  1       -1 0.15650241E+00 0.30419837E+04</pdfrwt>
<totfact> 0.51076926E-01</totfact>
</mgrwt>
</event>
<event>
12    2  0.8147979E-008  0.1535122E+04  0.7818608E-02  0.8861427E-01
          1   -1    0    0  501    0  0.00000000000E+00  0.00000000000E+00  0.74475710378E+03  0.74475710378E+03  0.00000000000E+00 0. -1.
         -1   -1    0    0    0  501 -0.00000000000E+00 -0.00000000000E+00 -0.79106339212E+03  0.79106339212E+03  0.00000000000E+00 0.  1.
         23    2    1    2    0    0  0.62741508637E+01  0.48676369690E+03 -0.12081254617E+03  0.50968714547E+03  0.90592788643E+02 0.  0.
        254    2    1    2    0    0 -0.62741508637E+01 -0.48676369690E+03  0.74506257836E+02  0.10261333504E+04  0.90023341908E+03 0.  0.
         23    2    4    4    0    0  0.32296677535E+03 -0.32605314268E+03 -0.24794519884E+03  0.52945607759E+03  0.90712329045E+02 0.  0.
         23    2    4    4    0    0 -0.32924092622E+03 -0.16071055422E+03  0.32245145668E+03  0.49667727284E+03  0.92118954100E+02 0.  0.
          3    1    3    3  502    0  0.33821472899E+02  0.26174641990E+03 -0.30564349981E+02  0.26568639380E+03  0.00000000000E+00 0. -1.
         -3    1    3    3    0  502 -0.27547322036E+02  0.22501727700E+03 -0.90248196193E+02  0.24400075167E+03  0.00000000000E+00 0.  1.
         11    1    5    5    0    0  0.20970299998E+02 -0.66038413886E+02 -0.35293130747E+02  0.77758798013E+02  0.00000000000E+00 0. -1.
        -11    1    5    5    0    0  0.30199647536E+03 -0.26001472879E+03 -0.21265206809E+03  0.45169727958E+03  0.00000000000E+00 0.  1.
          3    1    6    6  503    0 -0.83961075019E+02 -0.78849210405E+02  0.67275222624E+02  0.13338896386E+03  0.00000000000E+00 0. -1.
         -3    1    6    6    0  503 -0.24527985120E+03 -0.81861343817E+02  0.25517623405E+03  0.36328830898E+03  0.00000000000E+00 0.  1.
<mgrwt>
<rscale>  0 0.15351223E+04</rscale>
<asrwt>0</asrwt>
<pdfrwt beam="1">  1        1 0.11457802E+00 0.15351223E+04</pdfrwt>
<pdfrwt beam="2">  1       -1 0.12170206E+00 0.15351223E+04</pdfrwt>
<totfact> 0.14287726E+01</totfact>
</mgrwt>
</event>
<event>
12    2  0.8147979E-008  0.2082647E+04  0.7818608E-02  0.8568926E-01
          1   -1    0    0  501    0  0.00000000000E+00  0.00000000000E+00  0.18947116267E+04  0.18947116267E+04  0.00000000000E+00 0. -1.
         -1   -1    0    0    0  501 -0.00000000000E+00 -0.00000000000E+00 -0.57230584664E+03  0.57230584664E+03  0.00000000000E+00 0.  1.
         23    2    1    2    0    0  0.66407177796E+03 -0.45615650208E+03  0.24204817038E+03  0.84588988125E+03  0.88725947385E+02 0.  0.
        254    2    1    2    0    0 -0.66407177796E+03  0.45615650208E+03  0.10803576097E+04  0.16211275921E+04  0.90100611783E+03 0.  0.
         23    2    4    4    0    0 -0.76786001447E+03  0.61846454219E+02  0.81919133829E+03  0.11281797481E+04  0.91000602297E+02 0.  0.
         23    2    4    4    0    0  0.10378823652E+03  0.39431004786E+03  0.26116627141E+03  0.49294784398E+03  0.92397747140E+02 0.  0.
          1    1    3    3  502    0  0.14810293845E+03 -0.75105143155E+02  0.79944351524E+02  0.18429965341E+03  0.00000000000E+00 0. -1.
         -1    1    3    3    0  502  0.51596883951E+03 -0.38105135893E+03  0.16210381886E+03  0.66159022784E+03  0.00000000000E+00 0.  1.
         11    1    5    5    0    0 -0.72763515901E+03  0.52301750658E+02  0.79975992491E+03  0.10824991156E+04  0.00000000000E+00 0.  1.
        -11    1    5    5    0    0 -0.40224855463E+02  0.95447035611E+01  0.19431413379E+02  0.45680632537E+02  0.00000000000E+00 0. -1.
          3    1    6    6  503    0 -0.16608735745E+02  0.47180898461E+02  0.40503476068E+02  0.64361625649E+02  0.00000000000E+00 0. -1.
         -3    1    6    6    0  503  0.12039697226E+03  0.34712914940E+03  0.22066279534E+03  0.42858621833E+03  0.00000000000E+00 0.  1.
<mgrwt>
<rscale>  0 0.20826469E+04</rscale>
<asrwt>0</asrwt>
<pdfrwt beam="1">  1        1 0.29149409E+00 0.20826469E+04</pdfrwt>
<pdfrwt beam="2">  1       -1 0.88047054E-01 0.20826469E+04</pdfrwt>
<totfact> 0.41015366E+00</totfact>
</mgrwt>
</event>
<event>
12    2  0.8147979E-008  0.5528619E+04  0.7818608E-02  0.7751763E-01
          2   -1    0    0  501    0  0.00000000000E+00  0.00000000000E+00  0.42317787825E+04  0.42317787825E+04  0.00000000000E+00 0. -1.
         -2   -1    0    0    0  501 -0.00000000000E+00 -0.00000000000E+00 -0.18057201071E+04  0.18057201071E+04  0.00000000000E+00 0.  1.
         23    2    1    2    0    0  0.21956264916E+04  0.84104255933E+03 -0.24679633009E+03  0.23661770652E+04  0.98778529249E+02 0.  0.
        254    2    1    2    0    0 -0.21956264916E+04 -0.84104255933E+03  0.26728550055E+04  0.36713218244E+04  0.89795421962E+03 0.  0.
         23    2    4    4    0    0 -0.17201804488E+04 -0.84348673552E+03  0.25141257214E+04  0.31622370140E+04  0.91783114536E+02 0.  0.
         23    2    4    4    0    0 -0.47544604285E+03  0.24441761977E+01  0.15872928403E+03  0.50908481038E+03  0.88980025256E+02 0.  0.
          2    1    3    3  502    0  0.11903382659E+04  0.40344729548E+03 -0.13662315138E+03  0.12642550348E+04  0.00000000000E+00 0. -1.
         -2    1    3    3    0  502  0.10052882258E+04  0.43759526385E+03 -0.11017317871E+03  0.11019220304E+04  0.00000000000E+00 0.  1.
         11    1    5    5    0    0 -0.57571276269E+03 -0.24007217769E+03  0.78461610543E+03  0.10023483768E+04  0.00000000000E+00 0. -1.
        -11    1    5    5    0    0 -0.11444676861E+04 -0.60341455783E+03  0.17295096160E+04  0.21598886372E+04  0.00000000000E+00 0.  1.
          3    1    6    6  503    0 -0.37998656952E+03  0.13342743794E+02  0.89361027311E+02  0.39058061272E+03  0.00000000000E+00 0. -1.
         -3    1    6    6    0  503 -0.95459473327E+02 -0.10898567596E+02  0.69368256722E+02  0.11850419766E+03  0.00000000000E+00 0.  1.
<mgrwt>
<rscale>  0 0.55286194E+04</rscale>
<asrwt>0</asrwt>
<pdfrwt beam="1">  1        2 0.65104289E+00 0.55286194E+04</pdfrwt>
<pdfrwt beam="2">  1       -2 0.27780309E+00 0.55286194E+04</pdfrwt>
<totfact> 0.65664473E-03</totfact>
</mgrwt>
</event>
<event>
12    2  0.8147979E-008  0.2286685E+04  0.7818608E-02  0.8483190E-01
          4   -1    0    0  501    0  0.00000000000E+00  0.00000000000E+00  0.19780555803E+04  0.19780555803E+04  0.00000000000E+00 0. -1.
         -4   -1    0    0    0  501 -0.00000000000E+00 -0.00000000000E+00 -0.66086694227E+03  0.66086694227E+03  0.00000000000E+00 0.  1.
         23    2    1    2    0    0 -0.13131666415E+02  0.96344311441E+03  0.53702126366E+03  0.11069122164E+04  0.92020334093E+02 0.  0.
        254    2    1    2    0    0  0.13131666415E+02 -0.96344311441E+03  0.78016737437E+03  0.15320103061E+04  0.89999965040E+03 0.  0.
         23    2    4    4    0    0  0.28398879245E+02 -0.95543058866E+03  0.24909534066E+03  0.99209869192E+03  0.92505241360E+02 0.  0.
         23    2    4    4    0    0 -0.15267212830E+02 -0.80125257513E+01  0.53107203371E+03  0.53991161422E+03  0.95758852483E+02 0.  0.
          1    1    3    3  502    0  0.28013583456E+02  0.55726958505E+03  0.34228237215E+03  0.65459252483E+03  0.00000000000E+00 0. -1.
         -1    1    3    3    0  502 -0.41145249871E+02  0.40617352936E+03  0.19473889151E+03  0.45231969160E+03  0.00000000000E+00 0.  1.
         11    1    5    5    0    0  0.32488884534E+02 -0.89660690916E+03  0.25528890960E+03  0.93280861088E+03  0.00000000000E+00 0. -1.
        -11    1    5    5    0    0 -0.40900052888E+01 -0.58823679501E+02 -0.61935689381E+01  0.59290081038E+02  0.00000000000E+00 0.  1.
          2    1    6    6  503    0 -0.51698157042E+02 -0.24512467801E+02  0.32394482464E+03  0.32895867511E+03  0.00000000000E+00 0. -1.
         -2    1    6    6    0  503  0.36430944212E+02  0.16499942049E+02  0.20712720907E+03  0.21095293911E+03  0.00000000000E+00 0.  1.
<mgrwt>
<rscale>  0 0.22866845E+04</rscale>
<asrwt>0</asrwt>
<pdfrwt beam="1">  1        4 0.30431624E+00 0.22866845E+04</pdfrwt>
<pdfrwt beam="2">  1       -4 0.10167184E+00 0.22866845E+04</pdfrwt>
<totfact> 0.41790902E-02</totfact>
</mgrwt>
</event>
<event>
12    2  0.8147979E-008  0.2359472E+04  0.7818608E-02  0.8454835E-01
         -2   -1    0    0    0  501 -0.00000000000E+00  0.00000000000E+00  0.13022066983E+04  0.13022066983E+04  0.00000000000E+00 0.  1.
          2   -1    0    0  501    0  0.00000000000E+00 -0.00000000000E+00 -0.10687830497E+04  0.10687830497E+04  0.00000000000E+00 0. -1.
         23    2    1    2    0    0 -0.67593359469E+03 -0.74479368017E+03  0.10479427054E+03  0.10153489774E+04  0.91366603961E+02 0.  0.
        254    2    1    2    0    0  0.67593359469E+03  0.74479368017E+03  0.12862937800E+03  0.13556407706E+04  0.89978471408E+03 0.  0.
         23    2    4    4    0    0  0.76698982069E+02  0.64389630934E+03 -0.16380102472E+03  0.67517053889E+03  0.92408278099E+02 0.  0.
         23    2    4    4    0    0  0.59923461262E+03  0.10089737083E+03  0.29243040272E+03  0.68047023175E+03  0.90894419303E+02 0.  0.
          2    1    3    3  502    0 -0.25216372571E+03 -0.25969975668E+03  0.80173004945E+02  0.37075358246E+03  0.00000000000E+00 0.  1.
         -2    1    3    3    0  502 -0.42376986897E+03 -0.48509392348E+03  0.24621265597E+02  0.64459539493E+03  0.00000000000E+00 0. -1.
         11    1    5    5    0    0 -0.67944621496E+01  0.33218785636E+03 -0.79124735026E+02  0.34154891351E+03  0.00000000000E+00 0.  1.
        -11    1    5    5    0    0  0.83493444219E+02  0.31170845298E+03 -0.84676289695E+02  0.33362162538E+03  0.00000000000E+00 0. -1.
          1    1    6    6  503    0  0.22202750649E+02  0.21995809335E+02  0.22777113685E+02  0.38672660530E+02  0.00000000000E+00 0. -1.
         -1    1    6    6    0  503  0.57703186197E+03  0.78901561493E+02  0.26965328904E+03  0.64179757122E+03  0.00000000000E+00 0.  1.
<mgrwt>
<rscale>  0 0.23594715E+04</rscale>
<asrwt>0</asrwt>
<pdfrwt beam="1">  1        2 0.16442816E+00 0.23594715E+04</pdfrwt>
<pdfrwt beam="2">  1       -2 0.20033949E+00 0.23594715E+04</pdfrwt>
<totfact> 0.27192658E+00</totfact>
</mgrwt>
</event>
<event>
12    2  0.8147979E-008  0.1389573E+04  0.7818608E-02  0.8961401E-01
         -2   -1    0    0    0  501 -0.00000000000E+00  0.00000000000E+00  0.63183252733E+03  0.63183252733E+03  0.00000000000E+00 0.  1.
          2   -1    0    0  501    0  0.00000000000E+00 -0.00000000000E+00 -0.76401348297E+03  0.76401348297E+03  0.00000000000E+00 0. -1.
         23    2    1    2    0    0 -0.35164301295E+03 -0.44172619986E+02 -0.21573985087E+03  0.42486445032E+03  0.91444458438E+02 0.  0.
        254    2    1    2    0    0  0.35164301295E+03  0.44172619986E+02  0.83558895230E+02  0.97098155998E+03  0.90012169840E+03 0.  0.
         23    2    4    4    0    0 -0.13616882421E+02 -0.38378666040E+03 -0.89706349968E+01  0.39430853463E+03  0.89000719133E+02 0.  0.
         23    2    4    4    0    0  0.36525989537E+03  0.42795928038E+03  0.92529530227E+02  0.57667302535E+03  0.86174981076E+02 0.  0.
          3    1    3    3  502    0 -0.20310913173E+03  0.15281014622E+02 -0.14447513401E+03  0.24971962908E+03  0.00000000000E+00 0. -1.
         -3    1    3    3    0  502 -0.14853388122E+03 -0.59453634608E+02 -0.71264716861E+02  0.17514482124E+03  0.00000000000E+00 0.  1.
         11    1    5    5    0    0 -0.25879347870E+02 -0.25612949192E+03  0.32611321776E+02  0.25949095473E+03  0.00000000000E+00 0.  1.
        -11    1    5    5    0    0  0.12262465449E+02 -0.12765716848E+03 -0.41581956772E+02  0.13481757990E+03  0.00000000000E+00 0. -1.
          4    1    6    6  503    0  0.48053740504E+02  0.66613569240E+02  0.44606498986E+02  0.93468012363E+02  0.00000000000E+00 0. -1.
         -4    1    6    6    0  503  0.31720615487E+03  0.36134571114E+03  0.47923031241E+02  0.48320501298E+03  0.00000000000E+00 0.  1.
<mgrwt>
<rscale>  0 0.13895734E+04</rscale>
<asrwt>0</asrwt>
<pdfrwt beam="1">  1        2 0.11754054E+00 0.13895734E+04</pdfrwt>
<pdfrwt beam="2">  1       -2 0.97205004E-01 0.13895734E+04</pdfrwt>
<totfact> 0.31497907E+01</totfact>
</mgrwt>
</event>
<event>
12    2  0.8147979E-008  0.3695499E+04  0.7818608E-02  0.8068960E-01
         -2   -1    0    0    0  501 -0.00000000000E+00  0.00000000000E+00  0.12893719354E+04  0.12893719354E+04  0.00000000000E+00 0.  1.
          2   -1    0    0  501    0  0.00000000000E+00 -0.00000000000E+00 -0.26479395102E+04  0.26479395102E+04  0.00000000000E+00 0. -1.
         23    2    1    2    0    0 -0.17291927647E+04 -0.34579363087E+02 -0.46543121055E+03  0.17935089435E+04  0.93513469386E+02 0.  0.
        254    2    1    2    0    0  0.17291927647E+04  0.34579363087E+02 -0.89313636424E+03  0.21438025020E+04  0.89827237113E+03 0.  0.
         23    2    4    4    0    0  0.71969976966E+03  0.39550325467E+03 -0.15893685267E+03  0.84120876219E+03  0.89334626744E+02 0.  0.
         23    2    4    4    0    0  0.10094929950E+04 -0.36092389159E+03 -0.73419951156E+03  0.13025937398E+04  0.91429567093E+02 0.  0.
          4    1    3    3  502    0 -0.95606261437E+03 -0.31536017442E+02 -0.30372460690E+03  0.10036428049E+04  0.00000000000E+00 0. -1.
         -4    1    3    3    0  502 -0.77313015034E+03 -0.30433456451E+01 -0.16170660365E+03  0.78986613865E+03  0.00000000000E+00 0.  1.
         11    1    5    5    0    0  0.40873438448E+03  0.17697149681E+03 -0.10149559725E+03  0.45681950921E+03  0.00000000000E+00 0. -1.
        -11    1    5    5    0    0  0.31096538518E+03  0.21853175786E+03 -0.57441255424E+02  0.38438925297E+03  0.00000000000E+00 0.  1.
          1    1    6    6  503    0  0.49985340596E+03 -0.16829956837E+03 -0.41523146556E+03  0.67126398843E+03  0.00000000000E+00 0. -1.
         -1    1    6    6    0  503  0.50963958909E+03 -0.19262432322E+03 -0.31896804600E+03  0.63132975142E+03  0.00000000000E+00 0.  1.
<mgrwt>
<rscale>  0 0.36954994E+04</rscale>
<asrwt>0</asrwt>
<pdfrwt beam="1">  1        2 0.40737530E+00 0.36954994E+04</pdfrwt>
<pdfrwt beam="2">  1       -2 0.19836492E+00 0.36954994E+04</pdfrwt>
<totfact> 0.31433223E-01</totfact>
</mgrwt>
</event>
<event>
12    2  0.8147979E-008  0.1245634E+04  0.7818608E-02  0.9073825E-01
         -2   -1    0    0    0  501 -0.00000000000E+00  0.00000000000E+00  0.94522554847E+03  0.94522554847E+03  0.00000000000E+00 0.  1.
          2   -1    0    0  501    0  0.00000000000E+00 -0.00000000000E+00 -0.41037900511E+03  0.41037900511E+03  0.00000000000E+00 0. -1.
         23    2    1    2    0    0  0.16431393967E+03  0.88568671605E+02 -0.10755378912E+03  0.23395126826E+03  0.91224437564E+02 0.  0.
        254    2    1    2    0    0 -0.16431393967E+03 -0.88568671605E+02  0.64240033247E+03  0.11216532853E+04  0.90032462198E+03 0.  0.
         23    2    4    4    0    0  0.26014501196E+03  0.19561144423E+03  0.65709715972E+02  0.34588153137E+03  0.96834924536E+02 0.  0.
         23    2    4    4    0    0 -0.42445895163E+03 -0.28418011584E+03  0.57669061650E+03  0.77577175395E+03  0.91246957235E+02 0.  0.
          2    1    3    3  502    0 -0.48087128498E+01 -0.56782104658E+00 -0.25424614750E+02  0.25881599162E+02  0.00000000000E+00 0. -1.
         -2    1    3    3    0  502  0.16912265252E+03  0.89136492652E+02 -0.82129174366E+02  0.20806966910E+03  0.00000000000E+00 0.  1.
         11    1    5    5    0    0  0.43998031167E+02  0.86790735461E+02  0.25239495064E+02  0.10052606935E+03  0.00000000000E+00 0. -1.
        -11    1    5    5    0    0  0.21614698079E+03  0.10882070877E+03  0.40470220908E+02  0.24535546202E+03  0.00000000000E+00 0.  1.
          3    1    6    6  503    0 -0.12580444700E+03 -0.79891059194E+02  0.10994188367E+03  0.18519329904E+03  0.00000000000E+00 0. -1.
         -3    1    6    6    0  503 -0.29865450463E+03 -0.20428905665E+03  0.46674873283E+03  0.59057845491E+03  0.00000000000E+00 0.  1.
<mgrwt>
<rscale>  0 0.12456335E+04</rscale>
<asrwt>0</asrwt>
<pdfrwt beam="1">  1        2 0.63135232E-01 0.12456335E+04</pdfrwt>
<pdfrwt beam="2">  1       -2 0.14541931E+00 0.12456335E+04</pdfrwt>
<totfact> 0.24689771E+01</totfact>
</mgrwt>
</event>
<event>
12    2  0.8147979E-008  0.1864863E+04  0.7818608E-02  0.8672547E-01
          1   -1    0    0  501    0  0.00000000000E+00  0.00000000000E+00  0.16782106688E+04  0.16782106688E+04  0.00000000000E+00 0. -1.
         -1   -1    0    0    0  501 -0.00000000000E+00 -0.00000000000E+00 -0.51806858551E+03  0.51806858551E+03  0.00000000000E+00 0.  1.
         23    2    1    2    0    0 -0.42810130041E+03  0.17686937115E+02 -0.22239315427E+03  0.49139568889E+03  0.91801181034E+02 0.  0.
        254    2    1    2    0    0  0.42810130041E+03 -0.17686937115E+02  0.13825352376E+04  0.17048835654E+04  0.90091105964E+03 0.  0.
         23    2    4    4    0    0  0.20524387941E+03 -0.16137777660E+03 -0.16743235006E+02  0.27767123899E+03  0.93022278111E+02 0.  0.
         23    2    4    4    0    0  0.22285742100E+03  0.14369083949E+03  0.13992784726E+04  0.14272123264E+04  0.92963936436E+02 0.  0.
          4    1    3    3  502    0 -0.24107645241E+03  0.41612786349E+02 -0.16197470232E+03  0.29340293810E+03  0.00000000000E+00 0. -1.
         -4    1    3    3    0  502 -0.18702484800E+03 -0.23925849234E+02 -0.60418451959E+02  0.19799275080E+03  0.00000000000E+00 0.  1.
         11    1    5    5    0    0  0.33747020947E+02 -0.59463469826E+02 -0.35963768462E+02  0.77253856270E+02  0.00000000000E+00 0. -1.
        -11    1    5    5    0    0  0.17149685846E+03 -0.10191430678E+03  0.19220533456E+02  0.20041738272E+03  0.00000000000E+00 0.  1.
          3    1    6    6  503    0  0.18305843609E+03  0.85759635884E+02  0.11722694090E+04  0.11895716345E+04  0.00000000000E+00 0. -1.
         -3    1    6    6    0  503  0.39798984905E+02  0.57931203605E+02  0.22700906354E+03  0.23764069197E+03  0.00000000000E+00 0.  1.
<mgrwt>
<rscale>  0 0.18648627E+04</rscale>
<asrwt>0</asrwt>
<pdfrwt beam="1">  1        1 0.25818625E+00 0.18648627E+04</pdfrwt>
<pdfrwt beam="2">  1       -1 0.79702860E-01 0.18648627E+04</pdfrwt>
<totfact> 0.72767576E+00</totfact>
</mgrwt>
</event>
<event>
12    2  0.8147979E-008  0.1748274E+04  0.7818608E-02  0.8734301E-01
         -1   -1    0    0    0  501 -0.00000000000E+00  0.00000000000E+00  0.59355396449E+03  0.59355396449E+03  0.00000000000E+00 0.  1.
          1   -1    0    0  501    0  0.00000000000E+00 -0.00000000000E+00 -0.12873569710E+04  0.12873569710E+04  0.00000000000E+00 0. -1.
         23    2    1    2    0    0  0.16424248533E+03  0.59258391444E+03 -0.44360715533E+03  0.76332326455E+03  0.87998910731E+02 0.  0.
        254    2    1    2    0    0 -0.16424248533E+03 -0.59258391444E+03 -0.25019585121E+03  0.11175876710E+04  0.89904001508E+03 0.  0.
         23    2    4    4    0    0  0.71725849033E+02  0.16642311022E+03 -0.24431590051E+03  0.31738283967E+03  0.90555831639E+02 0.  0.
         23    2    4    4    0    0 -0.23596833437E+03 -0.75900702466E+03 -0.58799507054E+01  0.80020483131E+03  0.92306445725E+02 0.  0.
          3    1    3    3  502    0  0.20600771866E+02  0.22908566096E+03 -0.17638442379E+03  0.28985530324E+03  0.00000000000E+00 0. -1.
         -3    1    3    3    0  502  0.14364171347E+03  0.36349825349E+03 -0.26722273154E+03  0.47346796131E+03  0.00000000000E+00 0.  1.
         11    1    5    5    0    0  0.83719549187E+01 -0.10386286537E+02 -0.27257354632E+02  0.30346794867E+02  0.00000000000E+00 0. -1.
        -11    1    5    5    0    0  0.63353894115E+02  0.17680939675E+03 -0.21705854587E+03  0.28703604480E+03  0.00000000000E+00 0.  1.
          2    1    6    6  503    0 -0.84644102483E+02 -0.16898133324E+03  0.23052873886E+02  0.19039629740E+03  0.00000000000E+00 0. -1.
         -2    1    6    6    0  503 -0.15132423188E+03 -0.59002569142E+03 -0.28932824591E+02  0.60980853391E+03  0.00000000000E+00 0.  1.
<mgrwt>
<rscale>  0 0.17482744E+04</rscale>
<asrwt>0</asrwt>
<pdfrwt beam="1">  1        1 0.19805492E+00 0.17482744E+04</pdfrwt>
<pdfrwt beam="2">  1       -1 0.91315995E-01 0.17482744E+04</pdfrwt>
<totfact> 0.10240014E+01</totfact>
</mgrwt>
</event>
<event>
12    2  0.8147979E-008  0.3250222E+04  0.7818608E-02  0.8175678E-01
          2   -1    0    0  501    0  0.00000000000E+00  0.00000000000E+00  0.23711650651E+04  0.23711650651E+04  0.00000000000E+00 0. -1.
         -2   -1    0    0    0  501 -0.00000000000E+00 -0.00000000000E+00 -0.11137922231E+04  0.11137922231E+04  0.00000000000E+00 0.  1.
         23    2    1    2    0    0 -0.63308493006E+03 -0.77678626388E+02 -0.87345013701E+03  0.10855019928E+04  0.92568551828E+02 0.  0.
        254    2    1    2    0    0  0.63308493006E+03  0.77678626388E+02  0.21308229790E+04  0.23994552955E+04  0.90008257938E+03 0.  0.
         23    2    4    4    0    0 -0.20759037176E+03  0.17315071948E+02  0.70155079301E+03  0.73763327180E+03  0.92389146158E+02 0.  0.
         23    2    4    4    0    0  0.84067530183E+03  0.60363554440E+02  0.14292721860E+04  0.16618220237E+04  0.91949633384E+02 0.  0.
          2    1    3    3  502    0 -0.72633821141E+02  0.17027667523E+02 -0.12681948691E+03  0.14713529725E+03  0.00000000000E+00 0. -1.
         -2    1    3    3    0  502 -0.56045110892E+03 -0.94706293911E+02 -0.74663065010E+03  0.93836669552E+03  0.00000000000E+00 0.  1.
         11    1    5    5    0    0 -0.54662193044E+02  0.41551747255E+01  0.77151910643E+02  0.94644799864E+02  0.00000000000E+00 0. -1.
        -11    1    5    5    0    0 -0.15292817872E+03  0.13159897223E+02  0.62439888237E+03  0.64298847194E+03  0.00000000000E+00 0.  1.
          4    1    6    6  503    0  0.13025387882E+03  0.43131047367E+02  0.23041983154E+03  0.26817840883E+03  0.00000000000E+00 0. -1.
         -4    1    6    6    0  503  0.71042142300E+03  0.17232507073E+02  0.11988523544E+04  0.13936436149E+04  0.00000000000E+00 0.  1.
<mgrwt>
<rscale>  0 0.32502217E+04</rscale>
<asrwt>0</asrwt>
<pdfrwt beam="1">  1        2 0.36479463E+00 0.32502217E+04</pdfrwt>
<pdfrwt beam="2">  1       -2 0.17135265E+00 0.32502217E+04</pdfrwt>
<totfact> 0.72187113E-01</totfact>
</mgrwt>
</event>
<event>
12    2  0.8147979E-008  0.3143699E+04  0.7818608E-02  0.8203846E-01
          2   -1    0    0  501    0  0.00000000000E+00  0.00000000000E+00  0.36390427875E+04  0.36390427875E+04  0.00000000000E+00 0. -1.
         -2   -1    0    0    0  501 -0.00000000000E+00 -0.00000000000E+00 -0.67894534017E+03  0.67894534017E+03  0.00000000000E+00 0.  1.
         23    2    1    2    0    0 -0.14140872581E+04  0.44330586685E+02  0.97994215037E+03  0.17234285692E+04  0.91167103533E+02 0.  0.
        254    2    1    2    0    0  0.14140872581E+04 -0.44330586685E+02  0.19801552969E+04  0.25945595584E+04  0.89950893712E+03 0.  0.
         23    2    4    4    0    0  0.12639590094E+04  0.12959451974E+03  0.11086536426E+04  0.16887578797E+04  0.91668750168E+02 0.  0.
         23    2    4    4    0    0  0.15012824865E+03 -0.17392510642E+03  0.87150165431E+03  0.90580167878E+03  0.90405277143E+02 0.  0.
          1    1    3    3  502    0 -0.10996576504E+04  0.74482899573E+01  0.72787968765E+03  0.13187536786E+04  0.00000000000E+00 0. -1.
         -1    1    3    3    0  502 -0.31442960771E+03  0.36882296728E+02  0.25206246272E+03  0.40467489066E+03  0.00000000000E+00 0.  1.
         11    1    5    5    0    0  0.42689088127E+03  0.24618354591E+02  0.42524844921E+03  0.60305732021E+03  0.00000000000E+00 0. -1.
        -11    1    5    5    0    0  0.83706812815E+03  0.10497616515E+03  0.68340519342E+03  0.10857005595E+04  0.00000000000E+00 0.  1.
          1    1    6    6  503    0  0.25343668937E+02 -0.22775849103E+02  0.29349939797E+03  0.29547070492E+03  0.00000000000E+00 0. -1.
         -1    1    6    6    0  503  0.12478457971E+03 -0.15114925732E+03  0.57800225634E+03  0.61033097386E+03  0.00000000000E+00 0.  1.
<mgrwt>
<rscale>  0 0.31436992E+04</rscale>
<asrwt>0</asrwt>
<pdfrwt beam="1">  1        2 0.55985273E+00 0.31436992E+04</pdfrwt>
<pdfrwt beam="2">  1       -2 0.10445313E+00 0.31436992E+04</pdfrwt>
<totfact> 0.40687985E-01</totfact>
</mgrwt>
</event>
<event>
12    2  0.8147979E-008  0.2670260E+04  0.7818608E-02  0.8344720E-01
         -2   -1    0    0    0  501 -0.00000000000E+00  0.00000000000E+00  0.91668877348E+03  0.91668877348E+03  0.00000000000E+00 0.  1.
          2   -1    0    0  501    0  0.00000000000E+00 -0.00000000000E+00 -0.19445768701E+04  0.19445768701E+04  0.00000000000E+00 0. -1.
         23    2    1    2    0    0  0.11656919650E+04 -0.77284206452E+01 -0.66590857926E+03  0.13456682461E+04  0.92148287399E+02 0.  0.
        254    2    1    2    0    0 -0.11656919650E+04  0.77284206452E+01 -0.36197951738E+03  0.15155973975E+04  0.89839235001E+03 0.  0.
         23    2    4    4    0    0 -0.34282003995E+03 -0.79681997700E+02  0.28476776890E+03  0.46134841151E+03  0.88740487045E+02 0.  0.
         23    2    4    4    0    0 -0.82287192505E+03  0.87410418345E+02 -0.64674728628E+03  0.10542489860E+04  0.91651982483E+02 0.  0.
          3    1    3    3  502    0  0.75094567368E+03  0.38524908815E+02 -0.43679259909E+03  0.86959263339E+03  0.00000000000E+00 0. -1.
         -3    1    3    3    0  502  0.41474629132E+03 -0.46253329460E+02 -0.22911598018E+03  0.47607561271E+03  0.00000000000E+00 0.  1.
         11    1    5    5    0    0 -0.33842671586E+03 -0.67270735242E+02  0.28594185878E+03  0.44813027172E+03  0.00000000000E+00 0. -1.
        -11    1    5    5    0    0 -0.43933240970E+01 -0.12411262457E+02 -0.11740898790E+01  0.13218139788E+02  0.00000000000E+00 0.  1.
          3    1    6    6  503    0 -0.73144490473E+03  0.62459080576E+02 -0.53886834293E+03  0.91065464168E+03  0.00000000000E+00 0. -1.
         -3    1    6    6    0  503 -0.91427020319E+02  0.24951337769E+02 -0.10787894335E+03  0.14359434432E+03  0.00000000000E+00 0.  1.
<mgrwt>
<rscale>  0 0.26702598E+04</rscale>
<asrwt>0</asrwt>
<pdfrwt beam="1">  1        2 0.29916567E+00 0.26702598E+04</pdfrwt>
<pdfrwt beam="2">  1       -2 0.14102904E+00 0.26702598E+04</pdfrwt>
<totfact> 0.22229388E+00</totfact>
</mgrwt>
</event>
<event>
12    2  0.8147979E-008  0.1046430E+04  0.7818608E-02  0.9259037E-01
         -2   -1    0    0    0  501 -0.00000000000E+00  0.00000000000E+00  0.35679094850E+03  0.35679094850E+03  0.00000000000E+00 0.  1.
          2   -1    0    0  501    0  0.00000000000E+00 -0.00000000000E+00 -0.76726748005E+03  0.76726748005E+03  0.00000000000E+00 0. -1.
         23    2    1    2    0    0 -0.81096246720E+02 -0.41009349033E+01  0.18867935645E+02  0.12381061509E+03  0.91540431034E+02 0.  0.
        254    2    1    2    0    0  0.81096246720E+02  0.41009349033E+01 -0.42934446719E+03  0.10002478135E+04  0.89975863315E+03 0.  0.
         23    2    4    4    0    0 -0.67386048579E+02  0.18092602969E+03 -0.63984520177E+03  0.67493864332E+03  0.94155096769E+02 0.  0.
         23    2    4    4    0    0  0.14848229530E+03 -0.17682509479E+03  0.21050073459E+03  0.32530917014E+03  0.90561530200E+02 0.  0.
          1    1    3    3  502    0 -0.23325598187E+02  0.41508801350E+02 -0.81008327761E+00  0.47620587514E+02  0.00000000000E+00 0. -1.
         -1    1    3    3    0  502 -0.57770648534E+02 -0.45609736253E+02  0.19678018922E+02  0.76190027574E+02  0.00000000000E+00 0.  1.
         11    1    5    5    0    0  0.43758268812E+01  0.94642831251E+02 -0.20483020926E+03  0.22568080998E+03  0.00000000000E+00 0. -1.
        -11    1    5    5    0    0 -0.71761875460E+02  0.86283198443E+02 -0.43501499252E+03  0.44925783334E+03  0.00000000000E+00 0.  1.
          1    1    6    6  503    0  0.32766007648E+02 -0.99295426999E+02  0.12018240673E+03  0.15930161320E+03  0.00000000000E+00 0. -1.
         -1    1    6    6    0  503  0.11571628765E+03 -0.77529667791E+02  0.90318327856E+02  0.16600755694E+03  0.00000000000E+00 0.  1.
<mgrwt>
<rscale>  0 0.10464303E+04</rscale>
<asrwt>0</asrwt>
<pdfrwt beam="1">  1        2 0.11804115E+00 0.10464303E+04</pdfrwt>
<pdfrwt beam="2">  1       -2 0.54890916E-01 0.10464303E+04</pdfrwt>
<totfact> 0.11320547E+02</totfact>
</mgrwt>
</event>
<event>
12    2  0.8147979E-008  0.1986427E+04  0.7818608E-02  0.8612993E-01
         -1   -1    0    0    0  501 -0.00000000000E+00  0.00000000000E+00  0.53349273897E+03  0.53349273897E+03  0.00000000000E+00 0.  1.
          1   -1    0    0  501    0  0.00000000000E+00 -0.00000000000E+00 -0.18490850851E+04  0.18490850851E+04  0.00000000000E+00 0. -1.
         23    2    1    2    0    0 -0.75332984210E+03 -0.65103938592E+02 -0.77814623458E+03  0.10887032977E+04  0.89548501821E+02 0.  0.
        254    2    1    2    0    0  0.75332984210E+03  0.65103938592E+02 -0.53744611159E+03  0.12938745264E+04  0.90195265588E+03 0.  0.
         23    2    4    4    0    0  0.37896117041E+03  0.24510741507E+02  0.21655734768E+03  0.44637532030E+03  0.90230242224E+02 0.  0.
         23    2    4    4    0    0  0.37436867169E+03  0.40593197085E+02 -0.75400345926E+03  0.84749920612E+03  0.89072879187E+02 0.  0.
          3    1    3    3  502    0 -0.36956681452E+03 -0.63014958263E+02 -0.33831741434E+03  0.50498434451E+03  0.00000000000E+00 0. -1.
         -3    1    3    3    0  502 -0.38376302758E+03 -0.20889803293E+01 -0.43982882023E+03  0.58371895317E+03  0.00000000000E+00 0.  1.
         11    1    5    5    0    0  0.12433717960E+03  0.90742504377E+01  0.24463974335E+02  0.12704551268E+03  0.00000000000E+00 0. -1.
        -11    1    5    5    0    0  0.25462399081E+03  0.15436491070E+02  0.19209337334E+03  0.31932980762E+03  0.00000000000E+00 0.  1.
          1    1    6    6  503    0  0.21296887616E+03  0.55849665255E+01 -0.51156584587E+03  0.55415390346E+03  0.00000000000E+00 0. -1.
         -1    1    6    6    0  503  0.16139979554E+03  0.35008230559E+02 -0.24243761339E+03  0.29334530266E+03  0.00000000000E+00 0.  1.
<mgrwt>
<rscale>  0 0.19864274E+04</rscale>
<asrwt>0</asrwt>
<pdfrwt beam="1">  1        1 0.28447462E+00 0.19864274E+04</pdfrwt>
<pdfrwt beam="2">  1       -1 0.82075807E-01 0.19864274E+04</pdfrwt>
<totfact> 0.51735138E+00</totfact>
</mgrwt>
</event>
<event>
12    2  0.8147979E-008  0.4165914E+04  0.7818608E-02  0.7971888E-01
         -2   -1    0    0    0  501 -0.00000000000E+00  0.00000000000E+00  0.18607474979E+04  0.18607474979E+04  0.00000000000E+00 0.  1.
          2   -1    0    0  501    0  0.00000000000E+00 -0.00000000000E+00 -0.23317031605E+04  0.23317031605E+04  0.00000000000E+00 0. -1.
         23    2    1    2    0    0  0.95479107414E+03 -0.16116924890E+04  0.43449442009E+03  0.19252693756E+04  0.93263568379E+02 0.  0.
        254    2    1    2    0    0 -0.95479107414E+03  0.16116924890E+04 -0.90545008272E+03  0.22671812829E+04  0.90060670821E+03 0.  0.
         23    2    4    4    0    0 -0.28856598994E+03 -0.25637653969E+02 -0.81909144963E+02  0.31492432814E+03  0.92415391445E+02 0.  0.
         23    2    4    4    0    0 -0.66622508420E+03  0.16373301429E+04 -0.82354093775E+03  0.19522569547E+04  0.91551522970E+02 0.  0.
          1    1    3    3  502    0  0.34331282795E+03 -0.50650374329E+03  0.11827971025E+03  0.62321732137E+03  0.00000000000E+00 0. -1.
         -1    1    3    3    0  502  0.61147824619E+03 -0.11051887457E+04  0.31621470984E+03  0.13020520542E+04  0.00000000000E+00 0.  1.
         11    1    5    5    0    0 -0.10419199740E+03  0.23739699093E+01 -0.74828752755E+02  0.12830023497E+03  0.00000000000E+00 0. -1.
        -11    1    5    5    0    0 -0.18437399254E+03 -0.28011623878E+02 -0.70803922079E+01  0.18662409317E+03  0.00000000000E+00 0.  1.
          4    1    6    6  503    0 -0.53990247474E+03  0.12285610325E+04 -0.63843956782E+03  0.14860894907E+04  0.00000000000E+00 0.  1.
         -4    1    6    6    0  503 -0.12632260946E+03  0.40876911047E+03 -0.18510136994E+03  0.46616746400E+03  0.00000000000E+00 0. -1.
<mgrwt>
<rscale>  0 0.41659145E+04</rscale>
<asrwt>0</asrwt>
<pdfrwt beam="1">  1        2 0.35872356E+00 0.41659145E+04</pdfrwt>
<pdfrwt beam="2">  1       -2 0.28626884E+00 0.41659145E+04</pdfrwt>
<totfact> 0.13055564E-01</totfact>
</mgrwt>
</event>
<event>
12    2  0.8147979E-008  0.1768082E+04  0.7818608E-02  0.8723460E-01
          2   -1    0    0  501    0  0.00000000000E+00  0.00000000000E+00  0.27747977848E+04  0.27747977848E+04  0.00000000000E+00 0. -1.
         -2   -1    0    0    0  501 -0.00000000000E+00 -0.00000000000E+00 -0.28165225580E+03  0.28165225580E+03  0.00000000000E+00 0.  1.
         23    2    1    2    0    0  0.64377815854E+03 -0.60768772460E+02  0.88464068953E+03  0.10994021276E+04  0.89178065673E+02 0.  0.
        254    2    1    2    0    0 -0.64377815854E+03  0.60768772460E+02  0.16085048394E+04  0.19570479130E+04  0.90807794498E+03 0.  0.
         23    2    4    4    0    0 -0.59615779341E+03 -0.29786813798E+03  0.13325801527E+04  0.14928616889E+04  0.93469870587E+02 0.  0.
         23    2    4    4    0    0 -0.47620365134E+02  0.35863691044E+03  0.27592468678E+03  0.46418622408E+03  0.91903673220E+02 0.  0.
          2    1    3    3  502    0  0.34265794269E+03 -0.38827558651E+01  0.52456872427E+03  0.62657951447E+03  0.00000000000E+00 0. -1.
         -2    1    3    3    0  502  0.30112021585E+03 -0.56886016595E+02  0.36007196527E+03  0.47282261309E+03  0.00000000000E+00 0.  1.
         11    1    5    5    0    0 -0.47331118554E+03 -0.21674037448E+03  0.11098694769E+04  0.12258915630E+04  0.00000000000E+00 0. -1.
        -11    1    5    5    0    0 -0.12284660786E+03 -0.81127763497E+02  0.22271067571E+03  0.26697012595E+03  0.00000000000E+00 0.  1.
          2    1    6    6  503    0 -0.31561793792E+00  0.28732523030E+03  0.22120240837E+03  0.36261052529E+03  0.00000000000E+00 0. -1.
         -2    1    6    6    0  503 -0.47304747196E+02  0.71311680138E+02  0.54722278407E+02  0.10157569879E+03  0.00000000000E+00 0.  1.
<mgrwt>
<rscale>  0 0.17680815E+04</rscale>
<asrwt>0</asrwt>
<pdfrwt beam="1">  1        2 0.42689195E+00 0.17680815E+04</pdfrwt>
<pdfrwt beam="2">  1       -2 0.43331118E-01 0.17680815E+04</pdfrwt>
<totfact> 0.11477994E+01</totfact>
</mgrwt>
</event>
<event>
12    2  0.8147979E-008  0.2680767E+04  0.7818608E-02  0.8341273E-01
         -1   -1    0    0    0  501 -0.00000000000E+00  0.00000000000E+00  0.33752373762E+04  0.33752373762E+04  0.00000000000E+00 0.  1.
          1   -1    0    0  501    0  0.00000000000E+00 -0.00000000000E+00 -0.53229660172E+03  0.53229660172E+03  0.00000000000E+00 0. -1.
         23    2    1    2    0    0 -0.44578996194E+03  0.10135084760E+04  0.63618096561E+03  0.12801282923E+04  0.89856011057E+02 0.  0.
        254    2    1    2    0    0  0.44578996194E+03 -0.10135084760E+04  0.22067598089E+04  0.26274056856E+04  0.89863433136E+03 0.  0.
         23    2    4    4    0    0  0.68435796386E+03 -0.53494799902E+03  0.12031297474E+04  0.14866460197E+04  0.89888900641E+02 0.  0.
         23    2    4    4    0    0 -0.23856800191E+03 -0.47856047699E+03  0.10036300615E+04  0.11407596659E+04  0.90135971512E+02 0.  0.
          3    1    3    3  502    0 -0.25261196835E+03  0.56775551545E+03  0.30549708822E+03  0.69245043345E+03  0.00000000000E+00 0. -1.
         -3    1    3    3    0  502 -0.19317799360E+03  0.44575296055E+03  0.33068387739E+03  0.58767785888E+03  0.00000000000E+00 0.  1.
         11    1    5    5    0    0  0.65481560457E+03 -0.48550876114E+03  0.11356882759E+04  0.13979592602E+04  0.00000000000E+00 0. -1.
        -11    1    5    5    0    0  0.29542359289E+02 -0.49439237880E+02  0.67441471509E+02  0.88686759518E+02  0.00000000000E+00 0.  1.
          3    1    6    6  503    0 -0.23039517088E+03 -0.39705157809E+03  0.87833407547E+03  0.99106136972E+03  0.00000000000E+00 0. -1.
         -3    1    6    6    0  503 -0.81728310330E+01 -0.81508898900E+02  0.12529598600E+03  0.14969829617E+03  0.00000000000E+00 0.  1.
<mgrwt>
<rscale>  0 0.26807666E+04</rscale>
<asrwt>0</asrwt>
<pdfrwt beam="1">  1        1 0.81891787E-01 0.26807666E+04</pdfrwt>
<pdfrwt beam="2">  1       -1 0.51926728E+00 0.26807666E+04</pdfrwt>
<totfact> 0.39819652E-02</totfact>
</mgrwt>
</event>
<event>
12    2  0.8147979E-008  0.1744603E+04  0.7818608E-02  0.8736326E-01
         -1   -1    0    0    0  501 -0.00000000000E+00  0.00000000000E+00  0.35249552237E+03  0.35249552237E+03  0.00000000000E+00 0.  1.
          1   -1    0    0  501    0  0.00000000000E+00 -0.00000000000E+00 -0.21586378763E+04  0.21586378763E+04  0.00000000000E+00 0. -1.
         23    2    1    2    0    0  0.61596096943E+03  0.84623146749E+02 -0.47770859329E+03  0.79044070030E+03  0.10010997839E+03 0.  0.
        254    2    1    2    0    0 -0.61596096943E+03 -0.84623146749E+02 -0.13284337606E+04  0.17206926983E+04  0.89971001603E+03 0.  0.
         23    2    4    4    0    0 -0.26297318337E+03  0.32068037616E+03 -0.99420374516E+03  0.10811365213E+04  0.91783942038E+02 0.  0.
         23    2    4    4    0    0 -0.35298778606E+03 -0.40530352291E+03 -0.33423001545E+03  0.63955617702E+03  0.91929742401E+02 0.  0.
          1    1    3    3  502    0  0.23757048766E+03  0.11824326093E+02 -0.12818974677E+03  0.27020762845E+03  0.00000000000E+00 0. -1.
         -1    1    3    3    0  502  0.37839048176E+03  0.72798820655E+02 -0.34951884652E+03  0.52023307185E+03  0.00000000000E+00 0.  1.
         11    1    5    5    0    0 -0.26126968287E+03  0.27775766913E+03 -0.90801204188E+03  0.98483350783E+03  0.00000000000E+00 0. -1.
        -11    1    5    5    0    0 -0.17035004997E+01  0.42922707031E+02 -0.86191703274E+02  0.96303013484E+02  0.00000000000E+00 0.  1.
          2    1    6    6  503    0 -0.25754403265E+03 -0.25317613723E+03 -0.18348009319E+03  0.40508274441E+03  0.00000000000E+00 0. -1.
         -2    1    6    6    0  503 -0.95443753412E+02 -0.15212738567E+03 -0.15074992226E+03  0.23447343261E+03  0.00000000000E+00 0.  1.
<mgrwt>
<rscale>  0 0.17446033E+04</rscale>
<asrwt>0</asrwt>
<pdfrwt beam="1">  1        1 0.33209814E+00 0.17446033E+04</pdfrwt>
<pdfrwt beam="2">  1       -1 0.54230080E-01 0.17446033E+04</pdfrwt>
<totfact> 0.75711442E+00</totfact>
</mgrwt>
</event>
<event>
12    2  0.8147979E-008  0.2647177E+04  0.7818608E-02  0.8352351E-01
         -2   -1    0    0    0  501 -0.00000000000E+00  0.00000000000E+00  0.10554588946E+04  0.10554588946E+04  0.00000000000E+00 0.  1.
          2   -1    0    0  501    0  0.00000000000E+00 -0.00000000000E+00 -0.16598333679E+04  0.16598333679E+04  0.00000000000E+00 0. -1.
         23    2    1    2    0    0  0.10864761168E+04 -0.41465393617E+03 -0.15833720486E+03  0.11771814567E+04  0.91199081828E+02 0.  0.
        254    2    1    2    0    0 -0.10864761168E+04  0.41465393617E+03 -0.44603726840E+03  0.15381108058E+04  0.90247845789E+03 0.  0.
         23    2    4    4    0    0 -0.94365491688E+03  0.55532977340E+03 -0.61643839493E+03  0.12599358536E+04  0.92554313863E+02 0.  0.
         23    2    4    4    0    0 -0.14282119988E+03 -0.14067583723E+03  0.17040112653E+03  0.27817495219E+03  0.90317073623E+02 0.  0.
          2    1    3    3  502    0  0.63738252116E+03 -0.19703028341E+03 -0.10375742987E+03  0.67516147337E+03  0.00000000000E+00 0. -1.
         -2    1    3    3    0  502  0.44909359560E+03 -0.21762365275E+03 -0.54579774986E+02  0.50201998335E+03  0.00000000000E+00 0.  1.
         11    1    5    5    0    0 -0.11473757496E+03  0.69179977099E+02 -0.42175483210E+02  0.14046121074E+03  0.00000000000E+00 0. -1.
        -11    1    5    5    0    0 -0.82891734192E+03  0.48614979630E+03 -0.57426291172E+03  0.11194746428E+04  0.00000000000E+00 0.  1.
          1    1    6    6  503    0 -0.28649534298E+02 -0.86840148902E+02  0.52466329868E+02  0.10542638686E+03  0.00000000000E+00 0. -1.
         -1    1    6    6    0  503 -0.11417166558E+03 -0.53835688329E+02  0.11793479666E+03  0.17274856533E+03  0.00000000000E+00 0.  1.
<mgrwt>
<rscale>  0 0.26471765E+04</rscale>
<asrwt>0</asrwt>
<pdfrwt beam="1">  1        2 0.25535898E+00 0.26471765E+04</pdfrwt>
<pdfrwt beam="2">  1       -2 0.16237829E+00 0.26471765E+04</pdfrwt>
<totfact> 0.22015241E+00</totfact>
</mgrwt>
</event>
<event>
12    2  0.8147979E-008  0.1494555E+04  0.7818608E-02  0.8888082E-01
          1   -1    0    0  501    0  0.00000000000E+00  0.00000000000E+00  0.59935754627E+03  0.59935754627E+03  0.00000000000E+00 0. -1.
         -1   -1    0    0    0  501 -0.00000000000E+00 -0.00000000000E+00 -0.93170359176E+03  0.93170359176E+03  0.00000000000E+00 0.  1.
         23    2    1    2    0    0 -0.23871817577E+03 -0.14422880664E+03  0.27794430107E+03  0.40583846187E+03  0.98303135912E+02 0.  0.
        254    2    1    2    0    0  0.23871817577E+03  0.14422880664E+03 -0.61029034656E+03  0.11252226762E+04  0.90326266818E+03 0.  0.
         23    2    4    4    0    0 -0.36544810269E+02  0.19464260478E+03  0.17943327447E+03  0.28240938003E+03  0.91309863582E+02 0.  0.
         23    2    4    4    0    0  0.27526298604E+03 -0.50413798142E+02 -0.78972362103E+03  0.84281329612E+03  0.91430804369E+02 0.  0.
          3    1    3    3  502    0 -0.21895025599E+03 -0.15902924292E+03  0.26036739779E+03  0.37552722475E+03  0.00000000000E+00 0. -1.
         -3    1    3    3    0  502 -0.19767919785E+02  0.14800436281E+02  0.17576903284E+02  0.30311237121E+02  0.00000000000E+00 0.  1.
         11    1    5    5    0    0 -0.12308779180E+02  0.90564425557E+02  0.25262755635E+02  0.94824195454E+02  0.00000000000E+00 0.  1.
        -11    1    5    5    0    0 -0.24236031089E+02  0.10407817923E+03  0.15417051884E+03  0.18758518458E+03  0.00000000000E+00 0. -1.
          2    1    6    6  503    0  0.18263347306E+03 -0.19097559885E+02 -0.62334163418E+03  0.64982651160E+03  0.00000000000E+00 0. -1.
         -2    1    6    6    0  503  0.92629512983E+02 -0.31316238257E+02 -0.16638198685E+03  0.19298678453E+03  0.00000000000E+00 0.  1.
<mgrwt>
<rscale>  0 0.14945549E+04</rscale>
<asrwt>0</asrwt>
<pdfrwt beam="1">  1        1 0.92208854E-01 0.14945549E+04</pdfrwt>
<pdfrwt beam="2">  1       -1 0.14333901E+00 0.14945549E+04</pdfrwt>
<totfact> 0.13079081E+01</totfact>
</mgrwt>
</event>
<event>
12    2  0.8147979E-008  0.1487478E+04  0.7818608E-02  0.8892823E-01
          2   -1    0    0  501    0  0.00000000000E+00  0.00000000000E+00  0.22350806839E+04  0.22350806839E+04  0.00000000000E+00 0. -1.
         -2   -1    0    0    0  501 -0.00000000000E+00 -0.00000000000E+00 -0.24748438293E+03  0.24748438293E+03  0.00000000000E+00 0.  1.
         23    2    1    2    0    0  0.87198210546E+02 -0.16973081785E+03 -0.73925330880E+02  0.22466219910E+03  0.92714997205E+02 0.  0.
        254    2    1    2    0    0 -0.87198210546E+02  0.16973081785E+03  0.20615216318E+04  0.22579028677E+04  0.90102266514E+03 0.  0.
         23    2    4    4    0    0  0.14444317308E+03 -0.19232693966E+03  0.15204979105E+03  0.29870995630E+03  0.90857124445E+02 0.  0.
         23    2    4    4    0    0 -0.23164138363E+03  0.36205775751E+03  0.19094718408E+04  0.19591929114E+04  0.87238770391E+02 0.  0.
          3    1    3    3  502    0 -0.90814577382E+01 -0.77495541801E+02 -0.17986190702E+02  0.80072060855E+02  0.00000000000E+00 0. -1.
         -3    1    3    3    0  502  0.96279668284E+02 -0.92235276050E+02 -0.55939140178E+02  0.14459013824E+03  0.00000000000E+00 0.  1.
         11    1    5    5    0    0  0.13676225424E+03 -0.19893498445E+03  0.15644009643E+03  0.28766742255E+03  0.00000000000E+00 0. -1.
        -11    1    5    5    0    0  0.76809188435E+01  0.66080447908E+01 -0.43903053820E+01  0.11042533748E+02  0.00000000000E+00 0.  1.
          2    1    6    6  503    0 -0.15545342039E+03  0.28183360670E+03  0.12656969936E+04  0.13059804085E+04  0.00000000000E+00 0. -1.
         -2    1    6    6    0  503 -0.76187963239E+02  0.80224150817E+02  0.64377484719E+03  0.65321250293E+03  0.00000000000E+00 0.  1.
<mgrwt>
<rscale>  0 0.14874778E+04</rscale>
<asrwt>0</asrwt>
<pdfrwt beam="1">  1        2 0.34385855E+00 0.14874778E+04</pdfrwt>
<pdfrwt beam="2">  1       -2 0.38074522E-01 0.14874778E+04</pdfrwt>
<totfact> 0.31113744E+01</totfact>
</mgrwt>
</event>
<event>
12    2  0.8147979E-008  0.1616529E+04  0.7818608E-02  0.8810457E-01
          1   -1    0    0  501    0  0.00000000000E+00  0.00000000000E+00  0.48760014758E+03  0.48760014758E+03  0.00000000000E+00 0. -1.
         -1   -1    0    0    0  501 -0.00000000000E+00 -0.00000000000E+00 -0.13398101890E+04  0.13398101890E+04  0.00000000000E+00 0.  1.
         23    2    1    2    0    0  0.14528614801E+03  0.53230144378E+03 -0.33361843687E+03  0.65127982464E+03  0.91712903732E+02 0.  0.
        254    2    1    2    0    0 -0.14528614801E+03 -0.53230144378E+03 -0.51859160460E+03  0.11761305120E+04  0.89994046304E+03 0.  0.
         23    2    4    4    0    0 -0.15749087242E+03 -0.56705311426E+03  0.50460882915E+02  0.59869925192E+03  0.97682568859E+02 0.  0.
         23    2    4    4    0    0  0.12204724405E+02  0.34751670484E+02 -0.56905248751E+03  0.57743126007E+03  0.90826717775E+02 0.  0.
          3    1    3    3  502    0  0.23567408331E+02  0.25709855001E+03 -0.14441207816E+03  0.29582078269E+03  0.00000000000E+00 0. -1.
         -3    1    3    3    0  502  0.12171873968E+03  0.27520289376E+03 -0.18920635870E+03  0.35545904194E+03  0.00000000000E+00 0.  1.
         11    1    5    5    0    0 -0.72578695331E+01 -0.17803164094E+03 -0.34073356233E+01  0.17821209774E+03  0.00000000000E+00 0. -1.
        -11    1    5    5    0    0 -0.15023300288E+03 -0.38902147332E+03  0.53868218539E+02  0.42048715417E+03  0.00000000000E+00 0.  1.
          4    1    6    6  503    0 -0.48332237948E+01  0.58024258438E+02 -0.48677139331E+03  0.49024133237E+03  0.00000000000E+00 0. -1.
         -4    1    6    6    0  503  0.17037948200E+02 -0.23272587954E+02 -0.82281094200E+02  0.87189927696E+02  0.00000000000E+00 0.  1.
<mgrwt>
<rscale>  0 0.16165292E+04</rscale>
<asrwt>0</asrwt>
<pdfrwt beam="1">  1        1 0.75015409E-01 0.16165292E+04</pdfrwt>
<pdfrwt beam="2">  1       -1 0.20612464E+00 0.16165292E+04</pdfrwt>
<totfact> 0.60056680E+00</totfact>
</mgrwt>
</event>
<event>
12    2  0.8147979E-008  0.2338635E+04  0.7818608E-02  0.8462842E-01
         -2   -1    0    0    0  501 -0.00000000000E+00  0.00000000000E+00  0.45453986379E+03  0.45453986379E+03  0.00000000000E+00 0. -1.
          2   -1    0    0  501    0  0.00000000000E+00 -0.00000000000E+00 -0.30081055706E+04  0.30081055706E+04  0.00000000000E+00 0.  1.
         23    2    1    2    0    0 -0.81802090018E+03 -0.46774816029E+03 -0.62340287927E+03  0.11335975336E+04  0.92009150656E+02 0.  0.
        254    2    1    2    0    0  0.81802090018E+03  0.46774816029E+03 -0.19301628275E+04  0.23290479007E+04  0.90054930380E+03 0.  0.
         23    2    4    4    0    0  0.42879917027E+03  0.64332030821E+03 -0.16076140261E+04  0.17861519857E+04  0.90478238965E+02 0.  0.
         23    2    4    4    0    0  0.38922172991E+03 -0.17557214791E+03 -0.32254880148E+03  0.54289591508E+03  0.91537484809E+02 0.  0.
          3    1    3    3  502    0 -0.27735745340E+03 -0.11665945973E+03 -0.17163092605E+03  0.34640115658E+03  0.00000000000E+00 0. -1.
         -3    1    3    3    0  502 -0.54066344678E+03 -0.35108870056E+03 -0.45177195321E+03  0.78719637706E+03  0.00000000000E+00 0.  1.
         11    1    5    5    0    0  0.35544971720E+03  0.52477657587E+03 -0.13904057020E+04  0.15280585630E+04  0.00000000000E+00 0. -1.
        -11    1    5    5    0    0  0.73349453074E+02  0.11854373234E+03 -0.21720832410E+03  0.25809342262E+03  0.00000000000E+00 0.  1.
          2    1    6    6  503    0  0.28638336554E+03 -0.84052167815E+02 -0.23338342117E+03  0.37887731557E+03  0.00000000000E+00 0. -1.
         -2    1    6    6    0  503  0.10283836437E+03 -0.91519980098E+02 -0.89165380307E+02  0.16401859952E+03  0.00000000000E+00 0.  1.
<mgrwt>
<rscale>  0 0.23386354E+04</rscale>
<asrwt>0</asrwt>
<pdfrwt beam="1">  1        2 0.46278545E+00 0.23386354E+04</pdfrwt>
<pdfrwt beam="2">  1       -2 0.69929213E-01 0.23386354E+04</pdfrwt>
<totfact> 0.28994864E+00</totfact>
</mgrwt>
</event>
<event>
12    2  0.8147979E-008  0.2277612E+04  0.7818608E-02  0.8486801E-01
          1   -1    0    0  501    0  0.00000000000E+00  0.00000000000E+00  0.11445103138E+04  0.11445103138E+04  0.00000000000E+00 0. -1.
         -1   -1    0    0    0  501 -0.00000000000E+00 -0.00000000000E+00 -0.11331301481E+04  0.11331301481E+04  0.00000000000E+00 0.  1.
         23    2    1    2    0    0  0.56861303893E+03 -0.66158318351E+02  0.77339984157E+03  0.96642936861E+03  0.90225819099E+02 0.  0.
        254    2    1    2    0    0 -0.56861303893E+03  0.66158318351E+02 -0.76201967586E+03  0.13112110932E+04  0.90050143449E+03 0.  0.
         23    2    4    4    0    0 -0.33991951601E+03  0.15982102136E+03 -0.92496085940E+03  0.10022063286E+04  0.88186719639E+02 0.  0.
         23    2    4    4    0    0 -0.22869352293E+03 -0.93662703004E+02  0.16294118354E+03  0.30900476460E+03  0.88660509199E+02 0.  0.
          2    1    3    3  502    0  0.29176691225E+03 -0.76069166230E+02  0.37506897463E+03  0.48123921792E+03  0.00000000000E+00 0. -1.
         -2    1    3    3    0  502  0.27684612669E+03  0.99108478790E+01  0.39833086694E+03  0.48519015069E+03  0.00000000000E+00 0.  1.
         11    1    5    5    0    0 -0.17315934215E+03  0.12100832170E+03 -0.44440419862E+03  0.49205920725E+03  0.00000000000E+00 0. -1.
        -11    1    5    5    0    0 -0.16676017386E+03  0.38812699656E+02 -0.48055666078E+03  0.51014712139E+03  0.00000000000E+00 0.  1.
          4    1    6    6  503    0 -0.20525808200E+03 -0.10236486340E+03  0.16694112966E+03  0.28368783241E+03  0.00000000000E+00 0. -1.
         -4    1    6    6    0  503 -0.23435440927E+02  0.87021603921E+01 -0.39999461166E+01  0.25316932197E+02  0.00000000000E+00 0.  1.
<mgrwt>
<rscale>  0 0.22776120E+04</rscale>
<asrwt>0</asrwt>
<pdfrwt beam="1">  1        1 0.17607851E+00 0.22776120E+04</pdfrwt>
<pdfrwt beam="2">  1       -1 0.17432771E+00 0.22776120E+04</pdfrwt>
<totfact> 0.24327007E+00</totfact>
</mgrwt>
</event>
<event>
12    2  0.8147979E-008  0.3965940E+04  0.7818608E-02  0.8011453E-01
         -2   -1    0    0    0  501 -0.00000000000E+00  0.00000000000E+00  0.18262533305E+04  0.18262533305E+04  0.00000000000E+00 0.  1.
          2   -1    0    0  501    0  0.00000000000E+00 -0.00000000000E+00 -0.21531353500E+04  0.21531353500E+04  0.00000000000E+00 0. -1.
         23    2    1    2    0    0  0.14902917845E+04  0.21790743451E+03 -0.12836710529E+04  0.19809699000E+04  0.89314722783E+02 0.  0.
        254    2    1    2    0    0 -0.14902917845E+04 -0.21790743451E+03  0.95678903336E+03  0.19984187805E+04  0.89987727768E+03 0.  0.
         23    2    4    4    0    0 -0.84735433475E+03 -0.55389992603E+03  0.46368625593E+03  0.11171319585E+04  0.90356914543E+02 0.  0.
         23    2    4    4    0    0 -0.64293744972E+03  0.33599249152E+03  0.49310277743E+03  0.88128682200E+03  0.85185649683E+02 0.  0.
          1    1    3    3  502    0  0.12995655931E+04  0.21412641340E+03 -0.11438464881E+04  0.17444499534E+04  0.00000000000E+00 0. -1.
         -1    1    3    3    0  502  0.19072619138E+03  0.37810211089E+01 -0.13982456482E+03  0.23651994657E+03  0.00000000000E+00 0.  1.
         11    1    5    5    0    0 -0.83093903673E+03 -0.55507804016E+03  0.45096296486E+03  0.10963297447E+04  0.00000000000E+00 0.  1.
        -11    1    5    5    0    0 -0.16415298023E+02  0.11781141295E+01  0.12723291068E+02  0.20802213769E+02  0.00000000000E+00 0. -1.
          2    1    6    6  503    0 -0.62465583776E+03  0.31814494106E+03  0.45611319406E+03  0.83633149228E+03  0.00000000000E+00 0.  1.
         -2    1    6    6    0  503 -0.18281611960E+02  0.17847550459E+02  0.36989583364E+02  0.44955329725E+02  0.00000000000E+00 0. -1.
<mgrwt>
<rscale>  0 0.39659403E+04</rscale>
<asrwt>0</asrwt>
<pdfrwt beam="1">  1        2 0.33125159E+00 0.39659403E+04</pdfrwt>
<pdfrwt beam="2">  1       -2 0.28096205E+00 0.39659403E+04</pdfrwt>
<totfact> 0.18033690E-01</totfact>
</mgrwt>
</event>
<event>
12    2  0.8147979E-008  0.1447820E+04  0.7818608E-02  0.8919913E-01
          1   -1    0    0  501    0  0.00000000000E+00  0.00000000000E+00  0.52091367036E+03  0.52091367036E+03  0.00000000000E+00 0. -1.
         -1   -1    0    0    0  501 -0.00000000000E+00 -0.00000000000E+00 -0.10060122876E+04  0.10060122876E+04  0.00000000000E+00 0.  1.
         23    2    1    2    0    0 -0.18282668209E+02 -0.31258942189E+03 -0.46784772049E+03  0.57106528998E+03  0.95852351154E+02 0.  0.
        254    2    1    2    0    0  0.18282668209E+02  0.31258942189E+03 -0.17250896768E+02  0.95586066799E+03  0.90295383079E+03 0.  0.
         23    2    4    4    0    0  0.36312467315E+03  0.42220392460E+03 -0.10222752502E+03  0.57351890912E+03  0.91420949669E+02 0.  0.
         23    2    4    4    0    0 -0.34484200495E+03 -0.10961450272E+03  0.84976628250E+02  0.38234175887E+03  0.89626143773E+02 0.  0.
          1    1    3    3  502    0 -0.27482779333E+02 -0.11441391238E+03 -0.10586359613E+03  0.15828122912E+03  0.00000000000E+00 0. -1.
         -1    1    3    3    0  502  0.92001111241E+01 -0.19817550951E+03 -0.36198412436E+03  0.41278406086E+03  0.00000000000E+00 0.  1.
         11    1    5    5    0    0  0.27143176811E+03  0.30606053186E+03 -0.11515017811E+03  0.42497978472E+03  0.00000000000E+00 0. -1.
        -11    1    5    5    0    0  0.91692905045E+02  0.11614339274E+03  0.12922653092E+02  0.14853912440E+03  0.00000000000E+00 0.  1.
          1    1    6    6  503    0 -0.18652952814E+03 -0.63319548062E+02  0.91656892401E+02  0.21726393157E+03  0.00000000000E+00 0. -1.
         -1    1    6    6    0  503 -0.15831247681E+03 -0.46294954655E+02 -0.66802641510E+01  0.16507782731E+03  0.00000000000E+00 0.  1.
<mgrwt>
<rscale>  0 0.14478198E+04</rscale>
<asrwt>0</asrwt>
<pdfrwt beam="1">  1        1 0.80140565E-01 0.14478198E+04</pdfrwt>
<pdfrwt beam="2">  1       -1 0.15477112E+00 0.14478198E+04</pdfrwt>
<totfact> 0.13032295E+01</totfact>
</mgrwt>
</event>
<event>
12    2  0.8147979E-008  0.1402267E+04  0.7818608E-02  0.8952179E-01
         -1   -1    0    0    0  501 -0.00000000000E+00  0.00000000000E+00  0.22889028237E+03  0.22889028237E+03  0.00000000000E+00 0.  1.
          1   -1    0    0  501    0  0.00000000000E+00 -0.00000000000E+00 -0.21477015403E+04  0.21477015403E+04  0.00000000000E+00 0. -1.
         23    2    1    2    0    0 -0.13059211406E+03  0.15395160424E+03  0.26356363217E+02  0.22256612094E+03  0.89920095676E+02 0.  0.
        254    2    1    2    0    0  0.13059211406E+03 -0.15395160424E+03 -0.19451676212E+04  0.21540257018E+04  0.90299183420E+03 0.  0.
         23    2    4    4    0    0 -0.36294511642E+03  0.87597154788E+01 -0.10493985026E+04  0.11142288199E+04  0.91993236523E+02 0.  0.
         23    2    4    4    0    0  0.49353723048E+03 -0.16271131972E+03 -0.89576911856E+03  0.10397968819E+04  0.93387742171E+02 0.  0.
          1    1    3    3  502    0 -0.13169314092E+03  0.16231707129E+03  0.16617981300E+02  0.20968088205E+03  0.00000000000E+00 0. -1.
         -1    1    3    3    0  502  0.11010268574E+01 -0.83654670421E+01  0.97383819168E+01  0.12885238893E+02  0.00000000000E+00 0.  1.
         11    1    5    5    0    0 -0.15494167316E+02  0.45116223969E+01 -0.13625275999E+03  0.13720509671E+03  0.00000000000E+00 0. -1.
        -11    1    5    5    0    0 -0.34745094911E+03  0.42480930818E+01 -0.91314574263E+03  0.97702372316E+03  0.00000000000E+00 0.  1.
          4    1    6    6  503    0  0.99004774044E+02 -0.46306302932E+02 -0.26611513779E+03  0.28768643614E+03  0.00000000000E+00 0. -1.
         -4    1    6    6    0  503  0.39453245644E+03 -0.11640501679E+03 -0.62965398077E+03  0.75211044576E+03  0.00000000000E+00 0.  1.
<mgrwt>
<rscale>  0 0.14022668E+04</rscale>
<asrwt>0</asrwt>
<pdfrwt beam="1">  1        1 0.33041562E+00 0.14022668E+04</pdfrwt>
<pdfrwt beam="2">  1       -1 0.35213890E-01 0.14022668E+04</pdfrwt>
<totfact> 0.17722323E+01</totfact>
</mgrwt>
</event>
<event>
12    2  0.8147979E-008  0.1675245E+04  0.7818608E-02  0.8775610E-01
          2   -1    0    0  501    0  0.00000000000E+00  0.00000000000E+00  0.22205254801E+04  0.22205254801E+04  0.00000000000E+00 0. -1.
         -2   -1    0    0    0  501 -0.00000000000E+00 -0.00000000000E+00 -0.31596658995E+03  0.31596658995E+03  0.00000000000E+00 0.  1.
         23    2    1    2    0    0 -0.55800630662E+03 -0.10752331915E+03  0.92574275549E+03  0.10900209174E+04  0.90629182279E+02 0.  0.
        254    2    1    2    0    0  0.55800630662E+03  0.10752331915E+03  0.97881613462E+03  0.14464711526E+04  0.90070276310E+03 0.  0.
         23    2    4    4    0    0 -0.21550790030E+03  0.13398842677E+03  0.14429608094E+03  0.30475892618E+03  0.87521943021E+02 0.  0.
         23    2    4    4    0    0  0.77351420692E+03 -0.26465107623E+02  0.83452005368E+03  0.11417122264E+04  0.89768912779E+02 0.  0.
          1    1    3    3  502    0 -0.11430424770E+03 -0.30708793178E+02  0.26722492123E+03  0.29226298012E+03  0.00000000000E+00 0. -1.
         -1    1    3    3    0  502 -0.44370205892E+03 -0.76814525972E+02  0.65851783426E+03  0.79775793731E+03  0.00000000000E+00 0.  1.
         11    1    5    5    0    0 -0.14397602819E+03  0.78278855061E+02  0.44264770742E+02  0.16975289621E+03  0.00000000000E+00 0. -1.
        -11    1    5    5    0    0 -0.71531872108E+02  0.55709571712E+02  0.10003131020E+03  0.13500602997E+03  0.00000000000E+00 0.  1.
          1    1    6    6  503    0  0.48695054062E+03 -0.18249223653E+02  0.58748856432E+03  0.76328020829E+03  0.00000000000E+00 0. -1.
         -1    1    6    6    0  503  0.28656366630E+03 -0.82158839703E+01  0.24703148936E+03  0.37843201811E+03  0.00000000000E+00 0.  1.
<mgrwt>
<rscale>  0 0.16752455E+04</rscale>
<asrwt>0</asrwt>
<pdfrwt beam="1">  1        2 0.34161929E+00 0.16752455E+04</pdfrwt>
<pdfrwt beam="2">  1       -2 0.48610246E-01 0.16752455E+04</pdfrwt>
<totfact> 0.19225539E+01</totfact>
</mgrwt>
</event>
<event>
12    2  0.8147979E-008  0.1155295E+04  0.7818608E-02  0.9152912E-01
         -1   -1    0    0    0  501 -0.00000000000E+00  0.00000000000E+00  0.31494143257E+03  0.31494143257E+03  0.00000000000E+00 0.  1.
          1   -1    0    0  501    0  0.00000000000E+00 -0.00000000000E+00 -0.10594882220E+04  0.10594882220E+04  0.00000000000E+00 0. -1.
         23    2    1    2    0    0 -0.11658137892E+03  0.17228786296E+03 -0.15724068934E+03  0.27600712416E+03  0.90448728954E+02 0.  0.
        254    2    1    2    0    0  0.11658137892E+03 -0.17228786296E+03 -0.58730610010E+03  0.10984225304E+04  0.90461553960E+03 0.  0.
         23    2    4    4    0    0 -0.24429066496E+02 -0.22560416367E+03 -0.79222651478E+03  0.82895001301E+03  0.89673047172E+02 0.  0.
         23    2    4    4    0    0  0.14101044542E+03  0.53316300712E+02  0.20492041468E+03  0.26947251741E+03  0.88862183446E+02 0.  0.
          2    1    3    3  502    0 -0.35991262389E+02  0.91317448418E+02 -0.25066170227E+02  0.10130429529E+03  0.00000000000E+00 0. -1.
         -2    1    3    3    0  502 -0.80590116534E+02  0.80970414543E+02 -0.13217451911E+03  0.17470282887E+03  0.00000000000E+00 0.  1.
         11    1    5    5    0    0 -0.16398560059E+02 -0.19018158806E+03 -0.51286322704E+03  0.54723545102E+03  0.00000000000E+00 0.  1.
        -11    1    5    5    0    0 -0.80305064368E+01 -0.35422575617E+02 -0.27936328774E+03  0.28171456198E+03  0.00000000000E+00 0. -1.
          4    1    6    6  503    0  0.24479124543E+02 -0.24400192053E+02  0.33900639645E+02  0.48413327493E+02  0.00000000000E+00 0. -1.
         -4    1    6    6    0  503  0.11653132088E+03  0.77716492765E+02  0.17101977504E+03  0.22105918992E+03  0.00000000000E+00 0.  1.
<mgrwt>
<rscale>  0 0.11552952E+04</rscale>
<asrwt>0</asrwt>
<pdfrwt beam="1">  1        1 0.16299819E+00 0.11552952E+04</pdfrwt>
<pdfrwt beam="2">  1       -1 0.48452528E-01 0.11552952E+04</pdfrwt>
<totfact> 0.57552936E+01</totfact>
</mgrwt>
</event>
<event>
12    2  0.8147979E-008  0.1581175E+04  0.7818608E-02  0.8832197E-01
          2   -1    0    0  501    0  0.00000000000E+00  0.00000000000E+00  0.12206769157E+04  0.12206769157E+04  0.00000000000E+00 0.  1.
         -2   -1    0    0    0  501 -0.00000000000E+00 -0.00000000000E+00 -0.51203435686E+03  0.51203435686E+03  0.00000000000E+00 0. -1.
         23    2    1    2    0    0  0.15331053242E+02  0.47317882905E+03 -0.18127846160E+02  0.48257229067E+03  0.91728683936E+02 0.  0.
        254    2    1    2    0    0 -0.15331053242E+02 -0.47317882905E+03  0.72677040503E+03  0.12501389819E+04  0.90028829107E+03 0.  0.
         23    2    4    4    0    0 -0.39545653819E+03 -0.30514070731E+03  0.14217016781E+03  0.52715090932E+03  0.90437822438E+02 0.  0.
         23    2    4    4    0    0  0.38012548495E+03 -0.16803812175E+03  0.58460023722E+03  0.72298807260E+03  0.90675912435E+02 0.  0.
          2    1    3    3  502    0  0.26823992484E+02  0.23532458163E+03 -0.50726408113E+02  0.24221963953E+03  0.00000000000E+00 0. -1.
         -2    1    3    3    0  502 -0.11492939242E+02  0.23785424742E+03  0.32598561953E+02  0.24035265114E+03  0.00000000000E+00 0.  1.
         11    1    5    5    0    0 -0.26432122764E+03 -0.16794303178E+03  0.53613299211E+02  0.31771836452E+03  0.00000000000E+00 0. -1.
        -11    1    5    5    0    0 -0.13113531056E+03 -0.13719767552E+03  0.88556868600E+02  0.20943254480E+03  0.00000000000E+00 0.  1.
          4    1    6    6  503    0  0.77715579861E+02 -0.63115242028E+02  0.19110580354E+03  0.21574214534E+03  0.00000000000E+00 0. -1.
         -4    1    6    6    0  503  0.30240990509E+03 -0.10492287972E+03  0.39349443368E+03  0.50724592726E+03  0.00000000000E+00 0.  1.
<mgrwt>
<rscale>  0 0.15811749E+04</rscale>
<asrwt>0</asrwt>
<pdfrwt beam="1">  1        2 0.18779645E+00 0.15811749E+04</pdfrwt>
<pdfrwt beam="2">  1       -2 0.78774517E-01 0.15811749E+04</pdfrwt>
<totfact> 0.25303854E+01</totfact>
</mgrwt>
</event>
<event>
12    2  0.8147979E-008  0.2502781E+04  0.7818608E-02  0.8401996E-01
         -2   -1    0    0    0  501 -0.00000000000E+00  0.00000000000E+00  0.25607357402E+04  0.25607357402E+04  0.00000000000E+00 0.  1.
          2   -1    0    0  501    0  0.00000000000E+00 -0.00000000000E+00 -0.61153438590E+03  0.61153438590E+03  0.00000000000E+00 0. -1.
         23    2    1    2    0    0  0.45537933337E+02  0.65096819051E+02 -0.52195704553E+03  0.53606701744E+03  0.92829901340E+02 0.  0.
        254    2    1    2    0    0 -0.45537933337E+02 -0.65096819051E+02  0.24711583998E+04  0.26362031086E+04  0.91467573151E+03 0.  0.
         23    2    4    4    0    0 -0.21339545527E+03  0.11147649410E+03  0.23215757865E+04  0.23358923831E+04  0.93351293064E+02 0.  0.
         23    2    4    4    0    0  0.16785752193E+03 -0.17657331315E+03  0.14958261335E+03  0.30031072557E+03  0.91963531308E+02 0.  0.
          2    1    3    3  502    0  0.23471194519E+01 -0.13024949231E+02 -0.10542939309E+02  0.16920751800E+02  0.00000000000E+00 0.  1.
         -2    1    3    3    0  502  0.43190813886E+02  0.78121768282E+02 -0.51141410623E+03  0.51914626564E+03  0.00000000000E+00 0. -1.
         11    1    5    5    0    0 -0.17844823143E+03  0.80134636301E+02  0.14610265280E+04  0.14740637187E+04  0.00000000000E+00 0. -1.
        -11    1    5    5    0    0 -0.34947223843E+02  0.31341857795E+02  0.86054925844E+03  0.86182866436E+03  0.00000000000E+00 0.  1.
          1    1    6    6  503    0  0.12945796754E+03 -0.71095761765E+02  0.93802358689E+02  0.17496529712E+03  0.00000000000E+00 0. -1.
         -1    1    6    6    0  503  0.38399554391E+02 -0.10547755138E+03  0.55780254657E+02  0.12534542845E+03  0.00000000000E+00 0.  1.
<mgrwt>
<rscale>  0 0.25027808E+04</rscale>
<asrwt>0</asrwt>
<pdfrwt beam="1">  1        2 0.94082215E-01 0.25027808E+04</pdfrwt>
<pdfrwt beam="2">  1       -2 0.39395934E+00 0.25027808E+04</pdfrwt>
<totfact> 0.35137103E-01</totfact>
</mgrwt>
</event>
<event>
12    2  0.8147979E-008  0.1980080E+04  0.7818608E-02  0.8615991E-01
         -2   -1    0    0    0  501 -0.00000000000E+00  0.00000000000E+00  0.19257866342E+04  0.19257866342E+04  0.00000000000E+00 0.  1.
          2   -1    0    0  501    0  0.00000000000E+00 -0.00000000000E+00 -0.50897619380E+03  0.50897619380E+03  0.00000000000E+00 0. -1.
         23    2    1    2    0    0 -0.31790964972E+03 -0.46238876523E+03 -0.10577249617E+03  0.57817350353E+03  0.90702059706E+02 0.  0.
        254    2    1    2    0    0  0.31790964972E+03  0.46238876523E+03  0.15225829366E+04  0.18565893245E+04  0.90210598347E+03 0.  0.
         23    2    4    4    0    0  0.59482272380E+03  0.19362317543E+03  0.69689552963E+03  0.94065013199E+03  0.88630044483E+02 0.  0.
         23    2    4    4    0    0 -0.27691307408E+03  0.26876558980E+03  0.82568740697E+03  0.91593919250E+03  0.90934687972E+02 0.  0.
          4    1    3    3  502    0 -0.28944497882E+03 -0.44180148785E+03 -0.11759918261E+03  0.54110675304E+03  0.00000000000E+00 0. -1.
         -4    1    3    3    0  502 -0.28464670905E+02 -0.20587277376E+02  0.11826686441E+02  0.37066750487E+02  0.00000000000E+00 0.  1.
         11    1    5    5    0    0  0.11897359649E+03  0.67337975220E+02  0.11687165565E+03  0.17985578518E+03  0.00000000000E+00 0. -1.
        -11    1    5    5    0    0  0.47584912732E+03  0.12628520021E+03  0.58002387398E+03  0.76079434681E+03  0.00000000000E+00 0.  1.
          3    1    6    6  503    0 -0.21194803036E+03  0.15797975509E+03  0.61161420613E+03  0.66629686157E+03  0.00000000000E+00 0. -1.
         -3    1    6    6    0  503 -0.64965043721E+02  0.11078583471E+03  0.21407320084E+03  0.24964233093E+03  0.00000000000E+00 0.  1.
<mgrwt>
<rscale>  0 0.19800804E+04</rscale>
<asrwt>0</asrwt>
<pdfrwt beam="1">  1        2 0.78304031E-01 0.19800804E+04</pdfrwt>
<pdfrwt beam="2">  1       -2 0.29627486E+00 0.19800804E+04</pdfrwt>
<totfact> 0.18818695E+00</totfact>
</mgrwt>
</event>
<event>
12    2  0.8147979E-008  0.3350168E+04  0.7818608E-02  0.8150246E-01
         -2   -1    0    0    0  501 -0.00000000000E+00  0.00000000000E+00  0.78118398093E+03  0.78118398093E+03  0.00000000000E+00 0.  1.
          2   -1    0    0  501    0  0.00000000000E+00 -0.00000000000E+00 -0.35918643745E+04  0.35918643745E+04  0.00000000000E+00 0. -1.
         23    2    1    2    0    0  0.14983108283E+04 -0.28720612087E+03 -0.92868884716E+03  0.17884188297E+04  0.92499954783E+02 0.  0.
        254    2    1    2    0    0 -0.14983108283E+04  0.28720612087E+03 -0.18819915464E+04  0.25846295257E+04  0.90055255848E+03 0.  0.
         23    2    4    4    0    0 -0.94900103597E+03  0.16282753692E+03 -0.49845041311E+03  0.10881956788E+04  0.92742913712E+02 0.  0.
         23    2    4    4    0    0 -0.54930979230E+03  0.12437858394E+03 -0.13835411333E+04  0.14964338469E+04  0.88977022742E+02 0.  0.
          3    1    3    3  502    0  0.78705284422E+03 -0.16281182210E+03 -0.54138084275E+03  0.96904751478E+03  0.00000000000E+00 0. -1.
         -3    1    3    3    0  502  0.71125798405E+03 -0.12439429877E+03 -0.38730800442E+03  0.81937131492E+03  0.00000000000E+00 0.  1.
         11    1    5    5    0    0 -0.17871899643E+03  0.67887741028E+02 -0.94821849773E+02  0.21340198748E+03  0.00000000000E+00 0.  1.
        -11    1    5    5    0    0 -0.77028203954E+03  0.94939795896E+02 -0.40362856334E+03  0.87479369135E+03  0.00000000000E+00 0. -1.
          1    1    6    6  503    0 -0.49444952317E+03  0.83021953049E+02 -0.12063003713E+04  0.13063435848E+04  0.00000000000E+00 0. -1.
         -1    1    6    6    0  503 -0.54860269126E+02  0.41356630895E+02 -0.17724076197E+03  0.19009026211E+03  0.00000000000E+00 0.  1.
<mgrwt>
<rscale>  0 0.33501683E+04</rscale>
<asrwt>0</asrwt>
<pdfrwt beam="1">  1        2 0.55259452E+00 0.33501683E+04</pdfrwt>
<pdfrwt beam="2">  1       -2 0.12018215E+00 0.33501683E+04</pdfrwt>
<totfact> 0.30741292E-01</totfact>
</mgrwt>
</event>
<event>
12    2  0.8147979E-008  0.2412733E+04  0.7818608E-02  0.8434752E-01
         -2   -1    0    0    0  501 -0.00000000000E+00  0.00000000000E+00  0.61466149883E+03  0.61466149883E+03  0.00000000000E+00 0.  1.
          2   -1    0    0  501    0  0.00000000000E+00 -0.00000000000E+00 -0.23676782026E+04  0.23676782026E+04  0.00000000000E+00 0. -1.
         23    2    1    2    0    0  0.91173681601E+03  0.32161911792E+03 -0.12076211448E+04  0.15500845527E+04  0.98541425793E+02 0.  0.
        254    2    1    2    0    0 -0.91173681601E+03 -0.32161911792E+03 -0.54539555898E+03  0.14322551487E+04  0.90509425836E+03 0.  0.
         23    2    4    4    0    0 -0.10620396500E+04 -0.25295052783E+03 -0.32778821252E+03  0.11435723892E+04  0.91654292782E+02 0.  0.
         23    2    4    4    0    0  0.15030283394E+03 -0.68668590097E+02 -0.21760734646E+03  0.28868275954E+03  0.93158259226E+02 0.  0.
          4    1    3    3  502    0  0.59629441953E+03  0.25787804519E+03 -0.82627075389E+03  0.10510906144E+04  0.00000000000E+00 0. -1.
         -4    1    3    3    0  502  0.31544239648E+03  0.63741072735E+02 -0.38135039086E+03  0.49899393830E+03  0.00000000000E+00 0.  1.
         11    1    5    5    0    0 -0.89095512813E+03 -0.17836793904E+03 -0.26149267565E+03  0.94551286688E+03  0.00000000000E+00 0.  1.
        -11    1    5    5    0    0 -0.17108452182E+03 -0.74582588783E+02 -0.66295536869E+02  0.19805952228E+03  0.00000000000E+00 0. -1.
          1    1    6    6  503    0  0.26578787106E+02 -0.15930047415E+02 -0.11614735511E+03  0.12020984333E+03  0.00000000000E+00 0.  1.
         -1    1    6    6    0  503  0.12372404683E+03 -0.52738542682E+02 -0.10145999135E+03  0.16847291621E+03  0.00000000000E+00 0. -1.
<mgrwt>
<rscale>  0 0.24127334E+04</rscale>
<asrwt>0</asrwt>
<pdfrwt beam="1">  1        2 0.36425819E+00 0.24127334E+04</pdfrwt>
<pdfrwt beam="2">  1       -2 0.94563307E-01 0.24127334E+04</pdfrwt>
<totfact> 0.35103147E+00</totfact>
</mgrwt>
</event>
<event>
12    2  0.8147979E-008  0.3165262E+04  0.7818608E-02  0.8198052E-01
          2   -1    0    0  501    0  0.00000000000E+00  0.00000000000E+00  0.18580173143E+04  0.18580173143E+04  0.00000000000E+00 0. -1.
         -2   -1    0    0    0  501 -0.00000000000E+00 -0.00000000000E+00 -0.13480609989E+04  0.13480609989E+04  0.00000000000E+00 0.  1.
         23    2    1    2    0    0 -0.52152160771E+03 -0.12437672469E+04  0.78167249917E+03  0.15617004729E+04  0.94629378820E+02 0.  0.
        254    2    1    2    0    0  0.52152160771E+03  0.12437672469E+04 -0.27171618375E+03  0.16443778403E+04  0.90067033121E+03 0.  0.
         23    2    4    4    0    0 -0.15769246557E+02  0.21028982105E+02 -0.29020043949E+03  0.30534880828E+03  0.91272736423E+02 0.  0.
         23    2    4    4    0    0  0.53729085427E+03  0.12227382648E+04  0.18484255732E+02  0.13390290320E+04  0.94269585351E+02 0.  0.
          2    1    3    3  502    0 -0.10232763495E+03 -0.32859129082E+03  0.17050086049E+03  0.38407515503E+03  0.00000000000E+00 0.  1.
         -2    1    3    3    0  502 -0.41919397276E+03 -0.91517595606E+03  0.61117163868E+03  0.11776253179E+04  0.00000000000E+00 0. -1.
         11    1    5    5    0    0  0.29004007011E+02  0.76412166803E+01 -0.35856243392E+02  0.46747094083E+02  0.00000000000E+00 0. -1.
        -11    1    5    5    0    0 -0.44773253568E+02  0.13387765424E+02 -0.25434419609E+03  0.25860171420E+03  0.00000000000E+00 0.  1.
          1    1    6    6  503    0  0.58834200926E+02  0.20500955336E+03  0.22204029364E+02  0.21443740133E+03  0.00000000000E+00 0. -1.
         -1    1    6    6    0  503  0.47845665334E+03  0.10177287114E+04 -0.37197736320E+01  0.11245916307E+04  0.00000000000E+00 0.  1.
<mgrwt>
<rscale>  0 0.31652619E+04</rscale>
<asrwt>0</asrwt>
<pdfrwt beam="1">  1        2 0.28584882E+00 0.31652619E+04</pdfrwt>
<pdfrwt beam="2">  1       -2 0.20739400E+00 0.31652619E+04</pdfrwt>
<totfact> 0.80542305E-01</totfact>
</mgrwt>
</event>
<event>
12    2  0.8147979E-008  0.1887277E+04  0.7818608E-02  0.8661216E-01
         -2   -1    0    0    0  501 -0.00000000000E+00  0.00000000000E+00  0.81997181036E+03  0.81997181036E+03  0.00000000000E+00 0.  1.
          2   -1    0    0  501    0  0.00000000000E+00 -0.00000000000E+00 -0.10859558717E+04  0.10859558717E+04  0.00000000000E+00 0. -1.
         23    2    1    2    0    0 -0.52080316393E+03  0.46741122635E+03  0.90009315651E+02  0.71079784148E+03  0.86155118697E+02 0.  0.
        254    2    1    2    0    0  0.52080316393E+03 -0.46741122635E+03 -0.35599337700E+03  0.11951298406E+04  0.90105208580E+03 0.  0.
         23    2    4    4    0    0  0.40823278731E+03 -0.22683526872E+02 -0.54779989682E+03  0.68960885995E+03  0.91143303271E+02 0.  0.
         23    2    4    4    0    0  0.11257037662E+03 -0.44472769947E+03  0.19180651982E+03  0.50552098064E+03  0.91142221020E+02 0.  0.
          2    1    3    3  502    0 -0.90858007169E+02  0.70446333894E+02  0.46458102323E+02  0.12400088184E+03  0.00000000000E+00 0.  1.
         -2    1    3    3    0  502 -0.42994515676E+03  0.39696489245E+03  0.43551213327E+02  0.58679695964E+03  0.00000000000E+00 0. -1.
         11    1    5    5    0    0  0.30824695804E+03 -0.63148327254E+01 -0.34353675857E+03  0.46159892628E+03  0.00000000000E+00 0. -1.
        -11    1    5    5    0    0  0.99985829275E+02 -0.16368694146E+02 -0.20426313825E+03  0.22800993367E+03  0.00000000000E+00 0.  1.
          1    1    6    6  503    0  0.84814648465E+02 -0.18851857888E+03  0.11528164255E+03  0.23669101437E+03  0.00000000000E+00 0.  1.
         -1    1    6    6    0  503  0.27755728152E+02 -0.25620912060E+03  0.76524877266E+02  0.26882996627E+03  0.00000000000E+00 0. -1.
<mgrwt>
<rscale>  0 0.18872766E+04</rscale>
<asrwt>0</asrwt>
<pdfrwt beam="1">  1        2 0.16707013E+00 0.18872766E+04</pdfrwt>
<pdfrwt beam="2">  1       -2 0.12614951E+00 0.18872766E+04</pdfrwt>
<totfact> 0.97650605E+00</totfact>
</mgrwt>
</event>
<event>
12    2  0.8147979E-008  0.2082599E+04  0.7818608E-02  0.8568948E-01
          1   -1    0    0  501    0  0.00000000000E+00  0.00000000000E+00  0.13637331791E+04  0.13637331791E+04  0.00000000000E+00 0. -1.
         -1   -1    0    0    0  501 -0.00000000000E+00 -0.00000000000E+00 -0.79510044501E+03  0.79510044501E+03  0.00000000000E+00 0.  1.
         23    2    1    2    0    0 -0.29558868863E+03  0.78366692215E+03  0.33624170611E+03  0.90714261778E+03  0.91338526140E+02 0.  0.
        254    2    1    2    0    0  0.29558868863E+03 -0.78366692215E+03  0.23239102800E+03  0.12516910063E+04  0.90067656112E+03 0.  0.
         23    2    4    4    0    0  0.59332959155E+03 -0.57117684305E+03  0.45215381792E+02  0.83019104085E+03  0.94285435335E+02 0.  0.
         23    2    4    4    0    0 -0.29774090292E+03 -0.21249007910E+03  0.18717564621E+03  0.42149996549E+03  0.93945832196E+02 0.  0.
          4    1    3    3  502    0 -0.27054627928E+03  0.61481693790E+03  0.27418335107E+03  0.72551475958E+03  0.00000000000E+00 0. -1.
         -4    1    3    3    0  502 -0.25042409352E+02  0.16884998424E+03  0.62058355036E+02  0.18162785820E+03  0.00000000000E+00 0.  1.
         11    1    5    5    0    0  0.57226281596E+03 -0.54995139949E+03  0.24965302653E+02  0.79407464301E+03  0.00000000000E+00 0. -1.
        -11    1    5    5    0    0  0.21066775587E+02 -0.21225443553E+02  0.20250079139E+02  0.36116397838E+02  0.00000000000E+00 0.  1.
          4    1    6    6  503    0 -0.18492240553E+03 -0.17615786292E+03  0.99600823463E+02  0.27413174346E+03  0.00000000000E+00 0.  1.
         -4    1    6    6    0  503 -0.11281849740E+03 -0.36332216174E+02  0.87574822744E+02  0.14736822203E+03  0.00000000000E+00 0. -1.
<mgrwt>
<rscale>  0 0.20825992E+04</rscale>
<asrwt>0</asrwt>
<pdfrwt beam="1">  1        1 0.20980510E+00 0.20825992E+04</pdfrwt>
<pdfrwt beam="2">  1       -1 0.12232315E+00 0.20825992E+04</pdfrwt>
<totfact> 0.44324598E+00</totfact>
</mgrwt>
</event>
<event>
12    2  0.8147979E-008  0.1393839E+04  0.7818608E-02  0.8958290E-01
         -1   -1    0    0    0  501 -0.00000000000E+00  0.00000000000E+00  0.11228829426E+03  0.11228829426E+03  0.00000000000E+00 0.  1.
          1   -1    0    0  501    0  0.00000000000E+00 -0.00000000000E+00 -0.43254455309E+04  0.43254455309E+04  0.00000000000E+00 0. -1.
         23    2    1    2    0    0 -0.23069009876E+03  0.62535401781E+02 -0.22259074184E+03  0.33950473367E+03  0.92672691157E+02 0.  0.
        254    2    1    2    0    0  0.23069009876E+03 -0.62535401781E+02 -0.39905664948E+04  0.40982290915E+04  0.90207102755E+03 0.  0.
         23    2    4    4    0    0  0.37055674165E+03 -0.39066231085E+03 -0.19605140898E+04  0.20350976750E+04  0.89876086001E+02 0.  0.
         23    2    4    4    0    0 -0.13986664289E+03  0.32812690907E+03 -0.20300524050E+04  0.20631314164E+04  0.90379909997E+02 0.  0.
          1    1    3    3  502    0 -0.19536721954E+03  0.42375503843E+02 -0.22211694894E+03  0.29883101045E+03  0.00000000000E+00 0. -1.
         -1    1    3    3    0  502 -0.35322879220E+02  0.20159897938E+02 -0.47379290573E+00  0.40673723225E+02  0.00000000000E+00 0.  1.
         11    1    5    5    0    0  0.18261339319E+03 -0.25256633663E+03 -0.10596931117E+04  0.11045754373E+04  0.00000000000E+00 0. -1.
        -11    1    5    5    0    0  0.18794334846E+03 -0.13809597423E+03 -0.90082097807E+03  0.93052223770E+03  0.00000000000E+00 0.  1.
          1    1    6    6  503    0 -0.10648727049E+03  0.31261478980E+03 -0.17789076089E+04  0.18093036855E+04  0.00000000000E+00 0. -1.
         -1    1    6    6    0  503 -0.33379372403E+02  0.15512119268E+02 -0.25114479613E+03  0.25382773090E+03  0.00000000000E+00 0.  1.
<mgrwt>
<rscale>  0 0.13938392E+04</rscale>
<asrwt>0</asrwt>
<pdfrwt beam="1">  1        1 0.66545318E+00 0.13938392E+04</pdfrwt>
<pdfrwt beam="2">  1       -1 0.17275122E-01 0.13938392E+04</pdfrwt>
<totfact> 0.12631829E+00</totfact>
</mgrwt>
</event>
<event>
12    2  0.8147979E-008  0.1684949E+04  0.7818608E-02  0.8769995E-01
          2   -1    0    0  501    0  0.00000000000E+00  0.00000000000E+00  0.29427916122E+04  0.29427916122E+04  0.00000000000E+00 0. -1.
         -2   -1    0    0    0  501 -0.00000000000E+00 -0.00000000000E+00 -0.24118714392E+03  0.24118714392E+03  0.00000000000E+00 0.  1.
         23    2    1    2    0    0  0.70925089176E+02 -0.55228504362E+03  0.13761883441E+04  0.14875134635E+04  0.93556443922E+02 0.  0.
        254    2    1    2    0    0 -0.70925089176E+02  0.55228504362E+03  0.13254161243E+04  0.16964652926E+04  0.90067610656E+03 0.  0.
         23    2    4    4    0    0 -0.55587151208E+02  0.13938857642E+03  0.12555457979E+04  0.12675696994E+04  0.88422766232E+02 0.  0.
         23    2    4    4    0    0 -0.15337937968E+02  0.41289646720E+03  0.69870326396E+02  0.42889559326E+03  0.91382834501E+02 0.  0.
          1    1    3    3  502    0  0.32732634479E+02 -0.30619987708E+03  0.88026652710E+03  0.93257651097E+03  0.00000000000E+00 0. -1.
         -1    1    3    3    0  502  0.38192454696E+02 -0.24608516654E+03  0.49592181697E+03  0.55493695258E+03  0.00000000000E+00 0.  1.
         11    1    5    5    0    0 -0.67436430607E+02  0.66232270938E+02  0.85656094322E+03  0.86176042804E+03  0.00000000000E+00 0. -1.
        -11    1    5    5    0    0  0.11849279399E+02  0.73156305486E+02  0.39898485464E+03  0.40580927132E+03  0.00000000000E+00 0.  1.
          3    1    6    6  503    0 -0.15061091932E+02  0.29961611761E+03  0.91354211064E+02  0.31359567328E+03  0.00000000000E+00 0. -1.
         -3    1    6    6    0  503 -0.27684603569E+00  0.11328034959E+03 -0.21483884668E+02  0.11529991998E+03  0.00000000000E+00 0.  1.
<mgrwt>
<rscale>  0 0.16849493E+04</rscale>
<asrwt>0</asrwt>
<pdfrwt beam="1">  1        2 0.45273715E+00 0.16849493E+04</pdfrwt>
<pdfrwt beam="2">  1       -2 0.37105717E-01 0.16849493E+04</pdfrwt>
<totfact> 0.12384370E+01</totfact>
</mgrwt>
</event>
<event>
12    2  0.8147979E-008  0.3055038E+04  0.7818608E-02  0.8228187E-01
          1   -1    0    0  501    0  0.00000000000E+00  0.00000000000E+00  0.25950463867E+04  0.25950463867E+04  0.00000000000E+00 0. -1.
         -1   -1    0    0    0  501 -0.00000000000E+00 -0.00000000000E+00 -0.89914167195E+03  0.89914167195E+03  0.00000000000E+00 0.  1.
         23    2    1    2    0    0 -0.13057865366E+04  0.22435553729E+03  0.28344391098E+03  0.13579996996E+04  0.91699766740E+02 0.  0.
        254    2    1    2    0    0  0.13057865366E+04 -0.22435553729E+03  0.14124608038E+04  0.21361883590E+04  0.90157711630E+03 0.  0.
         23    2    4    4    0    0 -0.71675889568E+02 -0.15484784822E+03  0.32213783120E+03  0.37566173310E+03  0.90739551382E+02 0.  0.
         23    2    4    4    0    0  0.13774624262E+04 -0.69507689063E+02  0.10903229726E+04  0.17605266259E+04  0.91737460117E+02 0.  0.
          1    1    3    3  502    0 -0.23933185358E+03  0.21945548126E+02  0.82236323518E+02  0.25401605486E+03  0.00000000000E+00 0. -1.
         -1    1    3    3    0  502 -0.10664546830E+04  0.20240998916E+03  0.20120758747E+03  0.11039836448E+04  0.00000000000E+00 0.  1.
         11    1    5    5    0    0 -0.35472796329E+02 -0.44545172835E+02  0.19656709265E+03  0.20464900101E+03  0.00000000000E+00 0.  1.
        -11    1    5    5    0    0 -0.36203093239E+02 -0.11030267539E+03  0.12557073855E+03  0.17101273209E+03  0.00000000000E+00 0. -1.
          3    1    6    6  503    0  0.39394541119E+03  0.10491036067E+02  0.34758808001E+03  0.52547171399E+03  0.00000000000E+00 0. -1.
         -3    1    6    6    0  503  0.98351701500E+03 -0.79998725130E+02  0.74273489256E+03  0.12350549119E+04  0.00000000000E+00 0.  1.
<mgrwt>
<rscale>  0 0.30550380E+04</rscale>
<asrwt>0</asrwt>
<pdfrwt beam="1">  1        1 0.39923790E+00 0.30550380E+04</pdfrwt>
<pdfrwt beam="2">  1       -1 0.13832949E+00 0.30550380E+04</pdfrwt>
<totfact> 0.42592496E-01</totfact>
</mgrwt>
</event>
<event>
12    2  0.8147979E-008  0.1639273E+04  0.7818608E-02  0.8796778E-01
         -1   -1    0    0    0  501 -0.00000000000E+00  0.00000000000E+00  0.79823475752E+03  0.79823475752E+03  0.00000000000E+00 0.  1.
          1   -1    0    0  501    0  0.00000000000E+00 -0.00000000000E+00 -0.84161220218E+03  0.84161220218E+03  0.00000000000E+00 0. -1.
         23    2    1    2    0    0 -0.29490159933E+03 -0.43858183295E+03 -0.23260159558E+03  0.58455683751E+03  0.91006683996E+02 0.  0.
        254    2    1    2    0    0  0.29490159933E+03  0.43858183295E+03  0.18922415092E+03  0.10552901222E+04  0.89359413899E+03 0.  0.
         23    2    4    4    0    0 -0.18033787877E+02 -0.25113955391E+03  0.82835598316E+01  0.27107029984E+03  0.10007096008E+03 0.  0.
         23    2    4    4    0    0  0.31293538720E+03  0.68972138686E+03  0.18094059109E+03  0.78421982235E+03  0.92828251161E+02 0.  0.
          1    1    3    3  502    0 -0.10059894814E+03 -0.22958967852E+03 -0.11790629445E+03  0.27700805606E+03  0.00000000000E+00 0. -1.
         -1    1    3    3    0  502 -0.19430265118E+03 -0.20899215443E+03 -0.11469530113E+03  0.30754878145E+03  0.00000000000E+00 0.  1.
         11    1    5    5    0    0 -0.31340353350E+02 -0.34142653003E+02  0.25655133615E+02  0.52972864591E+02  0.00000000000E+00 0. -1.
        -11    1    5    5    0    0  0.13306565473E+02 -0.21699690091E+03 -0.17371573783E+02  0.21809743525E+03  0.00000000000E+00 0.  1.
          3    1    6    6  503    0  0.24847092486E+02  0.19908505118E+02 -0.37333026126E+01  0.32057200899E+02  0.00000000000E+00 0. -1.
         -3    1    6    6    0  503  0.28808829472E+03  0.66981288174E+03  0.18467389370E+03  0.75216262145E+03  0.00000000000E+00 0.  1.
<mgrwt>
<rscale>  0 0.16392731E+04</rscale>
<asrwt>0</asrwt>
<pdfrwt beam="1">  1        1 0.12947880E+00 0.16392731E+04</pdfrwt>
<pdfrwt beam="2">  1       -1 0.12280535E+00 0.16392731E+04</pdfrwt>
<totfact> 0.11389560E+01</totfact>
</mgrwt>
</event>
<event>
12    2  0.8147979E-008  0.1528046E+04  0.7818608E-02  0.8866014E-01
         -2   -1    0    0    0  501 -0.00000000000E+00  0.00000000000E+00  0.75981865871E+03  0.75981865871E+03  0.00000000000E+00 0.  1.
          2   -1    0    0  501    0  0.00000000000E+00 -0.00000000000E+00 -0.76825091930E+03  0.76825091930E+03  0.00000000000E+00 0. -1.
         23    2    1    2    0    0 -0.11007606806E+03  0.44460946238E+03  0.17670660273E+03  0.49949720000E+03  0.92075591604E+02 0.  0.
        254    2    1    2    0    0  0.11007606806E+03 -0.44460946238E+03 -0.18513886332E+03  0.10285723780E+04  0.90215875725E+03 0.  0.
         23    2    4    4    0    0  0.44775321096E+03 -0.42886891193E+02  0.76938843664E+01  0.46017676453E+03  0.96856777743E+02 0.  0.
         23    2    4    4    0    0 -0.33767714290E+03 -0.40172257118E+03 -0.19283274769E+03  0.56839561348E+03  0.10238275149E+03 0.  0.
          1    1    3    3  502    0 -0.94257154710E+02  0.26191746232E+03  0.68834392220E+02  0.28674612785E+03  0.00000000000E+00 0. -1.
         -1    1    3    3    0  502 -0.15818913349E+02  0.18269200005E+03  0.10787221051E+03  0.21275107216E+03  0.00000000000E+00 0.  1.
         11    1    5    5    0    0  0.33450952091E+03  0.10369512357E+02  0.13003619402E+02  0.33492273808E+03  0.00000000000E+00 0. -1.
        -11    1    5    5    0    0  0.11324369005E+03 -0.53256403551E+02 -0.53097350355E+01  0.12525402644E+03  0.00000000000E+00 0.  1.
          3    1    6    6  503    0 -0.26574173680E+03 -0.37126020152E+03 -0.16450952047E+03  0.48530010327E+03  0.00000000000E+00 0. -1.
         -3    1    6    6    0  503 -0.71935406098E+02 -0.30462369666E+02 -0.28323227223E+02  0.83095510207E+02  0.00000000000E+00 0.  1.
<mgrwt>
<rscale>  0 0.15280463E+04</rscale>
<asrwt>0</asrwt>
<pdfrwt beam="1">  1        2 0.11819245E+00 0.15280463E+04</pdfrwt>
<pdfrwt beam="2">  1       -2 0.11689518E+00 0.15280463E+04</pdfrwt>
<totfact> 0.19849639E+01</totfact>
</mgrwt>
</event>
<event>
12    2  0.8147979E-008  0.1493451E+04  0.7818608E-02  0.8888820E-01
          2   -1    0    0  501    0  0.00000000000E+00  0.00000000000E+00  0.12766825563E+04  0.12766825563E+04  0.00000000000E+00 0. -1.
         -2   -1    0    0    0  501 -0.00000000000E+00 -0.00000000000E+00 -0.43675623033E+03  0.43675623033E+03  0.00000000000E+00 0.  1.
         23    2    1    2    0    0 -0.82122490851E+02 -0.43557323047E+03  0.44038934049E+03  0.63148590113E+03  0.91452334609E+02 0.  0.
        254    2    1    2    0    0  0.82122490851E+02  0.43557323047E+03  0.39953698548E+03  0.10819528855E+04  0.90250988973E+03 0.  0.
         23    2    4    4    0    0  0.80360454940E+02 -0.26889938926E+03  0.10705444428E+03  0.31350342580E+03  0.89772265685E+02 0.  0.
         23    2    4    4    0    0  0.17620359113E+01  0.70447261973E+03  0.29248254120E+03  0.76844945970E+03  0.93186686207E+02 0.  0.
          4    1    3    3  502    0 -0.45125029856E+02 -0.38484390828E+03  0.39957955463E+03  0.55660122398E+03  0.00000000000E+00 0. -1.
         -4    1    3    3    0  502 -0.36997460995E+02 -0.50729322182E+02  0.40809785862E+02  0.74884677146E+02  0.00000000000E+00 0.  1.
         11    1    5    5    0    0  0.80435864743E+02 -0.20993526215E+03  0.11742172075E+03  0.25363478298E+03  0.00000000000E+00 0. -1.
        -11    1    5    5    0    0 -0.75409802888E-01 -0.58964127106E+02 -0.10367276470E+02  0.59868642822E+02  0.00000000000E+00 0.  1.
          1    1    6    6  503    0 -0.96956493567E+00  0.10702540311E+03  0.97464300248E+01  0.10747264705E+03  0.00000000000E+00 0. -1.
         -1    1    6    6    0  503  0.27316008469E+01  0.59744721662E+03  0.28273611118E+03  0.66097681264E+03  0.00000000000E+00 0.  1.
<mgrwt>
<rscale>  0 0.14934511E+04</rscale>
<asrwt>0</asrwt>
<pdfrwt beam="1">  1        2 0.19641270E+00 0.14934511E+04</pdfrwt>
<pdfrwt beam="2">  1       -2 0.67193267E-01 0.14934511E+04</pdfrwt>
<totfact> 0.33511712E+01</totfact>
</mgrwt>
</event>
<event>
12    2  0.8147979E-008  0.2665161E+04  0.7818608E-02  0.8346398E-01
         -1   -1    0    0    0  501 -0.00000000000E+00  0.00000000000E+00  0.82748552091E+03  0.82748552091E+03  0.00000000000E+00 0. -1.
          1   -1    0    0  501    0  0.00000000000E+00 -0.00000000000E+00 -0.21459833892E+04  0.21459833892E+04  0.00000000000E+00 0.  1.
         23    2    1    2    0    0  0.85847643330E+03  0.16792612930E+03  0.29854860416E+03  0.92694046224E+03  0.70045557117E+02 0.  0.
        254    2    1    2    0    0 -0.85847643330E+03 -0.16792612930E+03 -0.16170464725E+04  0.20465284479E+04  0.89903193631E+03 0.  0.
         23    2    4    4    0    0 -0.16360037418E+03  0.34023457644E+03 -0.50136781819E+03  0.63436567613E+03  0.92333485245E+02 0.  0.
         23    2    4    4    0    0 -0.69487605911E+03 -0.50816070574E+03 -0.11156786543E+04  0.14121627718E+04  0.91568520591E+02 0.  0.
          2    1    3    3  502    0  0.10117145896E+03 -0.26892110508E+01  0.31201655749E+02  0.10590769229E+03  0.00000000000E+00 0. -1.
         -2    1    3    3    0  502  0.75730497434E+03  0.17061534035E+03  0.26734694841E+03  0.82103276995E+03  0.00000000000E+00 0.  1.
         11    1    5    5    0    0 -0.86364162756E+02  0.22900410877E+03 -0.38292459586E+03  0.45445890525E+03  0.00000000000E+00 0. -1.
        -11    1    5    5    0    0 -0.77236211428E+02  0.11123046768E+03 -0.11844322232E+03  0.17990677088E+03  0.00000000000E+00 0.  1.
          2    1    6    6  503    0 -0.36258031947E+03 -0.31239593973E+03 -0.57707477174E+03  0.74971394772E+03  0.00000000000E+00 0. -1.
         -2    1    6    6    0  503 -0.33229573964E+03 -0.19576476601E+03 -0.53860388253E+03  0.66244882404E+03  0.00000000000E+00 0.  1.
<mgrwt>
<rscale>  0 0.26651605E+04</rscale>
<asrwt>0</asrwt>
<pdfrwt beam="1">  1        1 0.33015129E+00 0.26651605E+04</pdfrwt>
<pdfrwt beam="2">  1       -1 0.12730547E+00 0.26651605E+04</pdfrwt>
<totfact> 0.11100067E+00</totfact>
</mgrwt>
</event>
<event>
12    2  0.8147979E-008  0.1456878E+04  0.7818608E-02  0.8913646E-01
         -2   -1    0    0    0  501 -0.00000000000E+00  0.00000000000E+00  0.29929362923E+03  0.29929362923E+03  0.00000000000E+00 0.  1.
          2   -1    0    0  501    0  0.00000000000E+00 -0.00000000000E+00 -0.17729189359E+04  0.17729189359E+04  0.00000000000E+00 0. -1.
         23    2    1    2    0    0 -0.59786543678E+02 -0.37773378428E+03 -0.14756481470E+03  0.41994516854E+03  0.91221310260E+02 0.  0.
        254    2    1    2    0    0  0.59786543678E+02  0.37773378428E+03 -0.13260604919E+04  0.16522673966E+04  0.90845686680E+03 0.  0.
         23    2    4    4    0    0 -0.88470094235E+02  0.19163002167E+03  0.63874977645E+02  0.23909738906E+03  0.92404144433E+02 0.  0.
         23    2    4    4    0    0  0.14825663791E+03  0.18610376262E+03 -0.13899354696E+04  0.14131700075E+04  0.92272527467E+02 0.  0.
          4    1    3    3  502    0  0.76239556122E+01 -0.70987392901E+02 -0.61676295463E+02  0.94346701438E+02  0.00000000000E+00 0. -1.
         -4    1    3    3    0  502 -0.67410499291E+02 -0.30674639138E+03 -0.85888519241E+02  0.32559846710E+03  0.00000000000E+00 0.  1.
         11    1    5    5    0    0 -0.22865404385E+02  0.79975959634E+02  0.71054596920E+02  0.10939715070E+03  0.00000000000E+00 0.  1.
        -11    1    5    5    0    0 -0.65604689851E+02  0.11165406203E+03 -0.71796192743E+01  0.12970023837E+03  0.00000000000E+00 0. -1.
          2    1    6    6  503    0 -0.65117632474E+00 -0.93649617254E+01 -0.44540843813E+02  0.45519372868E+02  0.00000000000E+00 0. -1.
         -2    1    6    6    0  503  0.14890781424E+03  0.19546872434E+03 -0.13453946258E+04  0.13676506346E+04  0.00000000000E+00 0.  1.
<mgrwt>
<rscale>  0 0.14568780E+04</rscale>
<asrwt>0</asrwt>
<pdfrwt beam="1">  1        2 0.27275676E+00 0.14568780E+04</pdfrwt>
<pdfrwt beam="2">  1       -2 0.46045174E-01 0.14568780E+04</pdfrwt>
<totfact> 0.38721367E+01</totfact>
</mgrwt>
</event>
<event>
12    2  0.8147979E-008  0.1877409E+04  0.7818608E-02  0.8666184E-01
         -1   -1    0    0    0  501 -0.00000000000E+00  0.00000000000E+00  0.26330919576E+03  0.26330919576E+03  0.00000000000E+00 0.  1.
          1   -1    0    0  501    0  0.00000000000E+00 -0.00000000000E+00 -0.33465063381E+04  0.33465063381E+04  0.00000000000E+00 0. -1.
         23    2    1    2    0    0 -0.38465489349E+03 -0.29277193255E+03 -0.16649462866E+03  0.51937849035E+03  0.91426272402E+02 0.  0.
        254    2    1    2    0    0  0.38465489349E+03  0.29277193255E+03 -0.29167025137E+04  0.30904370435E+04  0.89998487487E+03 0.  0.
         23    2    4    4    0    0 -0.20764385296E+03  0.50403899488E+02 -0.16700440361E+04  0.16861309428E+04  0.91290475786E+02 0.  0.
         23    2    4    4    0    0  0.59229874646E+03  0.24236803307E+03 -0.12466584776E+04  0.14043061007E+04  0.91423171427E+02 0.  0.
          1    1    3    3  502    0 -0.81781281788E+02 -0.34017475019E+02 -0.60170392489E+02  0.10707867570E+03  0.00000000000E+00 0. -1.
         -1    1    3    3    0  502 -0.30287361170E+03 -0.25875445754E+03 -0.10632423617E+03  0.41229981465E+03  0.00000000000E+00 0.  1.
         11    1    5    5    0    0 -0.91837488883E+02  0.26342613737E+02 -0.43142838585E+03  0.44188065106E+03  0.00000000000E+00 0.  1.
        -11    1    5    5    0    0 -0.11580636408E+03  0.24061285750E+02 -0.12386156503E+04  0.12442502917E+04  0.00000000000E+00 0. -1.
          2    1    6    6  503    0  0.58356666430E+02  0.48577838889E+01 -0.16166993439E+03  0.17194844072E+03  0.00000000000E+00 0.  1.
         -2    1    6    6    0  503  0.53394208003E+03  0.23751024918E+03 -0.10849885432E+04  0.12323576600E+04  0.00000000000E+00 0. -1.
<mgrwt>
<rscale>  0 0.18774087E+04</rscale>
<asrwt>0</asrwt>
<pdfrwt beam="1">  1        1 0.51484711E+00 0.18774087E+04</pdfrwt>
<pdfrwt beam="2">  1       -1 0.40509108E-01 0.18774087E+04</pdfrwt>
<totfact> 0.18439289E+00</totfact>
</mgrwt>
</event>
<event>
12    2  0.8147979E-008  0.2081923E+04  0.7818608E-02  0.8569249E-01
         -1   -1    0    0    0  501 -0.00000000000E+00  0.00000000000E+00  0.13765044195E+04  0.13765044195E+04  0.00000000000E+00 0.  1.
          1   -1    0    0  501    0  0.00000000000E+00 -0.00000000000E+00 -0.78721172068E+03  0.78721172068E+03  0.00000000000E+00 0. -1.
         23    2    1    2    0    0  0.82659468193E+03  0.16707705175E+03  0.24931387516E+03  0.88406669144E+03  0.90790953021E+02 0.  0.
        254    2    1    2    0    0 -0.82659468193E+03 -0.16707705175E+03  0.33997882361E+03  0.12796494487E+04  0.90041301726E+03 0.  0.
         23    2    4    4    0    0 -0.24169031660E+02 -0.33284862885E+03 -0.79179299328E+02  0.35485089489E+03  0.90980461315E+02 0.  0.
         23    2    4    4    0    0 -0.80242565027E+03  0.16577157711E+03  0.41915812294E+03  0.92479855381E+03  0.90507972712E+02 0.  0.
          1    1    3    3  502    0  0.70821665291E+02  0.16569224659E+02  0.49465363026E+02  0.87960614025E+02  0.00000000000E+00 0. -1.
         -1    1    3    3    0  502  0.75577301664E+03  0.15050782709E+03  0.19984851214E+03  0.79610607741E+03  0.00000000000E+00 0.  1.
         11    1    5    5    0    0 -0.51390093688E+02 -0.29401382589E+03 -0.69158138016E+02  0.30637871923E+03  0.00000000000E+00 0.  1.
        -11    1    5    5    0    0  0.27221062028E+02 -0.38834802969E+02 -0.10021161312E+02  0.48472175664E+02  0.00000000000E+00 0. -1.
          4    1    6    6  503    0 -0.10072083616E+03  0.27546648820E+02  0.21923856074E+02  0.10669657990E+03  0.00000000000E+00 0. -1.
         -4    1    6    6    0  503 -0.70170481410E+03  0.13822492829E+03  0.39723426687E+03  0.81810197391E+03  0.00000000000E+00 0.  1.
<mgrwt>
<rscale>  0 0.20819226E+04</rscale>
<asrwt>0</asrwt>
<pdfrwt beam="1">  1        1 0.12110950E+00 0.20819226E+04</pdfrwt>
<pdfrwt beam="2">  1       -1 0.21176991E+00 0.20819226E+04</pdfrwt>
<totfact> 0.26130752E+00</totfact>
</mgrwt>
</event>
<event>
12    2  0.8147979E-008  0.2402828E+04  0.7818608E-02  0.8438446E-01
          2   -1    0    0  501    0  0.00000000000E+00  0.00000000000E+00  0.20654976205E+04  0.20654976205E+04  0.00000000000E+00 0. -1.
         -2   -1    0    0    0  501 -0.00000000000E+00 -0.00000000000E+00 -0.69881257997E+03  0.69881257997E+03  0.00000000000E+00 0.  1.
         23    2    1    2    0    0 -0.43736554281E+03 -0.89171093594E+03  0.26863181493E+03  0.10327998811E+04  0.89863958358E+02 0.  0.
        254    2    1    2    0    0  0.43736554281E+03  0.89171093594E+03  0.10980532256E+04  0.17315103194E+04  0.89775836873E+03 0.  0.
         23    2    4    4    0    0  0.93699195066E+02  0.17817307165E+03 -0.13829949172E+03  0.26044853242E+03  0.90451677768E+02 0.  0.
         23    2    4    4    0    0  0.34366634775E+03  0.71353786429E+03  0.12363527173E+04  0.14710617870E+04  0.90619518573E+02 0.  0.
          2    1    3    3  502    0 -0.29341648438E+03 -0.53224303406E+03  0.19791717280E+03  0.63917688311E+03  0.00000000000E+00 0. -1.
         -2    1    3    3    0  502 -0.14394905843E+03 -0.35946790188E+03  0.70714642135E+02  0.39362299796E+03  0.00000000000E+00 0.  1.
         11    1    5    5    0    0  0.78659330716E+02  0.17753087235E+03 -0.98156326075E+02  0.21757565419E+03  0.00000000000E+00 0. -1.
        -11    1    5    5    0    0  0.15039864350E+02  0.64219929949E+00 -0.40143165648E+02  0.42872878232E+02  0.00000000000E+00 0.  1.
          2    1    6    6  503    0  0.24216275402E+03  0.42645888131E+03  0.81554176503E+03  0.95163982020E+03  0.00000000000E+00 0. -1.
         -2    1    6    6    0  503  0.10150359372E+03  0.28707898298E+03  0.42081095227E+03  0.51942196677E+03  0.00000000000E+00 0.  1.
<mgrwt>
<rscale>  0 0.24028281E+04</rscale>
<asrwt>0</asrwt>
<pdfrwt beam="1">  1        2 0.31776886E+00 0.24028281E+04</pdfrwt>
<pdfrwt beam="2">  1       -2 0.10750963E+00 0.24028281E+04</pdfrwt>
<totfact> 0.38346184E+00</totfact>
</mgrwt>
</event>
<event>
12    2  0.8147979E-008  0.1474170E+04  0.7818608E-02  0.8901813E-01
          1   -1    0    0  501    0  0.00000000000E+00  0.00000000000E+00  0.15175926010E+04  0.15175926010E+04  0.00000000000E+00 0. -1.
         -1   -1    0    0    0  501 -0.00000000000E+00 -0.00000000000E+00 -0.35799765253E+03  0.35799765253E+03  0.00000000000E+00 0.  1.
         23    2    1    2    0    0 -0.39415459541E+03  0.48176621736E+02  0.89684701368E+02  0.41729393896E+03  0.91717249577E+02 0.  0.
        254    2    1    2    0    0  0.39415459541E+03 -0.48176621736E+02  0.10699102471E+04  0.14582963146E+04  0.90787739936E+03 0.  0.
         23    2    4    4    0    0  0.15775684363E+03 -0.13871627869E+03  0.11539905944E+04  0.11762596269E+04  0.88107833428E+02 0.  0.
         23    2    4    4    0    0  0.23639775178E+03  0.90539656951E+02 -0.84080347276E+02  0.28203668765E+03  0.91618021443E+02 0.  0.
          2    1    3    3  502    0 -0.15382273146E+03  0.10054056557E+02 -0.96732949497E+01  0.15445416602E+03  0.00000000000E+00 0.  1.
         -2    1    3    3    0  502 -0.24033186395E+03  0.38122565179E+02  0.99357996318E+02  0.26283977294E+03  0.00000000000E+00 0. -1.
         11    1    5    5    0    0  0.79859211388E+02 -0.19366567342E+02  0.33292765548E+03  0.34291891368E+03  0.00000000000E+00 0.  1.
        -11    1    5    5    0    0  0.77897632243E+02 -0.11934971135E+03  0.82106293892E+03  0.83334071326E+03  0.00000000000E+00 0. -1.
          3    1    6    6  503    0  0.99717068278E+02  0.62578165126E+02  0.26635049496E+01  0.11775659096E+03  0.00000000000E+00 0. -1.
         -3    1    6    6    0  503  0.13668068350E+03  0.27961491826E+02 -0.86743852225E+02  0.16428009668E+03  0.00000000000E+00 0.  1.
<mgrwt>
<rscale>  0 0.14741704E+04</rscale>
<asrwt>0</asrwt>
<pdfrwt beam="1">  1        1 0.23347578E+00 0.14741704E+04</pdfrwt>
<pdfrwt beam="2">  1       -1 0.55076563E-01 0.14741704E+04</pdfrwt>
<totfact> 0.20543107E+01</totfact>
</mgrwt>
</event>
<event>
12    2  0.8147979E-008  0.2054805E+04  0.7818608E-02  0.8581417E-01
         -2   -1    0    0    0  501 -0.00000000000E+00  0.00000000000E+00  0.33980713866E+03  0.33980713866E+03  0.00000000000E+00 0.  1.
          2   -1    0    0  501    0  0.00000000000E+00 -0.00000000000E+00 -0.31063393948E+04  0.31063393948E+04  0.00000000000E+00 0. -1.
         23    2    1    2    0    0 -0.79893558167E+03 -0.14297476359E+03 -0.85555801105E+03  0.11826931982E+04  0.89687480768E+02 0.  0.
        254    2    1    2    0    0  0.79893558167E+03  0.14297476359E+03 -0.19109742451E+04  0.22634533353E+04  0.90147578373E+03 0.  0.
         23    2    4    4    0    0  0.16200203669E+03  0.45705998903E+03 -0.86908173292E+03  0.99920928836E+03  0.89261693765E+02 0.  0.
         23    2    4    4    0    0  0.63693354498E+03 -0.31408522544E+03 -0.10418925122E+04  0.12642440469E+04  0.91864756975E+02 0.  0.
          3    1    3    3  502    0 -0.24086735005E+03 -0.21506023064E+02 -0.30683749527E+03  0.39067740894E+03  0.00000000000E+00 0. -1.
         -3    1    3    3    0  502 -0.55806823163E+03 -0.12146874052E+03 -0.54872051577E+03  0.79201578930E+03  0.00000000000E+00 0.  1.
         11    1    5    5    0    0  0.12473837259E+03  0.29713851130E+03 -0.49477659823E+03  0.59047001503E+03  0.00000000000E+00 0. -1.
        -11    1    5    5    0    0  0.37263664102E+02  0.15992147773E+03 -0.37430513470E+03  0.40873927333E+03  0.00000000000E+00 0.  1.
          2    1    6    6  503    0  0.20224887606E+02 -0.16092710823E+01 -0.11252592037E+02  0.23200359041E+02  0.00000000000E+00 0.  1.
         -2    1    6    6    0  503  0.61670865737E+03 -0.31247595436E+03 -0.10306399202E+04  0.12410436879E+04  0.00000000000E+00 0. -1.
<mgrwt>
<rscale>  0 0.20548054E+04</rscale>
<asrwt>0</asrwt>
<pdfrwt beam="1">  1        2 0.47789836E+00 0.20548054E+04</pdfrwt>
<pdfrwt beam="2">  1       -2 0.52278022E-01 0.20548054E+04</pdfrwt>
<totfact> 0.47746577E+00</totfact>
</mgrwt>
</event>
<event>
12    2  0.8147979E-008  0.1670689E+04  0.7818608E-02  0.8778261E-01
          2   -1    0    0  501    0  0.00000000000E+00  0.00000000000E+00  0.79044587170E+03  0.79044587170E+03  0.00000000000E+00 0.  1.
         -2   -1    0    0    0  501 -0.00000000000E+00 -0.00000000000E+00 -0.88279309734E+03  0.88279309734E+03  0.00000000000E+00 0. -1.
         23    2    1    2    0    0 -0.28756385885E+03  0.12222735181E+03  0.46725986683E+03  0.56945556565E+03  0.91188593884E+02 0.  0.
        254    2    1    2    0    0  0.28756385885E+03 -0.12222735181E+03 -0.55960709246E+03  0.11037834034E+04  0.89863519028E+03 0.  0.
         23    2    4    4    0    0  0.16318891184E+03 -0.42612256192E+03 -0.22470750486E+02  0.46767585797E+03  0.10002357107E+03 0.  0.
         23    2    4    4    0    0  0.12437494700E+03  0.30389521011E+03 -0.53713634198E+03  0.63610754542E+03  0.91082014095E+02 0.  0.
          4    1    3    3  502    0 -0.14178406806E+03  0.10448991598E+03  0.21930202531E+03  0.28127254186E+03  0.00000000000E+00 0. -1.
         -4    1    3    3    0  502 -0.14577979079E+03  0.17737435831E+02  0.24795784152E+03  0.28818302379E+03  0.00000000000E+00 0.  1.
         11    1    5    5    0    0  0.90622132398E+02 -0.29067100738E+03  0.28442353501E+02  0.30579563909E+03  0.00000000000E+00 0. -1.
        -11    1    5    5    0    0  0.72566779444E+02 -0.13545155454E+03 -0.50913103987E+02  0.16188021888E+03  0.00000000000E+00 0.  1.
          4    1    6    6  503    0  0.10931974502E+03  0.26973257258E+03 -0.51798118447E+03  0.59414726695E+03  0.00000000000E+00 0. -1.
         -4    1    6    6    0  503  0.15055201984E+02  0.34162637528E+02 -0.19155157512E+02  0.41960278467E+02  0.00000000000E+00 0.  1.
<mgrwt>
<rscale>  0 0.16706887E+04</rscale>
<asrwt>0</asrwt>
<pdfrwt beam="1">  1        2 0.12160706E+00 0.16706887E+04</pdfrwt>
<pdfrwt beam="2">  1       -2 0.13581432E+00 0.16706887E+04</pdfrwt>
<totfact> 0.12964711E+01</totfact>
</mgrwt>
</event>
<event>
12    2  0.8147979E-008  0.2407258E+04  0.7818608E-02  0.8436791E-01
         -2   -1    0    0    0  501 -0.00000000000E+00  0.00000000000E+00  0.95716080750E+03  0.95716080750E+03  0.00000000000E+00 0.  1.
          2   -1    0    0  501    0  0.00000000000E+00 -0.00000000000E+00 -0.15135621562E+04  0.15135621562E+04  0.00000000000E+00 0. -1.
         23    2    1    2    0    0 -0.26752247403E+03 -0.82688974397E+03  0.33278893252E+03  0.93515745725E+03  0.91956910873E+02 0.  0.
        254    2    1    2    0    0  0.26752247403E+03  0.82688974397E+03 -0.88919028124E+03  0.15355655065E+04  0.90110329353E+03 0.  0.
         23    2    4    4    0    0  0.33815207130E+03  0.90312815125E+03 -0.43726027360E+03  0.10628338210E+04  0.91825396019E+02 0.  0.
         23    2    4    4    0    0 -0.70629597268E+02 -0.76238407286E+02 -0.45193000763E+03  0.47273168543E+03  0.91835068754E+02 0.  0.
          2    1    3    3  502    0 -0.14937962927E+03 -0.44236567898E+03  0.12998648644E+03  0.48466292848E+03  0.00000000000E+00 0. -1.
         -2    1    3    3    0  502 -0.11814284476E+03 -0.38452406498E+03  0.20280244608E+03  0.45049452877E+03  0.00000000000E+00 0.  1.
         11    1    5    5    0    0  0.67204241638E+02  0.21416997805E+03 -0.62192035901E+02  0.23292281752E+03  0.00000000000E+00 0. -1.
        -11    1    5    5    0    0  0.27094782966E+03  0.68895817320E+03 -0.37506823770E+03  0.82991100351E+03  0.00000000000E+00 0.  1.
          3    1    6    6  503    0 -0.36860923351E+02 -0.47138959258E+02 -0.39930698609E+03  0.40376587064E+03  0.00000000000E+00 0. -1.
         -3    1    6    6    0  503 -0.33768673917E+02 -0.29099448029E+02 -0.52623021544E+02  0.68965814793E+02  0.00000000000E+00 0.  1.
<mgrwt>
<rscale>  0 0.24072577E+04</rscale>
<asrwt>0</asrwt>
<pdfrwt beam="1">  1        2 0.23285572E+00 0.24072577E+04</pdfrwt>
<pdfrwt beam="2">  1       -2 0.14725551E+00 0.24072577E+04</pdfrwt>
<totfact> 0.35270534E+00</totfact>
</mgrwt>
</event>
<event>
12    2  0.8147979E-008  0.1900924E+04  0.7818608E-02  0.8654396E-01
          1   -1    0    0  501    0  0.00000000000E+00  0.00000000000E+00  0.80281488297E+03  0.80281488297E+03  0.00000000000E+00 0. -1.
         -1   -1    0    0    0  501 -0.00000000000E+00 -0.00000000000E+00 -0.11252636139E+04  0.11252636139E+04  0.00000000000E+00 0.  1.
         23    2    1    2    0    0 -0.60942173123E+03 -0.32610453981E+03  0.12552690611E+03  0.70825716278E+03  0.90178639909E+02 0.  0.
        254    2    1    2    0    0  0.60942173123E+03  0.32610453981E+03 -0.44797563704E+03  0.12198213341E+04  0.89974601881E+03 0.  0.
         23    2    4    4    0    0  0.49662664579E+03 -0.20744007632E+03 -0.69825272568E+02  0.55013009558E+03  0.89989681605E+02 0.  0.
         23    2    4    4    0    0  0.11279508544E+03  0.53354461613E+03 -0.37815036447E+03  0.66969123852E+03  0.89978153463E+02 0.  0.
          4    1    3    3  502    0 -0.50935919308E+03 -0.24875453970E+03  0.73901390099E+02  0.57165288774E+03  0.00000000000E+00 0.  1.
         -4    1    3    3    0  502 -0.10006253814E+03 -0.77350000112E+02  0.51625516007E+02  0.13660427504E+03  0.00000000000E+00 0. -1.
         11    1    5    5    0    0  0.67488949068E+02 -0.64296810257E+02 -0.15596531820E+02  0.94509734210E+02  0.00000000000E+00 0.  1.
        -11    1    5    5    0    0  0.42913769672E+03 -0.14314326606E+03 -0.54228740748E+02  0.45562036137E+03  0.00000000000E+00 0. -1.
          2    1    6    6  503    0  0.10468566524E+03  0.44063556565E+03 -0.27162392838E+03  0.52810827365E+03  0.00000000000E+00 0. -1.
         -2    1    6    6    0  503  0.81094202004E+01  0.92909050478E+02 -0.10652643609E+03  0.14158296487E+03  0.00000000000E+00 0.  1.
<mgrwt>
<rscale>  0 0.19009244E+04</rscale>
<asrwt>0</asrwt>
<pdfrwt beam="1">  1        1 0.12350998E+00 0.19009244E+04</pdfrwt>
<pdfrwt beam="2">  1       -1 0.17311748E+00 0.19009244E+04</pdfrwt>
<totfact> 0.48014627E+00</totfact>
</mgrwt>
</event>
<event>
12    2  0.8147979E-008  0.1801025E+04  0.7818608E-02  0.8705755E-01
         -2   -1    0    0    0  501 -0.00000000000E+00  0.00000000000E+00  0.87823266541E+03  0.87823266541E+03  0.00000000000E+00 0.  1.
          2   -1    0    0  501    0  0.00000000000E+00 -0.00000000000E+00 -0.92335766143E+03  0.92335766143E+03  0.00000000000E+00 0. -1.
         23    2    1    2    0    0 -0.12047509801E+02  0.14742993549E+01  0.65417119260E+03  0.66051045324E+03  0.90480901650E+02 0.  0.
        254    2    1    2    0    0  0.12047509801E+02 -0.14742993549E+01 -0.69929618862E+03  0.11410798736E+04  0.90161011665E+03 0.  0.
         23    2    4    4    0    0 -0.26700477986E+03 -0.33838713392E+03 -0.44907646411E+03  0.62929551787E+03  0.92443352000E+02 0.  0.
         23    2    4    4    0    0  0.27905228966E+03  0.33691283457E+03 -0.25021972452E+03  0.51178435572E+03  0.89066703990E+02 0.  0.
          1    1    3    3  502    0 -0.49965528442E+02 -0.11207834561E+02  0.38271267176E+03  0.38612324291E+03  0.00000000000E+00 0. -1.
         -1    1    3    3    0  502  0.37918018641E+02  0.12682133916E+02  0.27145852084E+03  0.27438721033E+03  0.00000000000E+00 0.  1.
         11    1    5    5    0    0 -0.21416814437E+03 -0.21643193916E+03 -0.27505234570E+03  0.41032252098E+03  0.00000000000E+00 0. -1.
        -11    1    5    5    0    0 -0.52836635489E+02 -0.12195519476E+03 -0.17402411841E+03  0.21897299689E+03  0.00000000000E+00 0.  1.
          1    1    6    6  503    0  0.26624012011E+03  0.31020566777E+03 -0.25496286565E+03  0.48178565850E+03  0.00000000000E+00 0. -1.
         -1    1    6    6    0  503  0.12812169548E+02  0.26707166803E+02  0.47431411362E+01  0.29998697222E+02  0.00000000000E+00 0.  1.
<mgrwt>
<rscale>  0 0.18010251E+04</rscale>
<asrwt>0</asrwt>
<pdfrwt beam="1">  1        2 0.14205502E+00 0.18010251E+04</pdfrwt>
<pdfrwt beam="2">  1       -2 0.13511272E+00 0.18010251E+04</pdfrwt>
<totfact> 0.10507979E+01</totfact>
</mgrwt>
</event>
<event>
12    2  0.9655306E-008  0.3531625E+04  0.7818608E-02  0.8106336E-01
         -1   -1    0    0    0  501 -0.00000000000E+00  0.00000000000E+00  0.15605292173E+04  0.15605292173E+04  0.00000000000E+00 0.  1.
          1   -1    0    0  501    0  0.00000000000E+00 -0.00000000000E+00 -0.19981000056E+04  0.19981000056E+04  0.00000000000E+00 0. -1.
         23    2    1    2    0    0 -0.14765348672E+04 -0.50199005456E+03 -0.74613450488E+03  0.17312159867E+04  0.90790221308E+02 0.  0.
        254    2    1    2    0    0  0.14765348672E+04  0.50199005456E+03  0.30856371663E+03  0.18274132362E+04  0.90115389351E+03 0.  0.
         23    2    4    4    0    0  0.15407349197E+04  0.30468464508E+03  0.26637073575E+03  0.15956941968E+04  0.92681038683E+02 0.  0.
         23    2    4    4    0    0 -0.64200052501E+02  0.19730540948E+03  0.42192980880E+02  0.23171903948E+03  0.94140290379E+02 0.  0.
          1    1    3    3  502    0 -0.89865768268E+03 -0.31224804740E+03 -0.50344407595E+03  0.10763551511E+04  0.00000000000E+00 0. -1.
         -1    1    3    3    0  502 -0.57787718453E+03 -0.18974200716E+03 -0.24269042893E+03  0.65486083558E+03  0.00000000000E+00 0.  1.
         11    1    5    5    0    0  0.36904454361E+03  0.32928056969E+02  0.63546680075E+02  0.37592062015E+03  0.00000000000E+00 0. -1.
        -11    1    5    5    0    0  0.11716903761E+04  0.27175658811E+03  0.20282405568E+03  0.12197735766E+04  0.00000000000E+00 0.  1.
          3    1    6    6  503    0 -0.72749876643E+02  0.19104496671E+03  0.58173947615E+02  0.21254395319E+03  0.00000000000E+00 0.  1.
         -3    1    6    6    0  503  0.85498241423E+01  0.62604427679E+01 -0.15980966735E+02  0.19175086292E+02  0.00000000000E+00 0. -1.
<mgrwt>
<rscale>  0 0.35316248E+04</rscale>
<asrwt>0</asrwt>
<pdfrwt beam="1">  1        1 0.30740000E+00 0.35316248E+04</pdfrwt>
<pdfrwt beam="2">  1       -1 0.24008142E+00 0.35316248E+04</pdfrwt>
<totfact> 0.19694391E-01</totfact>
</mgrwt>
</event>
<event>
12    2  0.8147979E-008  0.3402182E+04  0.7818608E-02  0.8137371E-01
         -1   -1    0    0    0  501 -0.00000000000E+00  0.00000000000E+00  0.11808881158E+04  0.11808881158E+04  0.00000000000E+00 0.  1.
          1   -1    0    0  501    0  0.00000000000E+00 -0.00000000000E+00 -0.24504531881E+04  0.24504531881E+04  0.00000000000E+00 0. -1.
         23    2    1    2    0    0  0.16377914595E+03 -0.14564303550E+04  0.40743815412E+02  0.14688290325E+04  0.88236502545E+02 0.  0.
        254    2    1    2    0    0 -0.16377914595E+03  0.14564303550E+04 -0.13103088877E+04  0.21625122715E+04  0.90085345949E+03 0.  0.
         23    2    4    4    0    0  0.59832980398E+01  0.10077096391E+04 -0.13324813650E+04  0.16731865049E+04  0.92368693099E+02 0.  0.
         23    2    4    4    0    0 -0.16976244399E+03  0.44872071598E+03  0.22172477324E+02  0.48932576662E+03  0.93693750024E+02 0.  0.
          4    1    3    3  502    0  0.73829012877E+02 -0.41600105400E+03 -0.17826301309E+02  0.42287749655E+03  0.00000000000E+00 0. -1.
         -4    1    3    3    0  502  0.89950133077E+02 -0.10404293010E+04  0.58570116721E+02  0.10459515359E+04  0.00000000000E+00 0.  1.
         11    1    5    5    0    0  0.47388759439E+02  0.53810373075E+03 -0.73305558579E+03  0.91058871695E+03  0.00000000000E+00 0. -1.
        -11    1    5    5    0    0 -0.41405461399E+02  0.46960590831E+03 -0.59942577923E+03  0.76259778793E+03  0.00000000000E+00 0.  1.
          2    1    6    6  503    0 -0.78439120515E+02  0.15933545437E+03  0.50271796669E+02  0.18457447328E+03  0.00000000000E+00 0.  1.
         -2    1    6    6    0  503 -0.91323323479E+02  0.28938526161E+03 -0.28099319345E+02  0.30475129334E+03  0.00000000000E+00 0. -1.
<mgrwt>
<rscale>  0 0.34021823E+04</rscale>
<asrwt>0</asrwt>
<pdfrwt beam="1">  1        1 0.37699279E+00 0.34021823E+04</pdfrwt>
<pdfrwt beam="2">  1       -1 0.18167510E+00 0.34021823E+04</pdfrwt>
<totfact> 0.24409336E-01</totfact>
</mgrwt>
</event>
<event>
12    2  0.8147979E-008  0.2342589E+04  0.7818608E-02  0.8461316E-01
         -1   -1    0    0    0  501 -0.00000000000E+00  0.00000000000E+00  0.76923666381E+03  0.76923666381E+03  0.00000000000E+00 0.  1.
          1   -1    0    0  501    0  0.00000000000E+00 -0.00000000000E+00 -0.17834961294E+04  0.17834961294E+04  0.00000000000E+00 0. -1.
         23    2    1    2    0    0 -0.22054518043E+02  0.99190553716E+03 -0.33542921473E+03  0.10512789732E+04  0.91168662119E+02 0.  0.
        254    2    1    2    0    0  0.22054518043E+02 -0.99190553716E+03 -0.67883025089E+03  0.15014538200E+04  0.89954992511E+03 0.  0.
         23    2    4    4    0    0  0.24044754883E+03 -0.10462235059E+04 -0.64943408197E+03  0.12582459692E+04  0.94971806526E+02 0.  0.
         23    2    4    4    0    0 -0.21839303078E+03  0.54317968735E+02 -0.29396168920E+02  0.24320785089E+03  0.87406901115E+02 0.  0.
          2    1    3    3  502    0 -0.11795214012E+02  0.82524574735E+03 -0.24266015526E+03  0.86026369302E+03  0.00000000000E+00 0.  1.
         -2    1    3    3    0  502 -0.10259304031E+02  0.16665978982E+03 -0.92769059467E+02  0.19101528016E+03  0.00000000000E+00 0. -1.
         11    1    5    5    0    0  0.13539395240E+03 -0.74395234408E+03 -0.42548508401E+03  0.86766016927E+03  0.00000000000E+00 0. -1.
        -11    1    5    5    0    0  0.10505359643E+03 -0.30227116182E+03 -0.22394899795E+03  0.39058579989E+03  0.00000000000E+00 0.  1.
          1    1    6    6  503    0 -0.22093149886E+02  0.35101895619E+02  0.85618961946E+01  0.42350400404E+02  0.00000000000E+00 0. -1.
         -1    1    6    6    0  503 -0.19629988090E+03  0.19216073116E+02 -0.37958065114E+02  0.20085745048E+03  0.00000000000E+00 0.  1.
<mgrwt>
<rscale>  0 0.23425888E+04</rscale>
<asrwt>0</asrwt>
<pdfrwt beam="1">  1        1 0.27438402E+00 0.23425888E+04</pdfrwt>
<pdfrwt beam="2">  1       -1 0.11834410E+00 0.23425888E+04</pdfrwt>
<totfact> 0.24112663E+00</totfact>
</mgrwt>
</event>
<event>
12    2  0.8147979E-008  0.1326582E+04  0.7818608E-02  0.9008747E-01
          2   -1    0    0  501    0  0.00000000000E+00  0.00000000000E+00  0.91071890747E+03  0.91071890747E+03  0.00000000000E+00 0. -1.
         -2   -1    0    0    0  501 -0.00000000000E+00 -0.00000000000E+00 -0.48308498675E+03  0.48308498675E+03  0.00000000000E+00 0.  1.
         23    2    1    2    0    0 -0.79574053744E+02  0.33857231456E+03  0.14420431134E+03  0.38750365569E+03  0.91656737604E+02 0.  0.
        254    2    1    2    0    0  0.79574053744E+02 -0.33857231456E+03  0.28342960938E+03  0.10063002385E+04  0.90074668157E+03 0.  0.
         23    2    4    4    0    0  0.22472989038E+03 -0.12573971908E+03 -0.27344154369E+03  0.38591011602E+03  0.88556983041E+02 0.  0.
         23    2    4    4    0    0 -0.14515583664E+03 -0.21283259548E+03  0.55687115307E+03  0.62039012250E+03  0.91708736548E+02 0.  0.
          1    1    3    3  502    0  0.11390030334E+02  0.80357759985E+02  0.60485277424E+02  0.10122040884E+03  0.00000000000E+00 0. -1.
         -1    1    3    3    0  502 -0.90964084078E+02  0.25821455458E+03  0.83719033913E+02  0.28628324685E+03  0.00000000000E+00 0.  1.
         11    1    5    5    0    0 -0.63169770570E+01 -0.24544186161E+01 -0.21390703265E+02  0.22438595233E+02  0.00000000000E+00 0. -1.
        -11    1    5    5    0    0  0.23104686744E+03 -0.12328530046E+03 -0.25205084043E+03  0.36347152079E+03  0.00000000000E+00 0.  1.
          2    1    6    6  503    0 -0.50630171697E+01  0.24016578105E+01 -0.14927536889E+01  0.57991737925E+01  0.00000000000E+00 0. -1.
         -2    1    6    6    0  503 -0.14009281947E+03 -0.21523425330E+03  0.55836390676E+03  0.61459094871E+03  0.00000000000E+00 0.  1.
<mgrwt>
<rscale>  0 0.13265815E+04</rscale>
<asrwt>0</asrwt>
<pdfrwt beam="1">  1        2 0.14011060E+00 0.13265815E+04</pdfrwt>
<pdfrwt beam="2">  1       -2 0.74320767E-01 0.13265815E+04</pdfrwt>
<totfact> 0.45984262E+01</totfact>
</mgrwt>
</event>
<event>
12    2  0.8147979E-008  0.2890820E+04  0.7818608E-02  0.8275614E-01
         -1   -1    0    0    0  501 -0.00000000000E+00  0.00000000000E+00  0.16181195849E+04  0.16181195849E+04  0.00000000000E+00 0.  1.
          1   -1    0    0  501    0  0.00000000000E+00 -0.00000000000E+00 -0.12911342014E+04  0.12911342014E+04  0.00000000000E+00 0. -1.
         23    2    1    2    0    0  0.82020243710E+03  0.10067293385E+04  0.24137466088E+03  0.13240186516E+04  0.92345352218E+02 0.  0.
        254    2    1    2    0    0 -0.82020243710E+03 -0.10067293385E+04  0.85610722633E+02  0.15852351347E+04  0.90521005162E+03 0.  0.
         23    2    4    4    0    0 -0.80739945544E+03 -0.62725020651E+03  0.38071543560E+03  0.10948946074E+04  0.92267308029E+02 0.  0.
         23    2    4    4    0    0 -0.12802981663E+02 -0.37947913204E+03 -0.29510471297E+03  0.49034052733E+03  0.95805600776E+02 0.  0.
          3    1    3    3  502    0  0.20136512377E+03  0.18810441011E+03  0.45694559154E+02  0.27931912736E+03  0.00000000000E+00 0. -1.
         -3    1    3    3    0  502  0.61883731333E+03  0.81862492844E+03  0.19568010172E+03  0.10446995243E+04  0.00000000000E+00 0.  1.
         11    1    5    5    0    0 -0.24482658891E+03 -0.18299682992E+03  0.69742555906E+02  0.31351542626E+03  0.00000000000E+00 0.  1.
        -11    1    5    5    0    0 -0.56257286653E+03 -0.44425337659E+03  0.31097287969E+03  0.78137918111E+03  0.00000000000E+00 0. -1.
          4    1    6    6  503    0 -0.43060055979E+02 -0.82443898716E+02 -0.68496048559E+02  0.11551135669E+03  0.00000000000E+00 0. -1.
         -4    1    6    6    0  503  0.30257074316E+02 -0.29703523332E+03 -0.22660866441E+03  0.37482917064E+03  0.00000000000E+00 0.  1.
<mgrwt>
<rscale>  0 0.28908196E+04</rscale>
<asrwt>0</asrwt>
<pdfrwt beam="1">  1        1 0.19863603E+00 0.28908196E+04</pdfrwt>
<pdfrwt beam="2">  1       -1 0.24894147E+00 0.28908196E+04</pdfrwt>
<totfact> 0.55855052E-01</totfact>
</mgrwt>
</event>
<event>
12    2  0.8147979E-008  0.1706763E+04  0.7818608E-02  0.8757517E-01
         -1   -1    0    0    0  501 -0.00000000000E+00  0.00000000000E+00  0.32647667111E+03  0.32647667111E+03  0.00000000000E+00 0.  1.
          1   -1    0    0  501    0  0.00000000000E+00 -0.00000000000E+00 -0.22306644279E+04  0.22306644279E+04  0.00000000000E+00 0. -1.
         23    2    1    2    0    0 -0.31236794392E+03  0.52628414569E+03 -0.71508644509E+03  0.94575910226E+03  0.92536053246E+02 0.  0.
        254    2    1    2    0    0  0.31236794392E+03 -0.52628414569E+03 -0.11891013117E+04  0.16113819968E+04  0.89891116113E+03 0.  0.
         23    2    4    4    0    0  0.42201761780E+03 -0.72526508474E+02 -0.10138240433E+04  0.11043943398E+04  0.92134156494E+02 0.  0.
         23    2    4    4    0    0 -0.10964967388E+03 -0.45375763722E+03 -0.17527726838E+03  0.50698765696E+03  0.91625974403E+02 0.  0.
          2    1    3    3  502    0 -0.10115483281E+03  0.13725515410E+03 -0.25975165240E+03  0.31071240473E+03  0.00000000000E+00 0. -1.
         -2    1    3    3    0  502 -0.21121311111E+03  0.38902899159E+03 -0.45533479269E+03  0.63504669753E+03  0.00000000000E+00 0.  1.
         11    1    5    5    0    0  0.29947869343E+03 -0.83334833285E+01 -0.68402731559E+03  0.74675986986E+03  0.00000000000E+00 0. -1.
        -11    1    5    5    0    0  0.12253892437E+03 -0.64193025146E+02 -0.32979672774E+03  0.35763446994E+03  0.00000000000E+00 0.  1.
          3    1    6    6  503    0 -0.90327005008E+02 -0.43309157633E+03 -0.14504213544E+03  0.46557974868E+03  0.00000000000E+00 0. -1.
         -3    1    6    6    0  503 -0.19322668872E+02 -0.20666060884E+02 -0.30235132934E+02  0.41407908283E+02  0.00000000000E+00 0.  1.
<mgrwt>
<rscale>  0 0.17067629E+04</rscale>
<asrwt>0</asrwt>
<pdfrwt beam="1">  1        1 0.34317914E+00 0.17067629E+04</pdfrwt>
<pdfrwt beam="2">  1       -1 0.50227180E-01 0.17067629E+04</pdfrwt>
<totfact> 0.78624142E+00</totfact>
</mgrwt>
</event>
<event>
12    2  0.8147979E-008  0.2764158E+04  0.7818608E-02  0.8314483E-01
          2   -1    0    0  501    0  0.00000000000E+00  0.00000000000E+00  0.14620319502E+04  0.14620319502E+04  0.00000000000E+00 0. -1.
         -2   -1    0    0    0  501 -0.00000000000E+00 -0.00000000000E+00 -0.13064986300E+04  0.13064986300E+04  0.00000000000E+00 0.  1.
         23    2    1    2    0    0 -0.24532497641E+03 -0.11150563286E+04  0.53670926509E+03  0.12649934115E+04  0.92825297975E+02 0.  0.
        254    2    1    2    0    0  0.24532497641E+03  0.11150563286E+04 -0.38117594482E+03  0.15035371687E+04  0.90099609137E+03 0.  0.
         23    2    4    4    0    0  0.55267697990E+03  0.55832535888E+03 -0.85548429846E+02  0.79628407367E+03  0.97830167392E+02 0.  0.
         23    2    4    4    0    0 -0.30735200350E+03  0.55673096971E+03 -0.29562751498E+03  0.70725309500E+03  0.91633433193E+02 0.  0.
          4    1    3    3  502    0 -0.74499134665E+02 -0.34205751838E+03  0.11796115260E+03  0.36941616162E+03  0.00000000000E+00 0.  1.
         -4    1    3    3    0  502 -0.17082584174E+03 -0.77299881022E+03  0.41874811250E+03  0.89557724989E+03  0.00000000000E+00 0. -1.
         11    1    5    5    0    0  0.48466172103E+03  0.51650617331E+03 -0.99454650379E+02  0.71523900787E+03  0.00000000000E+00 0.  1.
        -11    1    5    5    0    0  0.68015258869E+02  0.41819185572E+02  0.13906220533E+02  0.81045065799E+02  0.00000000000E+00 0. -1.
          3    1    6    6  503    0 -0.40924281797E+02  0.75733173509E+02 -0.77102059920E+02  0.11556399982E+03  0.00000000000E+00 0. -1.
         -3    1    6    6    0  503 -0.26642772170E+03  0.48099779620E+03 -0.21852545506E+03  0.59168909518E+03  0.00000000000E+00 0.  1.
<mgrwt>
<rscale>  0 0.27641583E+04</rscale>
<asrwt>0</asrwt>
<pdfrwt beam="1">  1        2 0.22492799E+00 0.27641583E+04</pdfrwt>
<pdfrwt beam="2">  1       -2 0.20099979E+00 0.27641583E+04</pdfrwt>
<totfact> 0.15251208E+00</totfact>
</mgrwt>
</event>
<event>
12    2  0.8147979E-008  0.1654336E+04  0.7818608E-02  0.8787845E-01
         -2   -1    0    0    0  501 -0.00000000000E+00  0.00000000000E+00  0.17346506795E+04  0.17346506795E+04  0.00000000000E+00 0.  1.
          2   -1    0    0  501    0  0.00000000000E+00 -0.00000000000E+00 -0.39443504415E+03  0.39443504415E+03  0.00000000000E+00 0. -1.
         23    2    1    2    0    0 -0.53271199307E+03 -0.49880908863E+02  0.17073824432E+03  0.56909024715E+03  0.91880295491E+02 0.  0.
        254    2    1    2    0    0  0.53271199307E+03  0.49880908863E+02  0.11694773910E+04  0.15599954765E+04  0.88297131659E+03 0.  0.
         23    2    4    4    0    0 -0.61960450353E+02 -0.37712876520E+02 -0.10068094932E+03  0.15246165578E+03  0.88580722880E+02 0.  0.
         23    2    4    4    0    0  0.59467244342E+03  0.87593785383E+02  0.12701583403E+04  0.14075338207E+04  0.80878060580E+02 0.  0.
          2    1    3    3  502    0 -0.10026186024E+03  0.38412474183E+01  0.68485058685E+02  0.12148003566E+03  0.00000000000E+00 0.  1.
         -2    1    3    3    0  502 -0.43245013283E+03 -0.53722156282E+02  0.10225318564E+03  0.44761021149E+03  0.00000000000E+00 0. -1.
         11    1    5    5    0    0 -0.32668594310E+02 -0.48779018525E+02 -0.14078780086E+02  0.60372524804E+02  0.00000000000E+00 0.  1.
        -11    1    5    5    0    0 -0.29291856042E+02  0.11066142005E+02 -0.86602169231E+02  0.92089130981E+02  0.00000000000E+00 0. -1.
          1    1    6    6  503    0  0.12630694159E+03  0.45806019887E+02  0.33113418721E+03  0.35735344534E+03  0.00000000000E+00 0. -1.
         -1    1    6    6    0  503  0.46836550183E+03  0.41787765496E+02  0.93902415312E+03  0.10501803754E+04  0.00000000000E+00 0.  1.
<mgrwt>
<rscale>  0 0.16543361E+04</rscale>
<asrwt>0</asrwt>
<pdfrwt beam="1">  1        2 0.60682315E-01 0.16543361E+04</pdfrwt>
<pdfrwt beam="2">  1       -2 0.26686933E+00 0.16543361E+04</pdfrwt>
<totfact> 0.39108225E+00</totfact>
</mgrwt>
</event>
<event>
12    2  0.8147979E-008  0.1997864E+04  0.7818608E-02  0.8607620E-01
          2   -1    0    0  501    0  0.00000000000E+00  0.00000000000E+00  0.11382492964E+04  0.11382492964E+04  0.00000000000E+00 0. -1.
         -2   -1    0    0    0  501 -0.00000000000E+00 -0.00000000000E+00 -0.87666660193E+03  0.87666660193E+03  0.00000000000E+00 0.  1.
         23    2    1    2    0    0  0.33176505793E+03  0.65464998941E+03  0.41384788301E+03  0.84734357420E+03  0.89924413648E+02 0.  0.
        254    2    1    2    0    0 -0.33176505793E+03 -0.65464998941E+03 -0.15226518857E+03  0.11675723241E+04  0.89521270214E+03 0.  0.
         23    2    4    4    0    0 -0.45318097894E+03 -0.39940271079E+03 -0.44085619224E+03  0.75322277187E+03  0.89971310784E+02 0.  0.
         23    2    4    4    0    0  0.12141592101E+03 -0.25524727862E+03  0.28859100367E+03  0.41434955224E+03  0.92237654570E+02 0.  0.
          3    1    3    3  502    0  0.16573444545E+03  0.23254722727E+03  0.17087672429E+03  0.33278367481E+03  0.00000000000E+00 0. -1.
         -3    1    3    3    0  502  0.16603061249E+03  0.42210276214E+03  0.24297115872E+03  0.51455989939E+03  0.00000000000E+00 0.  1.
         11    1    5    5    0    0 -0.30615257211E+03 -0.25900718604E+03 -0.23951286913E+03  0.46709799219E+03  0.00000000000E+00 0. -1.
        -11    1    5    5    0    0 -0.14702840684E+03 -0.14039552475E+03 -0.20134332311E+03  0.28612477968E+03  0.00000000000E+00 0.  1.
          4    1    6    6  503    0  0.88982190487E+02 -0.93323638340E+02  0.15717979545E+03  0.20330425425E+03  0.00000000000E+00 0. -1.
         -4    1    6    6    0  503  0.32433730525E+02 -0.16192364028E+03  0.13141120822E+03  0.21104529799E+03  0.00000000000E+00 0.  1.
<mgrwt>
<rscale>  0 0.19978640E+04</rscale>
<asrwt>0</asrwt>
<pdfrwt beam="1">  1        2 0.17511528E+00 0.19978640E+04</pdfrwt>
<pdfrwt beam="2">  1       -2 0.13487178E+00 0.19978640E+04</pdfrwt>
<totfact> 0.75853505E+00</totfact>
</mgrwt>
</event>
<event>
12    2  0.8147979E-008  0.1264100E+04  0.7818608E-02  0.9058529E-01
         -2   -1    0    0    0  501 -0.00000000000E+00  0.00000000000E+00  0.27224739423E+03  0.27224739423E+03  0.00000000000E+00 0.  1.
          2   -1    0    0  501    0  0.00000000000E+00 -0.00000000000E+00 -0.14673677703E+04  0.14673677703E+04  0.00000000000E+00 0. -1.
         23    2    1    2    0    0 -0.10320744388E+03  0.24073963505E+03 -0.49562030080E+03  0.56869846540E+03  0.95765931415E+02 0.  0.
        254    2    1    2    0    0  0.10320744388E+03 -0.24073963505E+03 -0.69950007527E+03  0.11709166991E+04  0.90174176606E+03 0.  0.
         23    2    4    4    0    0  0.40148124875E+03 -0.39257271398E+03 -0.30309906653E+03  0.64436400762E+03  0.89640400078E+02 0.  0.
         23    2    4    4    0    0 -0.29827380487E+03  0.15183307893E+03 -0.39640100873E+03  0.52655269152E+03  0.90019057370E+02 0.  0.
          3    1    3    3  502    0 -0.11374425839E+03  0.16990841632E+03 -0.32926716282E+03  0.38758675256E+03  0.00000000000E+00 0. -1.
         -3    1    3    3    0  502  0.10536814516E+02  0.70831218729E+02 -0.16635313799E+03  0.18111171283E+03  0.00000000000E+00 0.  1.
         11    1    5    5    0    0  0.40188819848E+03 -0.39433685496E+03 -0.29417759024E+03  0.63526068181E+03  0.00000000000E+00 0. -1.
        -11    1    5    5    0    0 -0.40694973115E+00  0.17641409831E+01 -0.89214762945E+01  0.91033258079E+01  0.00000000000E+00 0.  1.
          2    1    6    6  503    0 -0.26979939706E+03  0.15345817629E+03 -0.38788929306E+03  0.49678891916E+03  0.00000000000E+00 0. -1.
         -2    1    6    6    0  503 -0.28474407806E+02 -0.16250973580E+01 -0.85117156700E+01  0.29763772358E+02  0.00000000000E+00 0.  1.
<mgrwt>
<rscale>  0 0.12640998E+04</rscale>
<asrwt>0</asrwt>
<pdfrwt beam="1">  1        2 0.22574888E+00 0.12640998E+04</pdfrwt>
<pdfrwt beam="2">  1       -2 0.41884216E-01 0.12640998E+04</pdfrwt>
<totfact> 0.70272586E+01</totfact>
</mgrwt>
</event>
<event>
12    2  0.8147979E-008  0.2123095E+04  0.7818608E-02  0.8551137E-01
          1   -1    0    0  501    0  0.00000000000E+00  0.00000000000E+00  0.12938940893E+04  0.12938940893E+04  0.00000000000E+00 0. -1.
         -1   -1    0    0    0  501 -0.00000000000E+00 -0.00000000000E+00 -0.87092389504E+03  0.87092389504E+03  0.00000000000E+00 0.  1.
         23    2    1    2    0    0  0.46340021525E+03  0.62253621632E+03 -0.22044285828E+03  0.81203901608E+03  0.92310398866E+02 0.  0.
        254    2    1    2    0    0 -0.46340021525E+03 -0.62253621632E+03  0.64341305251E+03  0.13527789682E+04  0.90207509701E+03 0.  0.
         23    2    4    4    0    0 -0.27154254277E+03  0.68860539906E+02 -0.10555738016E+03  0.31154970246E+03  0.86277054351E+02 0.  0.
         23    2    4    4    0    0 -0.19185767248E+03 -0.69139675623E+03  0.74897043267E+03  0.10412292658E+04  0.91448531281E+02 0.  0.
          1    1    3    3  502    0  0.36035706130E+03  0.51515486479E+03 -0.21008203536E+03  0.66285459034E+03  0.00000000000E+00 0. -1.
         -1    1    3    3    0  502  0.10304315395E+03  0.10738135153E+03 -0.10360822920E+02  0.14918442574E+03  0.00000000000E+00 0.  1.
         11    1    5    5    0    0 -0.18123975220E+03  0.77848384765E+02 -0.44608137383E+02  0.20223279830E+03  0.00000000000E+00 0.  1.
        -11    1    5    5    0    0 -0.90302790568E+02 -0.89878448584E+01 -0.60949242780E+02  0.10931690416E+03  0.00000000000E+00 0. -1.
          1    1    6    6  503    0 -0.95290188148E+02 -0.24770943358E+03  0.32908901668E+03  0.42277625802E+03  0.00000000000E+00 0. -1.
         -1    1    6    6    0  503 -0.96567484328E+02 -0.44368732265E+03  0.41988141599E+03  0.61845300776E+03  0.00000000000E+00 0.  1.
<mgrwt>
<rscale>  0 0.21230952E+04</rscale>
<asrwt>0</asrwt>
<pdfrwt beam="1">  1        1 0.19906063E+00 0.21230952E+04</pdfrwt>
<pdfrwt beam="2">  1       -1 0.13398829E+00 0.21230952E+04</pdfrwt>
<totfact> 0.39386496E+00</totfact>
</mgrwt>
</event>
<event>
12    2  0.8147979E-008  0.2368071E+04  0.7818608E-02  0.8451555E-01
          2   -1    0    0  501    0  0.00000000000E+00  0.00000000000E+00  0.89504628699E+03  0.89504628699E+03  0.00000000000E+00 0. -1.
         -2   -1    0    0    0  501 -0.00000000000E+00 -0.00000000000E+00 -0.15663322631E+04  0.15663322631E+04  0.00000000000E+00 0.  1.
         23    2    1    2    0    0 -0.65457575933E+03 -0.71472175328E+03 -0.58468592330E+03  0.11355899789E+04  0.91708025995E+02 0.  0.
        254    2    1    2    0    0  0.65457575933E+03  0.71472175328E+03 -0.86600052774E+02  0.13257885711E+04  0.90051049791E+03 0.  0.
         23    2    4    4    0    0  0.93629849751E+02  0.59650031992E+03  0.24417472477E+03  0.65772450030E+03  0.91657196410E+02 0.  0.
         23    2    4    4    0    0  0.56094590958E+03  0.11822143337E+03 -0.33077477755E+03  0.66806407081E+03  0.90890200077E+02 0.  0.
          3    1    3    3  502    0 -0.44236742744E+03 -0.53110058053E+03 -0.38519222507E+03  0.79128365190E+03  0.00000000000E+00 0. -1.
         -3    1    3    3    0  502 -0.21220833189E+03 -0.18362117275E+03 -0.19949369823E+03  0.34430632704E+03  0.00000000000E+00 0.  1.
         11    1    5    5    0    0 -0.49437700574E+01  0.99412963945E+01 -0.58227634780E+01  0.12536937860E+02  0.00000000000E+00 0.  1.
        -11    1    5    5    0    0  0.98573619809E+02  0.58655902352E+03  0.24999748825E+03  0.64518756244E+03  0.00000000000E+00 0. -1.
          2    1    6    6  503    0  0.16561807667E+03  0.48453230061E+02 -0.14646401722E+03  0.22633773694E+03  0.00000000000E+00 0.  1.
         -2    1    6    6    0  503  0.39532783290E+03  0.69768203306E+02 -0.18431076033E+03  0.44172633387E+03  0.00000000000E+00 0. -1.
<mgrwt>
<rscale>  0 0.23680708E+04</rscale>
<asrwt>0</asrwt>
<pdfrwt beam="1">  1        2 0.13769943E+00 0.23680708E+04</pdfrwt>
<pdfrwt beam="2">  1       -2 0.24097419E+00 0.23680708E+04</pdfrwt>
<totfact> 0.19458504E+00</totfact>
</mgrwt>
</event>
<event>
12    2  0.8147979E-008  0.1714560E+04  0.7818608E-02  0.8753104E-01
         -2   -1    0    0    0  501 -0.00000000000E+00  0.00000000000E+00  0.24423907761E+03  0.24423907761E+03  0.00000000000E+00 0.  1.
          2   -1    0    0  501    0  0.00000000000E+00 -0.00000000000E+00 -0.30090542070E+04  0.30090542070E+04  0.00000000000E+00 0. -1.
         23    2    1    2    0    0 -0.42499668463E+03 -0.21125044087E+03 -0.17567816258E+04  0.18221301778E+04  0.92885807971E+02 0.  0.
        254    2    1    2    0    0  0.42499668463E+03  0.21125044087E+03 -0.10080335036E+04  0.14311631068E+04  0.89824682758E+03 0.  0.
         23    2    4    4    0    0  0.17902272610E+03  0.18710465174E+03  0.10070509937E+03  0.29159152644E+03  0.88469283294E+02 0.  0.
         23    2    4    4    0    0  0.24597395853E+03  0.24145789126E+02 -0.11087386030E+04  0.11395715804E+04  0.90751802929E+02 0.  0.
          3    1    3    3  502    0 -0.12433537934E+03 -0.11098528989E+03 -0.60923214896E+03  0.63161763152E+03  0.00000000000E+00 0. -1.
         -3    1    3    3    0  502 -0.30066130528E+03 -0.10026515098E+03 -0.11475494768E+04  0.11905125463E+04  0.00000000000E+00 0.  1.
         11    1    5    5    0    0  0.38915517914E+02  0.98828770331E+02  0.55962729001E+02  0.12005569714E+03  0.00000000000E+00 0. -1.
        -11    1    5    5    0    0  0.14010720819E+03  0.88275881413E+02  0.44742370365E+02  0.17153582929E+03  0.00000000000E+00 0.  1.
          1    1    6    6  503    0  0.20853909053E+03 -0.45601746380E+01 -0.77764622719E+03  0.80513539366E+03  0.00000000000E+00 0. -1.
         -1    1    6    6    0  503  0.37434867996E+02  0.28705963764E+02 -0.33109237577E+03  0.33443618673E+03  0.00000000000E+00 0.  1.
<mgrwt>
<rscale>  0 0.17145596E+04</rscale>
<asrwt>0</asrwt>
<pdfrwt beam="1">  1        2 0.46293142E+00 0.17145596E+04</pdfrwt>
<pdfrwt beam="2">  1       -2 0.37575242E-01 0.17145596E+04</pdfrwt>
<totfact> 0.10965024E+01</totfact>
</mgrwt>
</event>
<event>
12    2  0.8147979E-008  0.1377129E+04  0.7818608E-02  0.8970542E-01
         -2   -1    0    0    0  501 -0.00000000000E+00  0.00000000000E+00  0.30641755596E+03  0.30641755596E+03  0.00000000000E+00 0.  1.
          2   -1    0    0  501    0  0.00000000000E+00 -0.00000000000E+00 -0.15473028832E+04  0.15473028832E+04  0.00000000000E+00 0. -1.
         23    2    1    2    0    0 -0.30867739606E+03  0.20637996967E+03 -0.50999045201E+03  0.63629826001E+03  0.83131148393E+02 0.  0.
        254    2    1    2    0    0  0.30867739606E+03 -0.20637996967E+03 -0.73089487522E+03  0.12174221791E+04  0.90001945362E+03 0.  0.
         23    2    4    4    0    0 -0.10251606343E+03  0.26233492970E+03 -0.42160492747E+03  0.51543035228E+03  0.92674562749E+02 0.  0.
         23    2    4    4    0    0  0.41119345949E+03 -0.46871489938E+03 -0.30928994774E+03  0.70199182685E+03  0.91425024781E+02 0.  0.
          3    1    3    3  502    0 -0.67401618522E+02  0.63526738288E+02 -0.76999399192E+02  0.12044721721E+03  0.00000000000E+00 0. -1.
         -3    1    3    3    0  502 -0.24127577754E+03  0.14285323138E+03 -0.43299105282E+03  0.51585104281E+03  0.00000000000E+00 0.  1.
         11    1    5    5    0    0 -0.11990806570E+03  0.23264883247E+03 -0.38050273756E+03  0.46182870933E+03  0.00000000000E+00 0. -1.
        -11    1    5    5    0    0  0.17392002267E+02  0.29686097234E+02 -0.41102189917E+02  0.53601642958E+02  0.00000000000E+00 0.  1.
          3    1    6    6  503    0  0.40814986060E+03 -0.46526099007E+03 -0.29244231552E+03  0.68452655572E+03  0.00000000000E+00 0. -1.
         -3    1    6    6    0  503  0.30435988951E+01 -0.34539093066E+01 -0.16847632226E+02  0.17465271122E+02  0.00000000000E+00 0.  1.
<mgrwt>
<rscale>  0 0.13771286E+04</rscale>
<asrwt>0</asrwt>
<pdfrwt beam="1">  1        2 0.23804660E+00 0.13771286E+04</pdfrwt>
<pdfrwt beam="2">  1       -2 0.47141162E-01 0.13771286E+04</pdfrwt>
<totfact> 0.49625478E+01</totfact>
</mgrwt>
</event>
<event>
12    2  0.8147979E-008  0.2869901E+04  0.7818608E-02  0.8281889E-01
         -2   -1    0    0    0  501 -0.00000000000E+00  0.00000000000E+00  0.67173630827E+03  0.67173630827E+03  0.00000000000E+00 0. -1.
          2   -1    0    0  501    0  0.00000000000E+00 -0.00000000000E+00 -0.30653152110E+04  0.30653152110E+04  0.00000000000E+00 0.  1.
         23    2    1    2    0    0 -0.20868396632E+03  0.12097900968E+04 -0.55658535266E+03  0.13522276697E+04  0.10766308517E+03 0.  0.
        254    2    1    2    0    0  0.20868396632E+03 -0.12097900968E+04 -0.18369935501E+04  0.23848238496E+04  0.89760704899E+03 0.  0.
         23    2    4    4    0    0  0.17994899524E+03  0.86924839531E+02 -0.23587867598E+03  0.32226654343E+03  0.90991244737E+02 0.  0.
         23    2    4    4    0    0  0.28734971080E+02 -0.12967149363E+04 -0.16011148741E+04  0.20625573061E+04  0.90986133329E+02 0.  0.
          4    1    3    3  502    0 -0.19492182661E+02  0.41143581157E+03 -0.18401274492E+03  0.45113197905E+03  0.00000000000E+00 0. -1.
         -4    1    3    3    0  502 -0.18919178366E+03  0.79835428519E+03 -0.37257260774E+03  0.90109569065E+03  0.00000000000E+00 0.  1.
         11    1    5    5    0    0  0.16815351500E+03  0.42258480012E+02 -0.18547030360E+03  0.25389095544E+03  0.00000000000E+00 0.  1.
        -11    1    5    5    0    0  0.11795480242E+02  0.44666359519E+02 -0.50408372380E+02  0.68375587989E+02  0.00000000000E+00 0. -1.
          3    1    6    6  503    0  0.56652660193E+01 -0.23710913983E+02 -0.14947251931E+02  0.28595856715E+02  0.00000000000E+00 0. -1.
         -3    1    6    6    0  503  0.23069705061E+02 -0.12730040223E+04 -0.15861676222E+04  0.20339614494E+04  0.00000000000E+00 0.  1.
<mgrwt>
<rscale>  0 0.28699014E+04</rscale>
<asrwt>0</asrwt>
<pdfrwt beam="1">  1        2 0.47158697E+00 0.28699014E+04</pdfrwt>
<pdfrwt beam="2">  1       -2 0.10334405E+00 0.28699014E+04</pdfrwt>
<totfact> 0.10456743E+00</totfact>
</mgrwt>
</event>
<event>
12    2  0.8147979E-008  0.1521828E+04  0.7818608E-02  0.8870066E-01
          1   -1    0    0  501    0  0.00000000000E+00  0.00000000000E+00  0.10651693756E+04  0.10651693756E+04  0.00000000000E+00 0. -1.
         -1   -1    0    0    0  501 -0.00000000000E+00 -0.00000000000E+00 -0.54356659395E+03  0.54356659395E+03  0.00000000000E+00 0.  1.
         23    2    1    2    0    0 -0.25318237711E+03  0.26310912922E+03  0.51329777683E+03  0.63647290107E+03  0.91079175112E+02 0.  0.
        254    2    1    2    0    0  0.25318237711E+03 -0.26310912922E+03  0.83050047966E+01  0.97226306846E+03  0.90105425543E+03 0.  0.
         23    2    4    4    0    0  0.20058713773E+03  0.93942429857E+02  0.37761693680E+03  0.44702174084E+03  0.90407443674E+02 0.  0.
         23    2    4    4    0    0  0.52595239377E+02 -0.35705155908E+03 -0.36931193201E+03  0.52524132763E+03  0.96099292810E+02 0.  0.
          4    1    3    3  502    0 -0.18262853860E+03  0.15991937004E+03  0.39927574818E+03  0.46727776655E+03  0.00000000000E+00 0. -1.
         -4    1    3    3    0  502 -0.70553838507E+02  0.10318975918E+03  0.11402202865E+03  0.16919513452E+03  0.00000000000E+00 0.  1.
         11    1    5    5    0    0  0.67688626443E+02  0.69776847366E+02  0.10700558953E+03  0.14457093335E+03  0.00000000000E+00 0. -1.
        -11    1    5    5    0    0  0.13289851129E+03  0.24165582490E+02  0.27061134727E+03  0.30245080749E+03  0.00000000000E+00 0.  1.
          1    1    6    6  503    0 -0.77697931109E+01 -0.23948077911E+03 -0.21348833932E+03  0.32091850098E+03  0.00000000000E+00 0. -1.
         -1    1    6    6    0  503  0.60365032487E+02 -0.11757077997E+03 -0.15582359268E+03  0.20432282664E+03  0.00000000000E+00 0.  1.
<mgrwt>
<rscale>  0 0.15218285E+04</rscale>
<asrwt>0</asrwt>
<pdfrwt beam="1">  1        1 0.16387221E+00 0.15218285E+04</pdfrwt>
<pdfrwt beam="2">  1       -1 0.83625630E-01 0.15218285E+04</pdfrwt>
<totfact> 0.18457341E+01</totfact>
</mgrwt>
</event>
<event>
12    2  0.8147979E-008  0.1575589E+04  0.7818608E-02  0.8835687E-01
         -1   -1    0    0    0  501 -0.00000000000E+00  0.00000000000E+00  0.16170305108E+04  0.16170305108E+04  0.00000000000E+00 0.  1.
          1   -1    0    0  501    0  0.00000000000E+00 -0.00000000000E+00 -0.38380214768E+03  0.38380214768E+03  0.00000000000E+00 0. -1.
         23    2    1    2    0    0  0.44849583789E+03 -0.25463371691E+02  0.71067725580E+02  0.46376741768E+03  0.90734206232E+02 0.  0.
        254    2    1    2    0    0 -0.44849583789E+03  0.25463371691E+02  0.11621606376E+04  0.15370652408E+04  0.90008627760E+03 0.  0.
         23    2    4    4    0    0  0.24293566784E+02  0.33087175760E+03  0.77513871327E+03  0.84795259863E+03  0.90095989658E+02 0.  0.
         23    2    4    4    0    0 -0.47278940468E+03 -0.30540838591E+03  0.38702192432E+03  0.68911264220E+03  0.91028349332E+02 0.  0.
          2    1    3    3  502    0  0.28561376875E+03 -0.53769407374E+02  0.67689812641E+02  0.29840959234E+03  0.00000000000E+00 0. -1.
         -2    1    3    3    0  502  0.16288206915E+03  0.28306035682E+02  0.33779129383E+01  0.16535782534E+03  0.00000000000E+00 0.  1.
         11    1    5    5    0    0 -0.17246483911E+02  0.16569341347E+03  0.29912438560E+03  0.34238450101E+03  0.00000000000E+00 0. -1.
        -11    1    5    5    0    0  0.41540050694E+02  0.16517834414E+03  0.47601432767E+03  0.50556809762E+03  0.00000000000E+00 0.  1.
          1    1    6    6  503    0 -0.19368663870E+02 -0.37293263264E+02  0.42025583036E+02  0.59431323850E+02  0.00000000000E+00 0. -1.
         -1    1    6    6    0  503 -0.45342074081E+03 -0.26811512265E+03  0.34499634128E+03  0.62968131836E+03  0.00000000000E+00 0.  1.
<mgrwt>
<rscale>  0 0.15755885E+04</rscale>
<asrwt>0</asrwt>
<pdfrwt beam="1">  1        1 0.59046485E-01 0.15755885E+04</pdfrwt>
<pdfrwt beam="2">  1       -1 0.24877392E+00 0.15755885E+04</pdfrwt>
<totfact> 0.43302495E+00</totfact>
</mgrwt>
</event>
<event>
12    2  0.8147979E-008  0.1943548E+04  0.7818608E-02  0.8633478E-01
         -2   -1    0    0    0  501 -0.00000000000E+00  0.00000000000E+00  0.27651474060E+03  0.27651474060E+03  0.00000000000E+00 0.  1.
          2   -1    0    0  501    0  0.00000000000E+00 -0.00000000000E+00 -0.34151688473E+04  0.34151688473E+04  0.00000000000E+00 0. -1.
         23    2    1    2    0    0  0.17027741471E+03  0.67523702150E+03 -0.65739072661E+03  0.96177951161E+03  0.88982180054E+02 0.  0.
        254    2    1    2    0    0 -0.17027741471E+03 -0.67523702150E+03 -0.24812633801E+04  0.27299040763E+04  0.90042704931E+03 0.  0.
         23    2    4    4    0    0 -0.29867355350E+03 -0.37528769185E+03 -0.22908702040E+04  0.23423469929E+04  0.91958687058E+02 0.  0.
         23    2    4    4    0    0  0.12839613879E+03 -0.29994932965E+03 -0.19039317606E+03  0.38755708340E+03  0.86578072216E+02 0.  0.
          4    1    3    3  502    0  0.11675853883E+03  0.30505902487E+03 -0.33652659187E+03  0.46898156902E+03  0.00000000000E+00 0. -1.
         -4    1    3    3    0  502  0.53518875876E+02  0.37017799663E+03 -0.32086413474E+03  0.49279794259E+03  0.00000000000E+00 0.  1.
         11    1    5    5    0    0 -0.30475446889E+03 -0.36091672184E+03 -0.22324666174E+04  0.22818946874E+04  0.00000000000E+00 0. -1.
        -11    1    5    5    0    0  0.60809153898E+01 -0.14370970006E+02 -0.58403586625E+02  0.60452305510E+02  0.00000000000E+00 0.  1.
          3    1    6    6  503    0  0.13515098246E+03 -0.23593583074E+03 -0.14013095293E+03  0.30588917643E+03  0.00000000000E+00 0. -1.
         -3    1    6    6    0  503 -0.67548436615E+01 -0.64013498902E+02 -0.50262223127E+02  0.81667906966E+02  0.00000000000E+00 0.  1.
<mgrwt>
<rscale>  0 0.19435478E+04</rscale>
<asrwt>0</asrwt>
<pdfrwt beam="1">  1        2 0.52541056E+00 0.19435478E+04</pdfrwt>
<pdfrwt beam="2">  1       -2 0.42540732E-01 0.19435478E+04</pdfrwt>
<totfact> 0.45762853E+00</totfact>
</mgrwt>
</event>
<event>
12    2  0.8147979E-008  0.1276968E+04  0.7818608E-02  0.9048032E-01
          2   -1    0    0  501    0  0.00000000000E+00  0.00000000000E+00  0.66636207228E+03  0.66636207228E+03  0.00000000000E+00 0. -1.
         -2   -1    0    0    0  501 -0.00000000000E+00 -0.00000000000E+00 -0.61177244726E+03  0.61177244726E+03  0.00000000000E+00 0.  1.
         23    2    1    2    0    0  0.18108620167E+03 -0.25215756081E+03  0.25162603576E+02  0.32482056875E+03  0.92193260904E+02 0.  0.
        254    2    1    2    0    0 -0.18108620167E+03  0.25215756081E+03  0.29427021452E+02  0.95331395079E+03  0.90086951956E+03 0.  0.
         23    2    4    4    0    0 -0.43942107323E+03  0.15191856806E+03  0.29471466153E+03  0.55829396576E+03  0.93087537079E+02 0.  0.
         23    2    4    4    0    0  0.25833487156E+03  0.10023899274E+03 -0.26528764008E+03  0.39501998503E+03  0.94225766465E+02 0.  0.
          3    1    3    3  502    0  0.49421282409E+02 -0.13429046472E+02  0.36220812687E+01  0.51341230184E+02  0.00000000000E+00 0. -1.
         -3    1    3    3    0  502  0.13166491926E+03 -0.23872851433E+03  0.21540522307E+02  0.27347933857E+03  0.00000000000E+00 0.  1.
         11    1    5    5    0    0 -0.54397114779E+02  0.17795439097E+02  0.77448238175E+02  0.96301367308E+02  0.00000000000E+00 0. -1.
        -11    1    5    5    0    0 -0.38502395845E+03  0.13412312897E+03  0.21726642336E+03  0.46199259845E+03  0.00000000000E+00 0.  1.
          2    1    6    6  503    0  0.39269348611E+02  0.87008018610E+01 -0.94048626390E+02  0.10228846376E+03  0.00000000000E+00 0. -1.
         -2    1    6    6    0  503  0.21906552295E+03  0.91538190882E+02 -0.17123901369E+03  0.29273152127E+03  0.00000000000E+00 0.  1.
<mgrwt>
<rscale>  0 0.12769682E+04</rscale>
<asrwt>0</asrwt>
<pdfrwt beam="1">  1        2 0.10251724E+00 0.12769682E+04</pdfrwt>
<pdfrwt beam="2">  1       -2 0.94118838E-01 0.12769682E+04</pdfrwt>
<totfact> 0.40778250E+01</totfact>
</mgrwt>
</event>
<event>
12    2  0.8147979E-008  0.1634282E+04  0.7818608E-02  0.8799760E-01
         -2   -1    0    0    0  501 -0.00000000000E+00  0.00000000000E+00  0.25347190026E+03  0.25347190026E+03  0.00000000000E+00 0.  1.
          2   -1    0    0  501    0  0.00000000000E+00 -0.00000000000E+00 -0.26342947699E+04  0.26342947699E+04  0.00000000000E+00 0. -1.
         23    2    1    2    0    0  0.18362655259E+03 -0.51204323766E+03 -0.55429045327E+03  0.78191517707E+03  0.90809963590E+02 0.  0.
        254    2    1    2    0    0 -0.18362655259E+03  0.51204323766E+03 -0.18265324164E+04  0.21058514931E+04  0.89581407381E+03 0.  0.
         23    2    4    4    0    0 -0.21677281540E+03  0.51002369995E+03 -0.43126130818E+03  0.70737914082E+03  0.85348139564E+02 0.  0.
         23    2    4    4    0    0  0.33146262812E+02  0.20195377139E+01 -0.13952711082E+04  0.13984723523E+04  0.88547735402E+02 0.  0.
          1    1    3    3  502    0  0.77162289807E+02 -0.21897727933E+03 -0.30134871709E+03  0.38041571618E+03  0.00000000000E+00 0. -1.
         -1    1    3    3    0  502  0.10646426278E+03 -0.29306595834E+03 -0.25294173619E+03  0.40149946089E+03  0.00000000000E+00 0.  1.
         11    1    5    5    0    0 -0.12036925477E+03  0.17744146845E+03 -0.16813486123E+03  0.27247672154E+03  0.00000000000E+00 0.  1.
        -11    1    5    5    0    0 -0.96403560627E+02  0.33258223150E+03 -0.26312644695E+03  0.43490241928E+03  0.00000000000E+00 0. -1.
          3    1    6    6  503    0  0.48935711251E+02 -0.78518743894E+01 -0.13200695064E+04  0.13209995676E+04  0.00000000000E+00 0. -1.
         -3    1    6    6    0  503 -0.15789448438E+02  0.98714121033E+01 -0.75201601763E+02  0.77472784683E+02  0.00000000000E+00 0.  1.
<mgrwt>
<rscale>  0 0.16342824E+04</rscale>
<asrwt>0</asrwt>
<pdfrwt beam="1">  1        2 0.40527613E+00 0.16342824E+04</pdfrwt>
<pdfrwt beam="2">  1       -2 0.38995676E-01 0.16342824E+04</pdfrwt>
<totfact> 0.17317131E+01</totfact>
</mgrwt>
</event>
<event>
12    2  0.8147979E-008  0.3550343E+04  0.7818608E-02  0.8101962E-01
          2   -1    0    0  501    0  0.00000000000E+00  0.00000000000E+00  0.30303805995E+04  0.30303805995E+04  0.00000000000E+00 0. -1.
         -2   -1    0    0    0  501 -0.00000000000E+00 -0.00000000000E+00 -0.10398805470E+04  0.10398805470E+04  0.00000000000E+00 0.  1.
         23    2    1    2    0    0  0.53979918751E+03  0.56387792081E+03  0.26111460104E+04  0.27268208642E+04  0.90150238738E+02 0.  0.
        254    2    1    2    0    0 -0.53979918751E+03 -0.56387792081E+03 -0.62064595793E+03  0.13434402823E+04  0.90016049384E+03 0.  0.
         23    2    4    4    0    0 -0.35757531210E+03 -0.22209846693E+02  0.13215278651E+03  0.39286089357E+03  0.92314362939E+02 0.  0.
         23    2    4    4    0    0 -0.18222387542E+03 -0.54166807412E+03 -0.75279874444E+03  0.95057938875E+03  0.10141686942E+03 0.  0.
          4    1    3    3  502    0  0.37100353839E+03  0.40572445409E+03  0.19676986511E+04  0.20430599452E+04  0.00000000000E+00 0. -1.
         -4    1    3    3    0  502  0.16879564913E+03  0.15815346672E+03  0.64344735931E+03  0.68376091904E+03  0.00000000000E+00 0.  1.
         11    1    5    5    0    0 -0.11628739685E+03 -0.50052262026E+02  0.54790108655E+02  0.13794906164E+03  0.00000000000E+00 0.  1.
        -11    1    5    5    0    0 -0.24128791525E+03  0.27842415334E+02  0.77362677858E+02  0.25491183194E+03  0.00000000000E+00 0. -1.
          4    1    6    6  503    0 -0.17970136167E+02 -0.53191354606E+01 -0.33866037071E+02  0.38705651561E+02  0.00000000000E+00 0. -1.
         -4    1    6    6    0  503 -0.16425373925E+03 -0.53634893866E+03 -0.71893270737E+03  0.91187373719E+03  0.00000000000E+00 0.  1.
<mgrwt>
<rscale>  0 0.35503430E+04</rscale>
<asrwt>0</asrwt>
<pdfrwt beam="1">  1        2 0.46621240E+00 0.35503430E+04</pdfrwt>
<pdfrwt beam="2">  1       -2 0.15998162E+00 0.35503430E+04</pdfrwt>
<totfact> 0.34330604E-01</totfact>
</mgrwt>
</event>
<event>
12    2  0.8147979E-008  0.3567219E+04  0.7818608E-02  0.8098042E-01
         -1   -1    0    0    0  501 -0.00000000000E+00  0.00000000000E+00  0.56798716382E+03  0.56798716382E+03  0.00000000000E+00 0.  1.
          1   -1    0    0  501    0  0.00000000000E+00 -0.00000000000E+00 -0.56009409981E+04  0.56009409981E+04  0.00000000000E+00 0. -1.
         23    2    1    2    0    0 -0.15855055664E+04  0.46319225270E+03 -0.27708562153E+04  0.32270964478E+04  0.90179564319E+02 0.  0.
        254    2    1    2    0    0  0.15855055664E+04 -0.46319225270E+03 -0.22620976190E+04  0.29418317141E+04  0.89939603754E+03 0.  0.
         23    2    4    4    0    0  0.55671533469E+03  0.21783789807E+03 -0.48231782108E+03  0.77430999404E+03  0.97673807306E+02 0.  0.
         23    2    4    4    0    0  0.10287902317E+04 -0.68103015077E+03 -0.17797797980E+04  0.21675217201E+04  0.91229769390E+02 0.  0.
          1    1    3    3  502    0 -0.87156563936E+03  0.30060125073E+03 -0.15294229250E+04  0.17858113728E+04  0.00000000000E+00 0. -1.
         -1    1    3    3    0  502 -0.71393992701E+03  0.16259100197E+03 -0.12414332902E+04  0.14412850750E+04  0.00000000000E+00 0.  1.
         11    1    5    5    0    0  0.36701666646E+03  0.93367855337E+02 -0.30988592178E+03  0.48933431761E+03  0.00000000000E+00 0. -1.
        -11    1    5    5    0    0  0.18969866823E+03  0.12447004273E+03 -0.17243189929E+03  0.28497567643E+03  0.00000000000E+00 0.  1.
          1    1    6    6  503    0  0.23479904728E+03 -0.16799349864E+03 -0.35358166520E+03  0.45647826033E+03  0.00000000000E+00 0. -1.
         -1    1    6    6    0  503  0.79399118439E+03 -0.51303665213E+03 -0.14261981328E+04  0.17110434598E+04  0.00000000000E+00 0.  1.
<mgrwt>
<rscale>  0 0.35672189E+04</rscale>
<asrwt>0</asrwt>
<pdfrwt beam="1">  1        1 0.86168323E+00 0.35672189E+04</pdfrwt>
<pdfrwt beam="2">  1       -1 0.87382641E-01 0.35672189E+04</pdfrwt>
<totfact> 0.10083095E-03</totfact>
</mgrwt>
</event>
<event>
12    2  0.8147979E-008  0.1719024E+04  0.7818608E-02  0.8750588E-01
          2   -1    0    0  501    0  0.00000000000E+00  0.00000000000E+00  0.45655450082E+03  0.45655450082E+03  0.00000000000E+00 0. -1.
         -2   -1    0    0    0  501 -0.00000000000E+00 -0.00000000000E+00 -0.16181226902E+04  0.16181226902E+04  0.00000000000E+00 0.  1.
         23    2    1    2    0    0  0.45184213622E+03  0.26295417394E+03 -0.82523376638E+03  0.98249298893E+03  0.10476397507E+03 0.  0.
        254    2    1    2    0    0 -0.45184213622E+03 -0.26295417394E+03 -0.33633442302E+03  0.10921842021E+04  0.89801963984E+03 0.  0.
         23    2    4    4    0    0 -0.18005093242E+03  0.80407032734E+02  0.26470685797E+03  0.34296500487E+03  0.93121666265E+02 0.  0.
         23    2    4    4    0    0 -0.27179120380E+03 -0.34336120667E+03 -0.60104128099E+03  0.74921919722E+03  0.91166920126E+02 0.  0.
          1    1    3    3  502    0  0.13446319312E+03  0.97001625745E+02 -0.18144507279E+03  0.24578848659E+03  0.00000000000E+00 0. -1.
         -1    1    3    3    0  502  0.31737894311E+03  0.16595254820E+03 -0.64378869359E+03  0.73670450234E+03  0.00000000000E+00 0.  1.
         11    1    5    5    0    0 -0.27277235056E+02 -0.17070516859E+02  0.18063053007E+02  0.36901544440E+02  0.00000000000E+00 0. -1.
        -11    1    5    5    0    0 -0.15277369737E+03  0.97477549593E+02  0.24664380497E+03  0.30606346043E+03  0.00000000000E+00 0.  1.
          1    1    6    6  503    0 -0.14026656465E+03 -0.14510211396E+03 -0.34506752072E+03  0.39975108066E+03  0.00000000000E+00 0. -1.
         -1    1    6    6    0  503 -0.13152463915E+03 -0.19825909272E+03 -0.25597376027E+03  0.34946811656E+03  0.00000000000E+00 0.  1.
<mgrwt>
<rscale>  0 0.17190244E+04</rscale>
<asrwt>0</asrwt>
<pdfrwt beam="1">  1        2 0.70239154E-01 0.17190244E+04</pdfrwt>
<pdfrwt beam="2">  1       -2 0.24894195E+00 0.17190244E+04</pdfrwt>
<totfact> 0.42397239E+00</totfact>
</mgrwt>
</event>
<event>
12    2  0.8147979E-008  0.3043003E+04  0.7818608E-02  0.8231557E-01
         -1   -1    0    0    0  501 -0.00000000000E+00  0.00000000000E+00  0.15383342066E+04  0.15383342066E+04  0.00000000000E+00 0.  1.
          1   -1    0    0  501    0  0.00000000000E+00 -0.00000000000E+00 -0.15048533179E+04  0.15048533179E+04  0.00000000000E+00 0. -1.
         23    2    1    2    0    0  0.59167247169E+03  0.59848341352E+03  0.11144908420E+04  0.13998499320E+04  0.96079578057E+02 0.  0.
        254    2    1    2    0    0 -0.59167247169E+03 -0.59848341352E+03 -0.10810099532E+04  0.16433375925E+04  0.90758868098E+03 0.  0.
         23    2    4    4    0    0  0.22899562017E+03 -0.11465873883E+03 -0.16258675535E+03  0.31680789759E+03  0.91362850848E+02 0.  0.
         23    2    4    4    0    0 -0.82066809186E+03 -0.48382467469E+03 -0.91842319789E+03  0.13265296949E+04  0.92722317576E+02 0.  0.
          1    1    3    3  502    0  0.37373346617E+03  0.37865015137E+03  0.77925932968E+03  0.94355590389E+03  0.00000000000E+00 0. -1.
         -1    1    3    3    0  502  0.21793900553E+03  0.21983326215E+03  0.33523151230E+03  0.45629402814E+03  0.00000000000E+00 0.  1.
         11    1    5    5    0    0  0.62391155164E+02 -0.46499357089E+02 -0.56899767984E+01  0.78020652961E+02  0.00000000000E+00 0.  1.
        -11    1    5    5    0    0  0.16660446500E+03 -0.68159381743E+02 -0.15689677856E+03  0.23878724463E+03  0.00000000000E+00 0. -1.
          4    1    6    6  503    0 -0.47049484862E+03 -0.28278763905E+03 -0.46535051533E+03  0.71964251785E+03  0.00000000000E+00 0. -1.
         -4    1    6    6    0  503 -0.35017324324E+03 -0.20103703564E+03 -0.45307268255E+03  0.60688717704E+03  0.00000000000E+00 0.  1.
<mgrwt>
<rscale>  0 0.30430033E+04</rscale>
<asrwt>0</asrwt>
<pdfrwt beam="1">  1        1 0.23151589E+00 0.30430033E+04</pdfrwt>
<pdfrwt beam="2">  1       -1 0.23666680E+00 0.30430033E+04</pdfrwt>
<totfact> 0.46938018E-01</totfact>
</mgrwt>
</event>
<event>
12    2  0.8147979E-008  0.2314525E+04  0.7818608E-02  0.8472216E-01
          2   -1    0    0  501    0  0.00000000000E+00  0.00000000000E+00  0.18865676360E+04  0.18865676360E+04  0.00000000000E+00 0.  1.
         -2   -1    0    0    0  501 -0.00000000000E+00 -0.00000000000E+00 -0.70989036670E+03  0.70989036670E+03  0.00000000000E+00 0. -1.
         23    2    1    2    0    0  0.21893009132E+03 -0.91298741998E+03  0.19098574383E+03  0.96244063024E+03  0.91323592082E+02 0.  0.
        254    2    1    2    0    0 -0.21893009132E+03  0.91298741998E+03  0.98569152548E+03  0.16340173725E+04  0.90385207649E+03 0.  0.
         23    2    4    4    0    0 -0.50126371103E+03  0.75647428724E+03  0.91334041318E+03  0.12907935747E+04  0.91862326099E+02 0.  0.
         23    2    4    4    0    0  0.28233361971E+03  0.15651313274E+03  0.72351112303E+02  0.34322379774E+03  0.91428979757E+02 0.  0.
          4    1    3    3  502    0  0.45089314669E+02 -0.36961202449E+03  0.61035077764E+02  0.37732131621E+03  0.00000000000E+00 0. -1.
         -4    1    3    3    0  502  0.17384077665E+03 -0.54337539549E+03  0.12995066607E+03  0.58511931404E+03  0.00000000000E+00 0.  1.
         11    1    5    5    0    0 -0.26750245546E+03  0.32165390628E+03  0.40985709227E+03  0.58566341458E+03  0.00000000000E+00 0.  1.
        -11    1    5    5    0    0 -0.23376125558E+03  0.43482038096E+03  0.50348332091E+03  0.70513016014E+03  0.00000000000E+00 0. -1.
          4    1    6    6  503    0  0.12697292846E+03  0.31186151256E+02 -0.46623083893E+00  0.13074753521E+03  0.00000000000E+00 0. -1.
         -4    1    6    6    0  503  0.15536069125E+03  0.12532698149E+03  0.72817343142E+02  0.21247626253E+03  0.00000000000E+00 0.  1.
<mgrwt>
<rscale>  0 0.23145247E+04</rscale>
<asrwt>0</asrwt>
<pdfrwt beam="1">  1        2 0.29024117E+00 0.23145247E+04</pdfrwt>
<pdfrwt beam="2">  1       -2 0.10921390E+00 0.23145247E+04</pdfrwt>
<totfact> 0.46765899E+00</totfact>
</mgrwt>
</event>
<event>
12    2  0.8147979E-008  0.2905943E+04  0.7818608E-02  0.8271112E-01
         -1   -1    0    0    0  501 -0.00000000000E+00  0.00000000000E+00  0.51787315873E+03  0.51787315873E+03  0.00000000000E+00 0.  1.
          1   -1    0    0  501    0  0.00000000000E+00 -0.00000000000E+00 -0.40765309710E+04  0.40765309710E+04  0.00000000000E+00 0. -1.
         23    2    1    2    0    0 -0.86625104412E+02 -0.77950221764E+03 -0.32789472310E+04  0.33728278541E+04  0.96670439984E+02 0.  0.
        254    2    1    2    0    0  0.86625104412E+02  0.77950221764E+03 -0.27971058132E+03  0.12215762756E+04  0.89380253518E+03 0.  0.
         23    2    4    4    0    0 -0.36762949904E+03  0.31755827373E+03 -0.27633182043E+03  0.56598336679E+03  0.89348702965E+02 0.  0.
         23    2    4    4    0    0  0.45425460345E+03  0.46194394390E+03 -0.33787608922E+01  0.65559290885E+03  0.10025564346E+03 0.  0.
          3    1    3    3  502    0  0.13492386223E+02 -0.25027020704E+03 -0.96441320126E+03  0.99644871609E+03  0.00000000000E+00 0. -1.
         -3    1    3    3    0  502 -0.10011749064E+03 -0.52923201059E+03 -0.23145340297E+04  0.23763791380E+04  0.00000000000E+00 0.  1.
         11    1    5    5    0    0 -0.28283333555E+03  0.19069393783E+03 -0.18284165580E+03  0.38702705941E+03  0.00000000000E+00 0. -1.
        -11    1    5    5    0    0 -0.84796163485E+02  0.12686433591E+03 -0.93490164634E+02  0.17895630738E+03  0.00000000000E+00 0.  1.
          4    1    6    6  503    0  0.66837548880E+02  0.10345709199E+03 -0.31101339504E+02  0.12703511775E+03  0.00000000000E+00 0. -1.
         -4    1    6    6    0  503  0.38741705457E+03  0.35848685191E+03  0.27722578612E+02  0.52855779110E+03  0.00000000000E+00 0.  1.
<mgrwt>
<rscale>  0 0.29059429E+04</rscale>
<asrwt>0</asrwt>
<pdfrwt beam="1">  1        1 0.62715862E+00 0.29059429E+04</pdfrwt>
<pdfrwt beam="2">  1       -1 0.79672792E-01 0.29059429E+04</pdfrwt>
<totfact> 0.11072278E-01</totfact>
</mgrwt>
</event>
<event>
12    2  0.8147979E-008  0.1615243E+04  0.7818608E-02  0.8811238E-01
         -1   -1    0    0    0  501 -0.00000000000E+00  0.00000000000E+00  0.62943433089E+03  0.62943433089E+03  0.00000000000E+00 0.  1.
          1   -1    0    0  501    0  0.00000000000E+00 -0.00000000000E+00 -0.10362518150E+04  0.10362518150E+04  0.00000000000E+00 0. -1.
         23    2    1    2    0    0 -0.47670678350E+03 -0.27688654576E+03 -0.12964600070E+03  0.57363805530E+03  0.91307263268E+02 0.  0.
        254    2    1    2    0    0  0.47670678350E+03  0.27688654576E+03 -0.27717148340E+03  0.10920480906E+04  0.90101580689E+03 0.  0.
         23    2    4    4    0    0  0.13647466136E+03  0.18024179912E+03 -0.57305923861E+03  0.62174768737E+03  0.84028902464E+02 0.  0.
         23    2    4    4    0    0  0.34023212215E+03  0.96644746637E+02  0.29588775521E+03  0.47030040321E+03  0.92383989832E+02 0.  0.
          1    1    3    3  502    0 -0.40236991283E+03 -0.20991082617E+03 -0.13485260911E+03  0.47344411273E+03  0.00000000000E+00 0. -1.
         -1    1    3    3    0  502 -0.74336870672E+02 -0.66975719587E+02  0.52066084097E+01  0.10019394256E+03  0.00000000000E+00 0.  1.
         11    1    5    5    0    0  0.62544693209E+02  0.89716603368E+02 -0.38584410435E+03  0.40104436218E+03  0.00000000000E+00 0.  1.
        -11    1    5    5    0    0  0.73929968149E+02  0.90525195754E+02 -0.18721513426E+03  0.22070332519E+03  0.00000000000E+00 0. -1.
          3    1    6    6  503    0  0.29395532228E+03  0.10498179780E+03  0.22320497370E+03  0.38373346173E+03  0.00000000000E+00 0.  1.
         -3    1    6    6    0  503  0.46276799863E+02 -0.83370511608E+01  0.72682781516E+02  0.86566941477E+02  0.00000000000E+00 0. -1.
<mgrwt>
<rscale>  0 0.16152430E+04</rscale>
<asrwt>0</asrwt>
<pdfrwt beam="1">  1        1 0.15942336E+00 0.16152430E+04</pdfrwt>
<pdfrwt beam="2">  1       -1 0.96836051E-01 0.16152430E+04</pdfrwt>
<totfact> 0.13939045E+01</totfact>
</mgrwt>
</event>
<event>
12    2  0.8147979E-008  0.2076636E+04  0.7818608E-02  0.8571606E-01
          2   -1    0    0  501    0  0.00000000000E+00  0.00000000000E+00  0.14484885791E+04  0.14484885791E+04  0.00000000000E+00 0. -1.
         -2   -1    0    0    0  501 -0.00000000000E+00 -0.00000000000E+00 -0.74429635396E+03  0.74429635396E+03  0.00000000000E+00 0.  1.
         23    2    1    2    0    0  0.54442252779E+02  0.13567224740E+03  0.11592696651E+04  0.11740286375E+04  0.11430733931E+03 0.  0.
        254    2    1    2    0    0 -0.54442252779E+02 -0.13567224740E+03 -0.45507743992E+03  0.10187562955E+04  0.89966549104E+03 0.  0.
         23    2    4    4    0    0  0.36277598029E+03  0.37462212082E+02 -0.86564341565E+01  0.37636521249E+03  0.92552742323E+02 0.  0.
         23    2    4    4    0    0 -0.41721823306E+03 -0.17313445948E+03 -0.44642100576E+03  0.64239108305E+03  0.96581541340E+02 0.  0.
          1    1    3    3  502    0 -0.11054355768E+02  0.11072749959E+03  0.82658407938E+03  0.83404077732E+03  0.00000000000E+00 0. -1.
         -1    1    3    3    0  502  0.65496608547E+02  0.24944747809E+02  0.33268558567E+03  0.33998786021E+03  0.00000000000E+00 0.  1.
         11    1    5    5    0    0  0.23998101559E+03  0.35673372749E+02  0.36843248305E+02  0.24539947496E+03  0.00000000000E+00 0. -1.
        -11    1    5    5    0    0  0.12279496470E+03  0.17888393332E+01 -0.45499682462E+02  0.13096573752E+03  0.00000000000E+00 0.  1.
          4    1    6    6  503    0 -0.36984427176E+03 -0.15378148430E+03 -0.43223176357E+03  0.58928586247E+03  0.00000000000E+00 0. -1.
         -4    1    6    6    0  503 -0.47373961307E+02 -0.19352975183E+02 -0.14189242188E+02  0.53105220575E+02  0.00000000000E+00 0.  1.
<mgrwt>
<rscale>  0 0.20766365E+04</rscale>
<asrwt>0</asrwt>
<pdfrwt beam="1">  1        2 0.22284440E+00 0.20766365E+04</pdfrwt>
<pdfrwt beam="2">  1       -2 0.11450713E+00 0.20766365E+04</pdfrwt>
<totfact> 0.74708379E+00</totfact>
</mgrwt>
</event>
<event>
12    2  0.8147979E-008  0.1217821E+04  0.7818608E-02  0.9097399E-01
          2   -1    0    0  501    0  0.00000000000E+00  0.00000000000E+00  0.26028603708E+04  0.26028603708E+04  0.00000000000E+00 0. -1.
         -2   -1    0    0    0  501 -0.00000000000E+00 -0.00000000000E+00 -0.14244788460E+03  0.14244788460E+03  0.00000000000E+00 0.  1.
         23    2    1    2    0    0  0.43135876251E+02 -0.26117900919E+03  0.62249798478E+03  0.68253650540E+03  0.90978906812E+02 0.  0.
        254    2    1    2    0    0 -0.43135876251E+02  0.26117900919E+03  0.18379145014E+04  0.20627717500E+04  0.89834425442E+03 0.  0.
         23    2    4    4    0    0  0.67581731139E+02 -0.31806693702E+03  0.74164615699E+03  0.81478070845E+03  0.89970627895E+02 0.  0.
         23    2    4    4    0    0 -0.11071760739E+03  0.57924594621E+03  0.10962683444E+04  0.12479910416E+04  0.88843131459E+02 0.  0.
          3    1    3    3  502    0  0.11003231465E+02  0.11536960667E+01  0.60393531969E+02  0.61398540870E+02  0.00000000000E+00 0. -1.
         -3    1    3    3    0  502  0.32132644786E+02 -0.26233270526E+03  0.56210445281E+03  0.62113796453E+03  0.00000000000E+00 0.  1.
         11    1    5    5    0    0  0.24937332953E+02 -0.13803774500E+02  0.88596083224E+02  0.93068150986E+02  0.00000000000E+00 0.  1.
        -11    1    5    5    0    0  0.42644398186E+02 -0.30426316252E+03  0.65305007376E+03  0.72171255747E+03  0.00000000000E+00 0. -1.
          3    1    6    6  503    0 -0.11692499589E+03  0.40103140541E+03  0.74888956039E+03  0.85751572373E+03  0.00000000000E+00 0. -1.
         -3    1    6    6    0  503  0.62073884974E+01  0.17821454080E+03  0.34737878404E+03  0.39047531782E+03  0.00000000000E+00 0.  1.
<mgrwt>
<rscale>  0 0.12178209E+04</rscale>
<asrwt>0</asrwt>
<pdfrwt beam="1">  1        2 0.40044002E+00 0.12178209E+04</pdfrwt>
<pdfrwt beam="2">  1       -2 0.21915061E-01 0.12178209E+04</pdfrwt>
<totfact> 0.54725280E+01</totfact>
</mgrwt>
</event>
<event>
12    2  0.8147979E-008  0.3072030E+04  0.7818608E-02  0.8223456E-01
          2   -1    0    0  501    0  0.00000000000E+00  0.00000000000E+00  0.14446981252E+04  0.14446981252E+04  0.00000000000E+00 0. -1.
         -2   -1    0    0    0  501 -0.00000000000E+00 -0.00000000000E+00 -0.16331034822E+04  0.16331034822E+04  0.00000000000E+00 0.  1.
         23    2    1    2    0    0 -0.12685160041E+04 -0.27763334686E+03 -0.61970214452E+03  0.14416480304E+04  0.90028705045E+02 0.  0.
        254    2    1    2    0    0  0.12685160041E+04  0.27763334686E+03  0.43129678749E+03  0.16361535770E+04  0.89708889218E+03 0.  0.
         23    2    4    4    0    0  0.74463280148E+03  0.22131719071E+03 -0.20134417702E+03  0.80760679518E+03  0.90719072217E+02 0.  0.
         23    2    4    4    0    0  0.52388320264E+03  0.56316156157E+02  0.63264096451E+03  0.82854678177E+03  0.92898117085E+02 0.  0.
          3    1    3    3  502    0 -0.98616181566E+03 -0.25381807057E+03 -0.48559722367E+03  0.11281592987E+04  0.00000000000E+00 0. -1.
         -3    1    3    3    0  502 -0.28235418846E+03 -0.23815276290E+02 -0.13410492085E+03  0.31348873173E+03  0.00000000000E+00 0.  1.
         11    1    5    5    0    0  0.40580788984E+03  0.73623882773E+02 -0.11108028640E+03  0.42712919544E+03  0.00000000000E+00 0.  1.
        -11    1    5    5    0    0  0.33882491164E+03  0.14769330793E+03 -0.90263890620E+02  0.38047759974E+03  0.00000000000E+00 0. -1.
          3    1    6    6  503    0  0.27063793213E+03 -0.89235015077E+01  0.27998700459E+03  0.38950897541E+03  0.00000000000E+00 0. -1.
         -3    1    6    6    0  503  0.25324527051E+03  0.65239657665E+02  0.35265395991E+03  0.43903780636E+03  0.00000000000E+00 0.  1.
<mgrwt>
<rscale>  0 0.30720296E+04</rscale>
<asrwt>0</asrwt>
<pdfrwt beam="1">  1        2 0.22226125E+00 0.30720296E+04</pdfrwt>
<pdfrwt beam="2">  1       -2 0.25124669E+00 0.30720296E+04</pdfrwt>
<totfact> 0.73310012E-01</totfact>
</mgrwt>
</event>
<event>
12    2  0.8147979E-008  0.2621422E+04  0.7818608E-02  0.8360961E-01
         -1   -1    0    0    0  501 -0.00000000000E+00  0.00000000000E+00  0.10605453856E+04  0.10605453856E+04  0.00000000000E+00 0.  1.
          1   -1    0    0  501    0  0.00000000000E+00 -0.00000000000E+00 -0.16198871116E+04  0.16198871116E+04  0.00000000000E+00 0. -1.
         23    2    1    2    0    0  0.78596829799E+03 -0.78638857252E+03  0.69812510803E+02  0.11171817565E+04  0.84072218918E+02 0.  0.
        254    2    1    2    0    0 -0.78596829799E+03  0.78638857252E+03 -0.62915423676E+03  0.15632507407E+04  0.90097984010E+03 0.  0.
         23    2    4    4    0    0 -0.77232133208E+03  0.69348973196E+03 -0.13451065226E+03  0.10505110384E+04  0.89844743248E+02 0.  0.
         23    2    4    4    0    0 -0.13646965914E+02  0.92898840566E+02 -0.49464358450E+03  0.51273970233E+03  0.97022123243E+02 0.  0.
          1    1    3    3  502    0  0.22845822458E+03 -0.17746874484E+03  0.10999796853E+02  0.28949837876E+03  0.00000000000E+00 0. -1.
         -1    1    3    3    0  502  0.55751007342E+03 -0.60891982768E+03  0.58812713950E+02  0.82768337776E+03  0.00000000000E+00 0.  1.
         11    1    5    5    0    0 -0.23225250547E+03  0.25095747466E+03 -0.72548576969E+02  0.34954853226E+03  0.00000000000E+00 0.  1.
        -11    1    5    5    0    0 -0.54006882661E+03  0.44253225730E+03 -0.61962075295E+02  0.70096250613E+03  0.00000000000E+00 0. -1.
          2    1    6    6  503    0 -0.22446276974E+01  0.76357354571E+02 -0.15800678572E+03  0.17550392669E+03  0.00000000000E+00 0. -1.
         -2    1    6    6    0  503 -0.11402338216E+02  0.16541485994E+02 -0.33663679878E+03  0.33723577564E+03  0.00000000000E+00 0.  1.
<mgrwt>
<rscale>  0 0.26214224E+04</rscale>
<asrwt>0</asrwt>
<pdfrwt beam="1">  1        1 0.24921340E+00 0.26214224E+04</pdfrwt>
<pdfrwt beam="2">  1       -1 0.16316083E+00 0.26214224E+04</pdfrwt>
<totfact> 0.13150015E+00</totfact>
</mgrwt>
</event>
<event>
12    2  0.8147979E-008  0.2855022E+04  0.7818608E-02  0.8286387E-01
          1   -1    0    0  501    0  0.00000000000E+00  0.00000000000E+00  0.25837094187E+04  0.25837094187E+04  0.00000000000E+00 0. -1.
         -1   -1    0    0    0  501 -0.00000000000E+00 -0.00000000000E+00 -0.78870608608E+03  0.78870608608E+03  0.00000000000E+00 0.  1.
         23    2    1    2    0    0  0.47364338973E+02 -0.12561161298E+04  0.49892931519E+03  0.13554679121E+04  0.91058700659E+02 0.  0.
        254    2    1    2    0    0 -0.47364338973E+02  0.12561161298E+04  0.12960740175E+04  0.20169475928E+04  0.89899867688E+03 0.  0.
         23    2    4    4    0    0 -0.17675841842E+03  0.15077158895E+03 -0.63957602938E+02  0.25719830472E+03  0.89915418358E+02 0.  0.
         23    2    4    4    0    0  0.12939407945E+03  0.11053445408E+04  0.13600316204E+04  0.17597492880E+04  0.92207193166E+02 0.  0.
          1    1    3    3  502    0  0.38071027185E+02 -0.86744701131E+03  0.38904950277E+03  0.95145847841E+03  0.00000000000E+00 0. -1.
         -1    1    3    3    0  502  0.92933117881E+01 -0.38866911849E+03  0.10987981243E+03  0.40400943366E+03  0.00000000000E+00 0.  1.
         11    1    5    5    0    0 -0.57514019260E+02  0.53396509058E+02  0.21161292760E+02  0.81282531348E+02  0.00000000000E+00 0. -1.
        -11    1    5    5    0    0 -0.11924439916E+03  0.97375079892E+02 -0.85118895698E+02  0.17591577337E+03  0.00000000000E+00 0.  1.
          2    1    6    6  503    0  0.36351169900E+02  0.12396805449E+03  0.12770454077E+03  0.18165333969E+03  0.00000000000E+00 0. -1.
         -2    1    6    6    0  503  0.93042909549E+02  0.98137648636E+03  0.12323270796E+04  0.15780959484E+04  0.00000000000E+00 0.  1.
<mgrwt>
<rscale>  0 0.28550218E+04</rscale>
<asrwt>0</asrwt>
<pdfrwt beam="1">  1        1 0.39749375E+00 0.28550218E+04</pdfrwt>
<pdfrwt beam="2">  1       -1 0.12133940E+00 0.28550218E+04</pdfrwt>
<totfact> 0.61456169E-01</totfact>
</mgrwt>
</event>
<event>
12    2  0.8147979E-008  0.3810111E+04  0.7818608E-02  0.8043989E-01
          2   -1    0    0  501    0  0.00000000000E+00  0.00000000000E+00  0.17402008747E+04  0.17402008747E+04  0.00000000000E+00 0. -1.
         -2   -1    0    0    0  501 -0.00000000000E+00 -0.00000000000E+00 -0.20855275521E+04  0.20855275521E+04  0.00000000000E+00 0.  1.
         23    2    1    2    0    0  0.81007889972E+03 -0.14594706666E+04 -0.83036413008E+03  0.18662808126E+04  0.84953120081E+02 0.  0.
        254    2    1    2    0    0 -0.81007889972E+03  0.14594706666E+04  0.48503745275E+03  0.19594476142E+04  0.90437335853E+03 0.  0.
         23    2    4    4    0    0 -0.47252629649E+03  0.85668048311E+03  0.72528697827E+03  0.12221121996E+04  0.10165862815E+03 0.  0.
         23    2    4    4    0    0 -0.33755260323E+03  0.60279018351E+03 -0.24024952551E+03  0.73733541452E+03  0.92983405596E+02 0.  0.
          1    1    3    3  502    0  0.45126784486E+03 -0.87576011977E+03 -0.45770705135E+03  0.10863214073E+04  0.00000000000E+00 0. -1.
         -1    1    3    3    0  502  0.35881105486E+03 -0.58371054684E+03 -0.37265707872E+03  0.77995940530E+03  0.00000000000E+00 0.  1.
         11    1    5    5    0    0 -0.32855891599E+03  0.49354594053E+03  0.42932112402E+03  0.73202130039E+03  0.00000000000E+00 0. -1.
        -11    1    5    5    0    0 -0.14396738050E+03  0.36313454257E+03  0.29596585424E+03  0.49009089926E+03  0.00000000000E+00 0.  1.
          2    1    6    6  503    0 -0.12842984710E+03  0.27411399392E+03 -0.62304939617E+02  0.30905438484E+03  0.00000000000E+00 0. -1.
         -2    1    6    6    0  503 -0.20912275614E+03  0.32867618959E+03 -0.17794458590E+03  0.42828102969E+03  0.00000000000E+00 0.  1.
<mgrwt>
<rscale>  0 0.38101112E+04</rscale>
<asrwt>0</asrwt>
<pdfrwt beam="1">  1        2 0.26772321E+00 0.38101112E+04</pdfrwt>
<pdfrwt beam="2">  1       -2 0.32085039E+00 0.38101112E+04</pdfrwt>
<totfact> 0.17650966E-01</totfact>
</mgrwt>
</event>
<event>
12    2  0.8147979E-008  0.1428941E+04  0.7818608E-02  0.8933132E-01
          2   -1    0    0  501    0  0.00000000000E+00  0.00000000000E+00  0.60281881209E+03  0.60281881209E+03  0.00000000000E+00 0. -1.
         -2   -1    0    0    0  501 -0.00000000000E+00 -0.00000000000E+00 -0.84680194995E+03  0.84680194995E+03  0.00000000000E+00 0.  1.
         23    2    1    2    0    0 -0.40461141787E+03  0.11829558331E+03 -0.13451418634E+03  0.45176178055E+03  0.91051609178E+02 0.  0.
        254    2    1    2    0    0  0.40461141787E+03 -0.11829558331E+03 -0.10946895152E+03  0.99785898149E+03  0.89779443699E+03 0.  0.
         23    2    4    4    0    0 -0.21150587645E+03 -0.49370303777E+01 -0.26013273457E+03  0.34725285530E+03  0.90312766980E+02 0.  0.
         23    2    4    4    0    0  0.61611729432E+03 -0.11335855293E+03  0.15066378305E+03  0.65060612619E+03  0.90211274429E+02 0.  0.
          4    1    3    3  502    0 -0.35379924164E+03  0.75810323091E+02 -0.92991042315E+02  0.37358860050E+03  0.00000000000E+00 0. -1.
         -4    1    3    3    0  502 -0.50812176230E+02  0.42485260214E+02 -0.41523144025E+02  0.78173180045E+02  0.00000000000E+00 0.  1.
         11    1    5    5    0    0 -0.53929342081E+02 -0.34837680301E+02 -0.42863210426E+02  0.77196455321E+02  0.00000000000E+00 0.  1.
        -11    1    5    5    0    0 -0.15757653436E+03  0.29900649924E+02 -0.21726952415E+03  0.27005639998E+03  0.00000000000E+00 0. -1.
          4    1    6    6  503    0  0.37566198077E+03 -0.25253051137E+02  0.79464309927E+02  0.38480412802E+03  0.00000000000E+00 0.  1.
         -4    1    6    6    0  503  0.24045531355E+03 -0.88105501791E+02  0.71199473126E+02  0.26580199817E+03  0.00000000000E+00 0. -1.
<mgrwt>
<rscale>  0 0.14289411E+04</rscale>
<asrwt>0</asrwt>
<pdfrwt beam="1">  1        2 0.92741356E-01 0.14289411E+04</pdfrwt>
<pdfrwt beam="2">  1       -2 0.13027722E+00 0.14289411E+04</pdfrwt>
<totfact> 0.20681789E+01</totfact>
</mgrwt>
</event>
<event>
12    2  0.8147979E-008  0.2423521E+04  0.7818608E-02  0.8430750E-01
         -2   -1    0    0    0  501 -0.00000000000E+00  0.00000000000E+00  0.13772098203E+04  0.13772098203E+04  0.00000000000E+00 0.  1.
          2   -1    0    0  501    0  0.00000000000E+00 -0.00000000000E+00 -0.10661876110E+04  0.10661876110E+04  0.00000000000E+00 0. -1.
         23    2    1    2    0    0 -0.88522562365E+03 -0.54710730907E+03  0.18330180885E+03  0.10602264944E+04  0.86774730481E+02 0.  0.
        254    2    1    2    0    0  0.88522562365E+03  0.54710730907E+03  0.12772040049E+03  0.13831709369E+04  0.90216324884E+03 0.  0.
         23    2    4    4    0    0 -0.68869693072E+02 -0.13781952157E+03 -0.65324461958E+02  0.18961215830E+03  0.89152846814E+02 0.  0.
         23    2    4    4    0    0  0.95409531672E+03  0.68492683064E+03  0.19304486245E+03  0.11935587786E+04  0.88845947198E+02 0.  0.
          1    1    3    3  502    0 -0.38039410263E+03 -0.25269661002E+03  0.39481419231E+02  0.45838197226E+03  0.00000000000E+00 0. -1.
         -1    1    3    3    0  502 -0.50483152102E+03 -0.29441069905E+03  0.14382038962E+03  0.60184452212E+03  0.00000000000E+00 0.  1.
         11    1    5    5    0    0 -0.66778919491E+02 -0.75327089365E+02 -0.20954480772E+01  0.10068756320E+03  0.00000000000E+00 0.  1.
        -11    1    5    5    0    0 -0.20907735812E+01 -0.62492432201E+02 -0.63229013881E+02  0.88924595096E+02  0.00000000000E+00 0. -1.
          4    1    6    6  503    0  0.35244818910E+03  0.28478028505E+03  0.10964557181E+03  0.46619919366E+03  0.00000000000E+00 0. -1.
         -4    1    6    6    0  503  0.60164712762E+03  0.40014654559E+03  0.83399290641E+02  0.72735958493E+03  0.00000000000E+00 0.  1.
<mgrwt>
<rscale>  0 0.24235214E+04</rscale>
<asrwt>0</asrwt>
<pdfrwt beam="1">  1        2 0.16402886E+00 0.24235214E+04</pdfrwt>
<pdfrwt beam="2">  1       -2 0.21187843E+00 0.24235214E+04</pdfrwt>
<totfact> 0.22852127E+00</totfact>
</mgrwt>
</event>
<event>
12    2  0.8147979E-008  0.1402166E+04  0.7818608E-02  0.8952252E-01
         -2   -1    0    0    0  501 -0.00000000000E+00  0.00000000000E+00  0.32932106351E+03  0.32932106351E+03  0.00000000000E+00 0.  1.
          2   -1    0    0  501    0  0.00000000000E+00 -0.00000000000E+00 -0.14925170680E+04  0.14925170680E+04  0.00000000000E+00 0. -1.
         23    2    1    2    0    0 -0.34994554013E+03  0.16999185928E+03 -0.50362832685E+03  0.63967258004E+03  0.64656049686E+02 0.  0.
        254    2    1    2    0    0  0.34994554013E+03 -0.16999185928E+03 -0.65956767760E+03  0.11821655514E+04  0.90062575823E+03 0.  0.
         23    2    4    4    0    0  0.34640259834E+03 -0.40007535317E+03 -0.68771210978E+02  0.54162764586E+03  0.92606581532E+02 0.  0.
         23    2    4    4    0    0  0.35429417944E+01  0.23008349390E+03 -0.59079646662E+03  0.64053790558E+03  0.91089938586E+02 0.  0.
          1    1    3    3  502    0 -0.10564521543E+02  0.12215667152E+02 -0.64956801834E+01  0.17407627651E+02  0.00000000000E+00 0.  1.
         -1    1    3    3    0  502 -0.33938101859E+03  0.15777619212E+03 -0.49713264667E+03  0.62226495239E+03  0.00000000000E+00 0. -1.
         11    1    5    5    0    0  0.21249982399E+03 -0.29170179403E+03 -0.15160556546E+02  0.36121455440E+03  0.00000000000E+00 0.  1.
        -11    1    5    5    0    0  0.13390277435E+03 -0.10837355914E+03 -0.53610654432E+02  0.18041309145E+03  0.00000000000E+00 0. -1.
          1    1    6    6  503    0 -0.40278129971E+02  0.13547075246E+03 -0.37829990000E+03  0.40383841678E+03  0.00000000000E+00 0. -1.
         -1    1    6    6    0  503  0.43821071765E+02  0.94612741440E+02 -0.21249656662E+03  0.23669948881E+03  0.00000000000E+00 0.  1.
<mgrwt>
<rscale>  0 0.14021659E+04</rscale>
<asrwt>0</asrwt>
<pdfrwt beam="1">  1        2 0.22961801E+00 0.14021659E+04</pdfrwt>
<pdfrwt beam="2">  1       -2 0.50664779E-01 0.14021659E+04</pdfrwt>
<totfact> 0.45936117E+01</totfact>
</mgrwt>
</event>
<event>
12    2  0.8147979E-008  0.2092868E+04  0.7818608E-02  0.8564392E-01
         -1   -1    0    0    0  501 -0.00000000000E+00  0.00000000000E+00  0.17122472909E+04  0.17122472909E+04  0.00000000000E+00 0.  1.
          1   -1    0    0  501    0  0.00000000000E+00 -0.00000000000E+00 -0.63952462964E+03  0.63952462964E+03  0.00000000000E+00 0. -1.
         23    2    1    2    0    0 -0.83596038041E+03 -0.92311866281E+02  0.57665920424E+03  0.10238906299E+04  0.92005140139E+02 0.  0.
        254    2    1    2    0    0  0.83596038041E+03  0.92311866281E+02  0.49606345706E+03  0.13278812907E+04  0.89991029028E+03 0.  0.
         23    2    4    4    0    0  0.97918370031E+03  0.22685460114E+03  0.45788277572E+03  0.11082032073E+04  0.90520624319E+02 0.  0.
         23    2    4    4    0    0 -0.14322331990E+03 -0.13454273486E+03  0.38180681337E+02  0.21967808340E+03  0.90476676729E+02 0.  0.
          1    1    3    3  502    0 -0.84963755095E+00 -0.45855644163E+01 -0.87906428941E+00  0.47457390371E+01  0.00000000000E+00 0. -1.
         -1    1    3    3    0  502 -0.83511074286E+03 -0.87726301864E+02  0.57753826853E+03  0.10191448908E+04  0.00000000000E+00 0.  1.
         11    1    5    5    0    0  0.36177821119E+03  0.90971026458E+02  0.21780455912E+03  0.43196993845E+03  0.00000000000E+00 0. -1.
        -11    1    5    5    0    0  0.61740548911E+03  0.13588357468E+03  0.24007821660E+03  0.67623326888E+03  0.00000000000E+00 0.  1.
          1    1    6    6  503    0  0.54718324850E+01 -0.32190622516E+02 -0.74332562186E+01  0.33487765329E+02  0.00000000000E+00 0. -1.
         -1    1    6    6    0  503 -0.14869515238E+03 -0.10235211234E+03  0.45613937555E+02  0.18619031807E+03  0.00000000000E+00 0.  1.
<mgrwt>
<rscale>  0 0.20928682E+04</rscale>
<asrwt>0</asrwt>
<pdfrwt beam="1">  1        1 0.98388405E-01 0.20928682E+04</pdfrwt>
<pdfrwt beam="2">  1       -1 0.26342266E+00 0.20928682E+04</pdfrwt>
<totfact> 0.16367760E+00</totfact>
</mgrwt>
</event>
<event>
12    2  0.8147979E-008  0.1921981E+04  0.7818608E-02  0.8643992E-01
         -2   -1    0    0    0  501 -0.00000000000E+00  0.00000000000E+00  0.49430630622E+03  0.49430630622E+03  0.00000000000E+00 0.  1.
          2   -1    0    0  501    0  0.00000000000E+00 -0.00000000000E+00 -0.18682798012E+04  0.18682798012E+04  0.00000000000E+00 0. -1.
         23    2    1    2    0    0 -0.13288758711E+03 -0.72544547112E+03 -0.67866557723E+03  0.10063587604E+04  0.90778558223E+02 0.  0.
        254    2    1    2    0    0  0.13288758711E+03  0.72544547112E+03 -0.69530791775E+03  0.13562273470E+04  0.90109337685E+03 0.  0.
         23    2    4    4    0    0  0.22265929471E+02  0.63091572329E+03  0.21241826091E+01  0.63778771075E+03  0.90654455609E+02 0.  0.
         23    2    4    4    0    0  0.11062165763E+03  0.94529747835E+02 -0.69743210036E+03  0.71843963622E+03  0.92579435762E+02 0.  0.
          2    1    3    3  502    0 -0.12333567837E+03 -0.49628426145E+03 -0.50464175970E+03  0.71845185180E+03  0.00000000000E+00 0. -1.
         -2    1    3    3    0  502 -0.95519087318E+01 -0.22916120967E+03 -0.17402381754E+03  0.28790690865E+03  0.00000000000E+00 0.  1.
         11    1    5    5    0    0  0.21274423388E+02  0.39561635344E+03  0.44574981764E+02  0.39868763362E+03  0.00000000000E+00 0. -1.
        -11    1    5    5    0    0  0.99150608252E+00  0.23529936985E+03 -0.42450799155E+02  0.23910007713E+03  0.00000000000E+00 0.  1.
          1    1    6    6  503    0  0.27740633007E+02  0.84544647134E+02 -0.35719871421E+03  0.36811446794E+03  0.00000000000E+00 0. -1.
         -1    1    6    6    0  503  0.82881024627E+02  0.99851007003E+01 -0.34023338615E+03  0.35032516828E+03  0.00000000000E+00 0.  1.
<mgrwt>
<rscale>  0 0.19219807E+04</rscale>
<asrwt>0</asrwt>
<pdfrwt beam="1">  1        2 0.28742766E+00 0.19219807E+04</pdfrwt>
<pdfrwt beam="2">  1       -2 0.76047124E-01 0.19219807E+04</pdfrwt>
<totfact> 0.11445859E+01</totfact>
</mgrwt>
</event>
<event>
12    2  0.8147979E-008  0.2411252E+04  0.7818608E-02  0.8435303E-01
          1   -1    0    0  501    0  0.00000000000E+00  0.00000000000E+00  0.81712882341E+03  0.81712882341E+03  0.00000000000E+00 0. -1.
         -1   -1    0    0    0  501 -0.00000000000E+00 -0.00000000000E+00 -0.17788313999E+04  0.17788313999E+04  0.00000000000E+00 0.  1.
         23    2    1    2    0    0 -0.50070776717E+03  0.89325921654E+03 -0.57753138796E+03  0.11791640077E+04  0.90911808852E+02 0.  0.
        254    2    1    2    0    0  0.50070776717E+03 -0.89325921654E+03 -0.38417118854E+03  0.14167962156E+04  0.90061296813E+03 0.  0.
         23    2    4    4    0    0  0.11209589029E+03  0.85277190434E+02  0.15744277060E+03  0.22917741806E+03  0.88861550221E+02 0.  0.
         23    2    4    4    0    0  0.38861187688E+03 -0.97853640698E+03 -0.54161395914E+03  0.11876187975E+04  0.92412319926E+02 0.  0.
          1    1    3    3  502    0 -0.18202811645E+03  0.28382553974E+03 -0.14729897743E+03  0.36795130241E+03  0.00000000000E+00 0. -1.
         -1    1    3    3    0  502 -0.31867965071E+03  0.60943367680E+03 -0.43023241053E+03  0.81121270532E+03  0.00000000000E+00 0.  1.
         11    1    5    5    0    0  0.50978830987E+02  0.68761954990E+02  0.37294174895E+02  0.93369712134E+02  0.00000000000E+00 0. -1.
        -11    1    5    5    0    0  0.61117059300E+02  0.16515235444E+02  0.12014859571E+03  0.13580770593E+03  0.00000000000E+00 0.  1.
          1    1    6    6  503    0  0.23189245622E+03 -0.51708625046E+03 -0.24735688783E+03  0.61833464372E+03  0.00000000000E+00 0. -1.
         -1    1    6    6    0  503  0.15671942066E+03 -0.46145015652E+03 -0.29425707131E+03  0.56928415381E+03  0.00000000000E+00 0.  1.
<mgrwt>
<rscale>  0 0.24112523E+04</rscale>
<asrwt>0</asrwt>
<pdfrwt beam="1">  1        1 0.12571213E+00 0.24112523E+04</pdfrwt>
<pdfrwt beam="2">  1       -1 0.27366637E+00 0.24112523E+04</pdfrwt>
<totfact> 0.93564955E-01</totfact>
</mgrwt>
</event>
<event>
12    2  0.8147979E-008  0.3735601E+04  0.7818608E-02  0.8060118E-01
          1   -1    0    0  501    0  0.00000000000E+00  0.00000000000E+00  0.82590218045E+03  0.82590218045E+03  0.00000000000E+00 0. -1.
         -1   -1    0    0    0  501 -0.00000000000E+00 -0.00000000000E+00 -0.42240831818E+04  0.42240831818E+04  0.00000000000E+00 0.  1.
         23    2    1    2    0    0 -0.14349073764E+04 -0.11986986753E+03 -0.23808205263E+03  0.14622517419E+04  0.90383233671E+02 0.  0.
        254    2    1    2    0    0  0.14349073764E+04  0.11986986753E+03 -0.31600989487E+04  0.35877336203E+04  0.90126533338E+03 0.  0.
         23    2    4    4    0    0  0.13488045637E+04  0.38423754278E+03 -0.26597255489E+04  0.30082279991E+04  0.91561229900E+02 0.  0.
         23    2    4    4    0    0  0.86102812623E+02 -0.26436767525E+03 -0.50037339977E+03  0.57950562119E+03  0.90273272579E+02 0.  0.
          2    1    3    3  502    0 -0.59704462782E+03 -0.75766812381E+02 -0.13633767140E+03  0.61708253751E+03  0.00000000000E+00 0. -1.
         -2    1    3    3    0  502 -0.83786274855E+03 -0.44103055145E+02 -0.10174438123E+03  0.84516920436E+03  0.00000000000E+00 0.  1.
         11    1    5    5    0    0  0.13239637993E+04  0.36467167308E+03 -0.25861636702E+04  0.29281577997E+04  0.00000000000E+00 0.  1.
        -11    1    5    5    0    0  0.24840764431E+02  0.19565869698E+02 -0.73561878706E+02  0.80070199409E+02  0.00000000000E+00 0. -1.
          2    1    6    6  503    0 -0.11630287714E+02 -0.82511198823E+01 -0.52462775133E+02  0.54366233512E+02  0.00000000000E+00 0. -1.
         -2    1    6    6    0  503  0.97733100337E+02 -0.25611655537E+03 -0.44791062463E+03  0.52513938768E+03  0.00000000000E+00 0.  1.
<mgrwt>
<rscale>  0 0.37356014E+04</rscale>
<asrwt>0</asrwt>
<pdfrwt beam="1">  1        1 0.12706187E+00 0.37356014E+04</pdfrwt>
<pdfrwt beam="2">  1       -1 0.64985897E+00 0.37356014E+04</pdfrwt>
<totfact> 0.49071315E-03</totfact>
</mgrwt>
</event>
<event>
12    2  0.8147979E-008  0.2521268E+04  0.7818608E-02  0.8395448E-01
         -2   -1    0    0    0  501 -0.00000000000E+00  0.00000000000E+00  0.11034301245E+04  0.11034301245E+04  0.00000000000E+00 0.  1.
          2   -1    0    0  501    0  0.00000000000E+00 -0.00000000000E+00 -0.14402343776E+04  0.14402343776E+04  0.00000000000E+00 0. -1.
         23    2    1    2    0    0  0.70219295503E+02 -0.10505560971E+04 -0.46377788655E+03  0.11537496235E+04  0.86309924059E+02 0.  0.
        254    2    1    2    0    0 -0.70219295503E+02  0.10505560971E+04  0.12697363341E+03  0.13899148786E+04  0.89841093236E+03 0.  0.
         23    2    4    4    0    0 -0.13602319220E+03  0.84342506751E+03  0.46543650340E+03  0.97738117455E+03  0.93673199723E+02 0.  0.
         23    2    4    4    0    0  0.65803896697E+02  0.20713102964E+03 -0.33846286999E+03  0.41253370403E+03  0.91616190343E+02 0.  0.
          3    1    3    3  502    0  0.25758900471E+02 -0.84217311393E+03 -0.35202845210E+03  0.91315010040E+03  0.00000000000E+00 0. -1.
         -3    1    3    3    0  502  0.44460395032E+02 -0.20838298322E+03 -0.11174943445E+03  0.24059952311E+03  0.00000000000E+00 0.  1.
         11    1    5    5    0    0 -0.70850250950E+02  0.44344019784E+03  0.29769830681E+03  0.53877940662E+03  0.00000000000E+00 0. -1.
        -11    1    5    5    0    0 -0.65172941251E+02  0.39998486966E+03  0.16773819659E+03  0.43860176792E+03  0.00000000000E+00 0.  1.
          1    1    6    6  503    0 -0.63418536188E+01  0.60882806439E+02 -0.42182522608E+02  0.74339090933E+02  0.00000000000E+00 0. -1.
         -1    1    6    6    0  503  0.72145750316E+02  0.14624822320E+03 -0.29628034739E+03  0.33819461309E+03  0.00000000000E+00 0.  1.
<mgrwt>
<rscale>  0 0.25212679E+04</rscale>
<asrwt>0</asrwt>
<pdfrwt beam="1">  1        2 0.22157452E+00 0.25212679E+04</pdfrwt>
<pdfrwt beam="2">  1       -2 0.16975848E+00 0.25212679E+04</pdfrwt>
<totfact> 0.26150479E+00</totfact>
</mgrwt>
</event>
<event>
12    2  0.8147979E-008  0.3592762E+04  0.7818608E-02  0.8092152E-01
         -2   -1    0    0    0  501 -0.00000000000E+00  0.00000000000E+00  0.15672126960E+04  0.15672126960E+04  0.00000000000E+00 0.  1.
          2   -1    0    0  501    0  0.00000000000E+00 -0.00000000000E+00 -0.20590601274E+04  0.20590601274E+04  0.00000000000E+00 0. -1.
         23    2    1    2    0    0 -0.13285213946E+04 -0.82232847261E+03  0.39924170044E+03  0.16153298661E+04  0.93292166558E+02 0.  0.
        254    2    1    2    0    0  0.13285213946E+04  0.82232847261E+03 -0.89108913180E+03  0.20109429572E+04  0.89925442657E+03 0.  0.
         23    2    4    4    0    0  0.86954682323E+03  0.33241374642E+03 -0.94771841918E+03  0.13312064920E+04  0.85615102238E+02 0.  0.
         23    2    4    4    0    0  0.45897457136E+03  0.48991472620E+03  0.56629287385E+02  0.67973646522E+03  0.90336536701E+02 0.  0.
          3    1    3    3  502    0 -0.31366632831E+03 -0.23909873920E+03  0.11445414820E+03  0.41067569278E+03  0.00000000000E+00 0. -1.
         -3    1    3    3    0  502 -0.10148550663E+04 -0.58322973342E+03  0.28478755223E+03  0.12046541734E+04  0.00000000000E+00 0.  1.
         11    1    5    5    0    0  0.12134741113E+03  0.23062146593E+02 -0.15395199112E+03  0.19737850026E+03  0.00000000000E+00 0. -1.
        -11    1    5    5    0    0  0.74819941210E+03  0.30935159982E+03 -0.79376642807E+03  0.11338279918E+04  0.00000000000E+00 0.  1.
          2    1    6    6  503    0  0.35037373111E+03  0.32388864345E+03  0.62749206505E+02  0.48125156387E+03  0.00000000000E+00 0.  1.
         -2    1    6    6    0  503  0.10860084024E+03  0.16602608274E+03 -0.61199191205E+01  0.19848490135E+03  0.00000000000E+00 0. -1.
<mgrwt>
<rscale>  0 0.35927623E+04</rscale>
<asrwt>0</asrwt>
<pdfrwt beam="1">  1        2 0.31677848E+00 0.35927623E+04</pdfrwt>
<pdfrwt beam="2">  1       -2 0.24110965E+00 0.35927623E+04</pdfrwt>
<totfact> 0.36830246E-01</totfact>
</mgrwt>
</event>
<event>
12    2  0.8147979E-008  0.1430003E+04  0.7818608E-02  0.8932382E-01
         -2   -1    0    0    0  501 -0.00000000000E+00  0.00000000000E+00  0.23447735013E+03  0.23447735013E+03  0.00000000000E+00 0.  1.
          2   -1    0    0  501    0  0.00000000000E+00 -0.00000000000E+00 -0.21802851330E+04  0.21802851330E+04  0.00000000000E+00 0. -1.
         23    2    1    2    0    0  0.25217932323E+03 -0.33434530045E+03 -0.46321267251E+03  0.63098255410E+03  0.90508632757E+02 0.  0.
        254    2    1    2    0    0 -0.25217932323E+03  0.33434530045E+03 -0.14825951103E+04  0.17837799290E+04  0.89911144078E+03 0.  0.
         23    2    4    4    0    0  0.30551668055E+03  0.68699187669E+02 -0.77159426327E+03  0.83751184876E+03  0.89489492244E+02 0.  0.
         23    2    4    4    0    0 -0.55769600378E+03  0.26564611279E+03 -0.71100084704E+03  0.94626808022E+03  0.91150344443E+02 0.  0.
          2    1    3    3  502    0  0.11292718299E+03 -0.10320136280E+03 -0.21827951826E+03  0.26655021672E+03  0.00000000000E+00 0. -1.
         -2    1    3    3    0  502  0.13925214023E+03 -0.23114393766E+03 -0.24493315425E+03  0.36443233738E+03  0.00000000000E+00 0.  1.
         11    1    5    5    0    0  0.36776209635E+02  0.89558993345E+01 -0.19407012911E+03  0.19772686398E+03  0.00000000000E+00 0. -1.
        -11    1    5    5    0    0  0.26874047092E+03  0.59743288334E+02 -0.57752413416E+03  0.63978498478E+03  0.00000000000E+00 0.  1.
          1    1    6    6  503    0 -0.30260187351E+03  0.19358415941E+03 -0.41819127111E+03  0.55129543791E+03  0.00000000000E+00 0. -1.
         -1    1    6    6    0  503 -0.25509413026E+03  0.72061953372E+02 -0.29280957593E+03  0.39497264231E+03  0.00000000000E+00 0.  1.
<mgrwt>
<rscale>  0 0.14300035E+04</rscale>
<asrwt>0</asrwt>
<pdfrwt beam="1">  1        2 0.33542848E+00 0.14300035E+04</pdfrwt>
<pdfrwt beam="2">  1       -2 0.36073438E-01 0.14300035E+04</pdfrwt>
<totfact> 0.37239940E+01</totfact>
</mgrwt>
</event>
<event>
12    2  0.8147979E-008  0.2855934E+04  0.7818608E-02  0.8286110E-01
          2   -1    0    0  501    0  0.00000000000E+00  0.00000000000E+00  0.23058235476E+04  0.23058235476E+04  0.00000000000E+00 0. -1.
         -2   -1    0    0    0  501 -0.00000000000E+00 -0.00000000000E+00 -0.88432177179E+03  0.88432177179E+03  0.00000000000E+00 0.  1.
         23    2    1    2    0    0  0.11974377152E+04  0.29010478508E+03  0.22614648683E+03  0.12556859571E+04  0.87104083168E+02 0.  0.
        254    2    1    2    0    0 -0.11974377152E+04 -0.29010478508E+03  0.11953552889E+04  0.19344593623E+04  0.89176279889E+03 0.  0.
         23    2    4    4    0    0  0.82073057298E+01 -0.12271785339E+03  0.51422023160E+03  0.53648484199E+03  0.90920337096E+02 0.  0.
         23    2    4    4    0    0 -0.12056450209E+04 -0.16738693170E+03  0.68113505733E+03  0.13979745203E+04  0.93752289113E+02 0.  0.
          3    1    3    3  502    0  0.82224491313E+03  0.16466750566E+03  0.17689098517E+03  0.85702538190E+03  0.00000000000E+00 0. -1.
         -3    1    3    3    0  502  0.37519280203E+03  0.12543727942E+03  0.49255501664E+02  0.39866057518E+03  0.00000000000E+00 0.  1.
         11    1    5    5    0    0 -0.85205798551E+01 -0.12486301053E+03  0.35580562342E+03  0.37717504336E+03  0.00000000000E+00 0. -1.
        -11    1    5    5    0    0  0.16727885585E+02  0.21451571428E+01  0.15841460818E+03  0.15930979863E+03  0.00000000000E+00 0.  1.
          3    1    6    6  503    0 -0.89674351552E+03 -0.11720260357E+03  0.55130468989E+03  0.10591611039E+04  0.00000000000E+00 0. -1.
         -3    1    6    6    0  503 -0.30890150536E+03 -0.50184328129E+02  0.12983036744E+03  0.33881341637E+03  0.00000000000E+00 0.  1.
<mgrwt>
<rscale>  0 0.28559341E+04</rscale>
<asrwt>0</asrwt>
<pdfrwt beam="1">  1        2 0.35474208E+00 0.28559341E+04</pdfrwt>
<pdfrwt beam="2">  1       -2 0.13604950E+00 0.28559341E+04</pdfrwt>
<totfact> 0.15071395E+00</totfact>
</mgrwt>
</event>
<event>
12    2  0.8147979E-008  0.2162932E+04  0.7818608E-02  0.8534017E-01
          1   -1    0    0  501    0  0.00000000000E+00  0.00000000000E+00  0.13192445793E+04  0.13192445793E+04  0.00000000000E+00 0. -1.
         -1   -1    0    0    0  501 -0.00000000000E+00 -0.00000000000E+00 -0.88654439668E+03  0.88654439668E+03  0.00000000000E+00 0.  1.
         23    2    1    2    0    0  0.11370733351E+03 -0.60120939809E+03  0.84355700777E+03  0.10460312349E+04  0.90613580137E+02 0.  0.
        254    2    1    2    0    0 -0.11370733351E+03  0.60120939809E+03 -0.41085682513E+03  0.11597577411E+04  0.89546222105E+03 0.  0.
         23    2    4    4    0    0  0.35369294447E+02 -0.10064960741E+03  0.17783750423E+03  0.22671977596E+03  0.91620676923E+02 0.  0.
         23    2    4    4    0    0 -0.14907662796E+03  0.70185900549E+03 -0.58869432936E+03  0.93303796518E+03  0.95754511380E+02 0.  0.
          1    1    3    3  502    0  0.11608777726E+03 -0.41741198027E+03  0.62448670283E+03  0.76006103394E+03  0.00000000000E+00 0. -1.
         -1    1    3    3    0  502 -0.23804437491E+01 -0.18379741781E+03  0.21907030493E+03  0.28597020091E+03  0.00000000000E+00 0.  1.
         11    1    5    5    0    0 -0.84301512062E+01  0.97648313803E+00  0.75548767321E+02  0.76023925263E+02  0.00000000000E+00 0. -1.
        -11    1    5    5    0    0  0.43799445653E+02 -0.10162609054E+03  0.10228873691E+03  0.15069585069E+03  0.00000000000E+00 0.  1.
          2    1    6    6  503    0 -0.54084935340E+02  0.30777882000E+03 -0.31641943869E+03  0.44471816182E+03  0.00000000000E+00 0. -1.
         -2    1    6    6    0  503 -0.94991692616E+02  0.39408018549E+03 -0.27227489068E+03  0.48831980336E+03  0.00000000000E+00 0.  1.
<mgrwt>
<rscale>  0 0.21629322E+04</rscale>
<asrwt>0</asrwt>
<pdfrwt beam="1">  1        1 0.20296070E+00 0.21629322E+04</pdfrwt>
<pdfrwt beam="2">  1       -1 0.13639145E+00 0.21629322E+04</pdfrwt>
<totfact> 0.35965794E+00</totfact>
</mgrwt>
</event>
<event>
12    2  0.8147979E-008  0.2705138E+04  0.7818608E-02  0.8333340E-01
         -2   -1    0    0    0  501 -0.00000000000E+00  0.00000000000E+00  0.89226682393E+03  0.89226682393E+03  0.00000000000E+00 0. -1.
          2   -1    0    0  501    0  0.00000000000E+00 -0.00000000000E+00 -0.20503308987E+04  0.20503308987E+04  0.00000000000E+00 0.  1.
         23    2    1    2    0    0  0.33835068267E+01 -0.11851178878E+04 -0.71987171411E+03  0.13896035314E+04  0.90922129476E+02 0.  0.
        254    2    1    2    0    0 -0.33835068267E+01  0.11851178878E+04 -0.43819236068E+03  0.15529941912E+04  0.90291890933E+03 0.  0.
         23    2    4    4    0    0 -0.17443128069E+03 -0.75750740295E+02 -0.10090634386E+03  0.23335372995E+03  0.90041250061E+02 0.  0.
         23    2    4    4    0    0  0.17104777386E+03  0.12608686281E+04 -0.33728601681E+03  0.13196404613E+04  0.92962635187E+02 0.  0.
          1    1    3    3  502    0  0.22936093783E+02 -0.32488976954E+03 -0.15846118226E+03  0.36220073583E+03  0.00000000000E+00 0. -1.
         -1    1    3    3    0  502 -0.19552586956E+02 -0.86022811828E+03 -0.56141053185E+03  0.10274027956E+04  0.00000000000E+00 0.  1.
         11    1    5    5    0    0 -0.79718428367E+02 -0.83416761259E+02 -0.55912453233E+02  0.12821695015E+03  0.00000000000E+00 0. -1.
        -11    1    5    5    0    0 -0.94712852318E+02  0.76660209636E+01 -0.44993890630E+02  0.10513677980E+03  0.00000000000E+00 0.  1.
          3    1    6    6  503    0  0.32603994942E+02  0.34732466567E+03 -0.13304961158E+03  0.37336261598E+03  0.00000000000E+00 0. -1.
         -3    1    6    6    0  503  0.13844377892E+03  0.91354396245E+03 -0.20423640523E+03  0.94627784528E+03  0.00000000000E+00 0.  1.
<mgrwt>
<rscale>  0 0.27051375E+04</rscale>
<asrwt>0</asrwt>
<pdfrwt beam="1">  1        2 0.31543552E+00 0.27051375E+04</pdfrwt>
<pdfrwt beam="2">  1       -2 0.13727182E+00 0.27051375E+04</pdfrwt>
<totfact> 0.20760797E+00</totfact>
</mgrwt>
</event>
<event>
12    2  0.8147979E-008  0.1965921E+04  0.7818608E-02  0.8622721E-01
          2   -1    0    0  501    0  0.00000000000E+00  0.00000000000E+00  0.14056769439E+04  0.14056769439E+04  0.00000000000E+00 0.  1.
         -2   -1    0    0    0  501 -0.00000000000E+00 -0.00000000000E+00 -0.68736388992E+03  0.68736388992E+03  0.00000000000E+00 0. -1.
         23    2    1    2    0    0 -0.23720719217E+03 -0.73238537397E+03  0.20123240532E+03  0.80091326175E+03  0.91170082087E+02 0.  0.
        254    2    1    2    0    0  0.23720719217E+03  0.73238537397E+03  0.51708064866E+03  0.12921275721E+04  0.89975867724E+03 0.  0.
         23    2    4    4    0    0 -0.16866083630E+03  0.71891193304E+03  0.45140651455E+03  0.87000981094E+03  0.88703915316E+02 0.  0.
         23    2    4    4    0    0  0.40586802847E+03  0.13473440931E+02  0.65674134110E+02  0.42211776113E+03  0.94656865682E+02 0.  0.
          2    1    3    3  502    0 -0.71719183733E+02 -0.21792037878E+03  0.10365541603E+03  0.25174864066E+03  0.00000000000E+00 0.  1.
         -2    1    3    3    0  502 -0.16548800844E+03 -0.51446499519E+03  0.97576989297E+02  0.54916462109E+03  0.00000000000E+00 0. -1.
         11    1    5    5    0    0 -0.13915790205E+03  0.54632670170E+03  0.38529955607E+03  0.68285689174E+03  0.00000000000E+00 0. -1.
        -11    1    5    5    0    0 -0.29502934253E+02  0.17258523134E+03  0.66106958481E+02  0.18715291920E+03  0.00000000000E+00 0.  1.
          2    1    6    6  503    0  0.59104520137E+02  0.35950019889E+02  0.49033084782E+01  0.69352654344E+02  0.00000000000E+00 0.  1.
         -2    1    6    6    0  503  0.34676350834E+03 -0.22476578958E+02  0.60770825632E+02  0.35276510678E+03  0.00000000000E+00 0. -1.
<mgrwt>
<rscale>  0 0.19659212E+04</rscale>
<asrwt>0</asrwt>
<pdfrwt beam="1">  1        2 0.21625799E+00 0.19659212E+04</pdfrwt>
<pdfrwt beam="2">  1       -2 0.10574829E+00 0.19659212E+04</pdfrwt>
<totfact> 0.96707999E+00</totfact>
</mgrwt>
</event>
<event>
12    2  0.8147979E-008  0.2012347E+04  0.7818608E-02  0.8600870E-01
          2   -1    0    0  501    0  0.00000000000E+00  0.00000000000E+00  0.86310058516E+03  0.86310058516E+03  0.00000000000E+00 0. -1.
         -2   -1    0    0    0  501 -0.00000000000E+00 -0.00000000000E+00 -0.11729626349E+04  0.11729626349E+04  0.00000000000E+00 0.  1.
         23    2    1    2    0    0  0.72468503946E+03  0.10937467596E+03 -0.45142677961E+03  0.86543125901E+03  0.89743526615E+02 0.  0.
        254    2    1    2    0    0 -0.72468503946E+03 -0.10937467596E+03  0.14156472990E+03  0.11706319610E+04  0.90178012246E+03 0.  0.
         23    2    4    4    0    0 -0.76077714908E+03 -0.19506810461E+03 -0.19117163521E+03  0.81379473350E+03  0.94243504605E+02 0.  0.
         23    2    4    4    0    0  0.36092109624E+02  0.85693428646E+02  0.33273636511E+03  0.35683722752E+03  0.89293416258E+02 0.  0.
          2    1    3    3  502    0  0.33958269507E+03  0.45150317339E+02 -0.26319694562E+03  0.43200415522E+03  0.00000000000E+00 0. -1.
         -2    1    3    3    0  502  0.38510234439E+03  0.64224358621E+02 -0.18822983399E+03  0.43342710379E+03  0.00000000000E+00 0.  1.
         11    1    5    5    0    0 -0.40219522871E+03 -0.79020087244E+02 -0.57491812227E+02  0.41389670771E+03  0.00000000000E+00 0. -1.
        -11    1    5    5    0    0 -0.35858192038E+03 -0.11604801736E+03 -0.13367982299E+03  0.39989802579E+03  0.00000000000E+00 0.  1.
          2    1    6    6  503    0  0.52081093667E+02  0.38203941004E+02  0.10206455106E+03  0.12078557037E+03  0.00000000000E+00 0. -1.
         -2    1    6    6    0  503 -0.15988984043E+02  0.47489487642E+02  0.23067181405E+03  0.23605165715E+03  0.00000000000E+00 0.  1.
<mgrwt>
<rscale>  0 0.20123466E+04</rscale>
<asrwt>0</asrwt>
<pdfrwt beam="1">  1        2 0.13278471E+00 0.20123466E+04</pdfrwt>
<pdfrwt beam="2">  1       -2 0.18045579E+00 0.20123466E+04</pdfrwt>
<totfact> 0.51905970E+00</totfact>
</mgrwt>
</event>
<event>
12    2  0.8147979E-008  0.1387345E+04  0.7818608E-02  0.8963030E-01
          1   -1    0    0  501    0  0.00000000000E+00  0.00000000000E+00  0.72809688895E+03  0.72809688895E+03  0.00000000000E+00 0. -1.
         -1   -1    0    0    0  501 -0.00000000000E+00 -0.00000000000E+00 -0.66087538281E+03  0.66087538281E+03  0.00000000000E+00 0.  1.
         23    2    1    2    0    0  0.35469968009E+03 -0.13853778668E+03  0.12505211094E+03  0.41032920233E+03  0.87905872600E+02 0.  0.
        254    2    1    2    0    0 -0.35469968009E+03  0.13853778668E+03 -0.57830604796E+02  0.97864306944E+03  0.89966287970E+03 0.  0.
         23    2    4    4    0    0 -0.47446240719E+03 -0.17474578512E+03 -0.26066381774E+03  0.57614554567E+03  0.91364099464E+02 0.  0.
         23    2    4    4    0    0  0.11976272710E+03  0.31328357181E+03  0.20283321294E+03  0.40249752376E+03  0.91505394363E+02 0.  0.
          1    1    3    3  502    0  0.21917708201E+03 -0.12853782055E+03  0.68652581869E+02  0.26319905317E+03  0.00000000000E+00 0. -1.
         -1    1    3    3    0  502  0.13552259808E+03 -0.99999661332E+01  0.56399529071E+02  0.14713014916E+03  0.00000000000E+00 0.  1.
         11    1    5    5    0    0 -0.16368234427E+03 -0.98606187336E+02 -0.69016554312E+02  0.20317080197E+03  0.00000000000E+00 0. -1.
        -11    1    5    5    0    0 -0.31078006292E+03 -0.76139597785E+02 -0.19164726342E+03  0.37297474370E+03  0.00000000000E+00 0.  1.
          1    1    6    6  503    0  0.46560086299E+02  0.93158478949E+02  0.17564007537E+02  0.10561646745E+03  0.00000000000E+00 0. -1.
         -1    1    6    6    0  503  0.73202640799E+02  0.22012509286E+03  0.18526920540E+03  0.29688105631E+03  0.00000000000E+00 0.  1.
<mgrwt>
<rscale>  0 0.13873447E+04</rscale>
<asrwt>0</asrwt>
<pdfrwt beam="1">  1        1 0.11201491E+00 0.13873447E+04</pdfrwt>
<pdfrwt beam="2">  1       -1 0.10167314E+00 0.13873447E+04</pdfrwt>
<totfact> 0.22975278E+01</totfact>
</mgrwt>
</event>
<event>
12    2  0.8147979E-008  0.1627268E+04  0.7818608E-02  0.8803969E-01
         -2   -1    0    0    0  501 -0.00000000000E+00  0.00000000000E+00  0.28982811767E+03  0.28982811767E+03  0.00000000000E+00 0.  1.
          2   -1    0    0  501    0  0.00000000000E+00 -0.00000000000E+00 -0.22841127271E+04  0.22841127271E+04  0.00000000000E+00 0. -1.
         23    2    1    2    0    0  0.37407972177E+03 -0.40150505946E+03 -0.52746805875E+03  0.76684500231E+03  0.93202755105E+02 0.  0.
        254    2    1    2    0    0 -0.37407972177E+03  0.40150505946E+03 -0.14668165506E+04  0.18070958424E+04  0.90161113539E+03 0.  0.
         23    2    4    4    0    0 -0.35793362436E+03  0.60066024921E+03 -0.64228077673E+03  0.95391182929E+03  0.92271162726E+02 0.  0.
         23    2    4    4    0    0 -0.16146097415E+02 -0.19915518975E+03 -0.82453577392E+03  0.85318401314E+03  0.90223232837E+02 0.  0.
          3    1    3    3  502    0  0.30439930740E+03 -0.27857961014E+03 -0.42454013656E+03  0.59203029067E+03  0.00000000000E+00 0. -1.
         -3    1    3    3    0  502  0.69680414375E+02 -0.12292544932E+03 -0.10292792219E+03  0.17481471164E+03  0.00000000000E+00 0.  1.
         11    1    5    5    0    0 -0.32534448808E+03  0.47699618967E+03 -0.52381281926E+03  0.77958596095E+03  0.00000000000E+00 0. -1.
        -11    1    5    5    0    0 -0.32589136273E+02  0.12366405954E+03 -0.11846795747E+03  0.17432586834E+03  0.00000000000E+00 0.  1.
          4    1    6    6  503    0 -0.25839304178E+01 -0.12264492576E+03 -0.32014115371E+03  0.34283933965E+03  0.00000000000E+00 0. -1.
         -4    1    6    6    0  503 -0.13562166997E+02 -0.76510263992E+02 -0.50439462021E+03  0.51034467349E+03  0.00000000000E+00 0.  1.
<mgrwt>
<rscale>  0 0.16272678E+04</rscale>
<asrwt>0</asrwt>
<pdfrwt beam="1">  1        2 0.35140195E+00 0.16272678E+04</pdfrwt>
<pdfrwt beam="2">  1       -2 0.44588942E-01 0.16272678E+04</pdfrwt>
<totfact> 0.21148875E+01</totfact>
</mgrwt>
</event>
<event>
12    2  0.8147979E-008  0.1518672E+04  0.7818608E-02  0.8872130E-01
          2   -1    0    0  501    0  0.00000000000E+00  0.00000000000E+00  0.16852506642E+04  0.16852506642E+04  0.00000000000E+00 0. -1.
         -2   -1    0    0    0  501 -0.00000000000E+00 -0.00000000000E+00 -0.34213989458E+03  0.34213989458E+03  0.00000000000E+00 0.  1.
         23    2    1    2    0    0 -0.22371060698E+03  0.39960582668E+03  0.64581436935E+03  0.79668462882E+03  0.88876013332E+02 0.  0.
        254    2    1    2    0    0  0.22371060698E+03 -0.39960582668E+03  0.69729640025E+03  0.12307059299E+04  0.90481134155E+03 0.  0.
         23    2    4    4    0    0  0.81717875018E+02 -0.67244169112E+03  0.39353596717E+03  0.78876692416E+03  0.91799042157E+02 0.  0.
         23    2    4    4    0    0  0.14199273196E+03  0.27283586444E+03  0.30376043309E+03  0.44193900578E+03  0.91860433642E+02 0.  0.
          1    1    3    3  502    0 -0.89789986926E+02  0.14014018497E+03  0.30861430981E+03  0.35063414753E+03  0.00000000000E+00 0. -1.
         -1    1    3    3    0  502 -0.13392062005E+03  0.25946564171E+03  0.33720005954E+03  0.44605048129E+03  0.00000000000E+00 0.  1.
         11    1    5    5    0    0  0.12253880499E+02 -0.24314900806E+02  0.36546885451E+02  0.45574629177E+02  0.00000000000E+00 0. -1.
        -11    1    5    5    0    0  0.69463994519E+02 -0.64812679031E+03  0.35698908172E+03  0.74319229498E+03  0.00000000000E+00 0.  1.
          3    1    6    6  503    0  0.42605029531E+02  0.94848877071E+02  0.16608241071E+03  0.19594607720E+03  0.00000000000E+00 0. -1.
         -3    1    6    6    0  503  0.99387702425E+02  0.17798698737E+03  0.13767802237E+03  0.24599292858E+03  0.00000000000E+00 0.  1.
<mgrwt>
<rscale>  0 0.15186724E+04</rscale>
<asrwt>0</asrwt>
<pdfrwt beam="1">  1        2 0.25926933E+00 0.15186724E+04</pdfrwt>
<pdfrwt beam="2">  1       -2 0.52636908E-01 0.15186724E+04</pdfrwt>
<totfact> 0.32831480E+01</totfact>
</mgrwt>
</event>
<event>
12    2  0.8147979E-008  0.2726024E+04  0.7818608E-02  0.8326610E-01
          1   -1    0    0  501    0  0.00000000000E+00  0.00000000000E+00  0.12429446277E+04  0.12429446277E+04  0.00000000000E+00 0. -1.
         -1   -1    0    0    0  501 -0.00000000000E+00 -0.00000000000E+00 -0.14946774080E+04  0.14946774080E+04  0.00000000000E+00 0.  1.
         23    2    1    2    0    0 -0.31621460237E+03 -0.72429971579E+03  0.81155037737E+03  0.11364026605E+04  0.90527558041E+02 0.  0.
        254    2    1    2    0    0  0.31621460237E+03  0.72429971579E+03 -0.10632831577E+04  0.16012193753E+04  0.89929453534E+03 0.  0.
         23    2    4    4    0    0  0.44746103335E+03  0.29877152409E+02 -0.25573676069E+03  0.52425255020E+03  0.91243767058E+02 0.  0.
         23    2    4    4    0    0 -0.13124643098E+03  0.69442256338E+03 -0.80754639697E+03  0.10769668251E+04  0.90983717355E+02 0.  0.
          1    1    3    3  502    0 -0.13655028584E+03 -0.36333925735E+03  0.45596793583E+03  0.59880560702E+03  0.00000000000E+00 0. -1.
         -1    1    3    3    0  502 -0.17966431653E+03 -0.36096045844E+03  0.35558244155E+03  0.53759705350E+03  0.00000000000E+00 0.  1.
         11    1    5    5    0    0  0.19705526526E+03  0.17839010156E+02 -0.61763831991E+02  0.20727705805E+03  0.00000000000E+00 0. -1.
        -11    1    5    5    0    0  0.25040576808E+03  0.12038142253E+02 -0.19397292870E+03  0.31697549215E+03  0.00000000000E+00 0.  1.
          4    1    6    6  503    0 -0.72740515969E+02  0.20874706344E+03 -0.29242134914E+03  0.36657436434E+03  0.00000000000E+00 0. -1.
         -4    1    6    6    0  503 -0.58505915009E+02  0.48567549994E+03 -0.51512504783E+03  0.71039246071E+03  0.00000000000E+00 0.  1.
<mgrwt>
<rscale>  0 0.27260237E+04</rscale>
<asrwt>0</asrwt>
<pdfrwt beam="1">  1        1 0.19122225E+00 0.27260237E+04</pdfrwt>
<pdfrwt beam="2">  1       -1 0.22995037E+00 0.27260237E+04</pdfrwt>
<totfact> 0.81829677E-01</totfact>
</mgrwt>
</event>
<event>
12    2  0.8147979E-008  0.2126977E+04  0.7818608E-02  0.8549452E-01
          1   -1    0    0  501    0  0.00000000000E+00  0.00000000000E+00  0.21307640778E+04  0.21307640778E+04  0.00000000000E+00 0. -1.
         -1   -1    0    0    0  501 -0.00000000000E+00 -0.00000000000E+00 -0.53079897167E+03  0.53079897167E+03  0.00000000000E+00 0.  1.
         23    2    1    2    0    0 -0.99107092694E+02  0.59687168204E+03 -0.12385249403E+03  0.62476088104E+03  0.94385897026E+02 0.  0.
        254    2    1    2    0    0  0.99107092694E+02 -0.59687168204E+03  0.17238176002E+04  0.20368021685E+04  0.90052092372E+03 0.  0.
         23    2    4    4    0    0  0.10249354613E+03 -0.45638022092E+03  0.22231156102E+03  0.52586699103E+03  0.91245980992E+02 0.  0.
         23    2    4    4    0    0 -0.33864534374E+01 -0.14049146112E+03  0.15015060392E+04  0.15109351774E+04  0.93034434505E+02 0.  0.
          2    1    3    3  502    0 -0.77441843613E+02  0.56140059577E+03 -0.96161721442E+02  0.57481731423E+03  0.00000000000E+00 0. -1.
         -2    1    3    3    0  502 -0.21665249081E+02  0.35471086276E+02 -0.27690772588E+02  0.49943566812E+02  0.00000000000E+00 0.  1.
         11    1    5    5    0    0  0.11580259891E+03 -0.36726801037E+03  0.19541907282E+03  0.43183868212E+03  0.00000000000E+00 0.  1.
        -11    1    5    5    0    0 -0.13309052774E+02 -0.89112210550E+02  0.26892488202E+02  0.94028308911E+02  0.00000000000E+00 0. -1.
          3    1    6    6  503    0  0.15234371602E+02 -0.33240021023E+02  0.12794156870E+03  0.13306400744E+03  0.00000000000E+00 0. -1.
         -3    1    6    6    0  503 -0.18620825040E+02 -0.10725144010E+03  0.13735644705E+04  0.13778711700E+04  0.00000000000E+00 0.  1.
<mgrwt>
<rscale>  0 0.21269766E+04</rscale>
<asrwt>0</asrwt>
<pdfrwt beam="1">  1        1 0.32780985E+00 0.21269766E+04</pdfrwt>
<pdfrwt beam="2">  1       -1 0.81661381E-01 0.21269766E+04</pdfrwt>
<totfact> 0.33259534E+00</totfact>
</mgrwt>
</event>
<event>
12    2  0.8147979E-008  0.1280342E+04  0.7818608E-02  0.9045301E-01
         -1   -1    0    0    0  501 -0.00000000000E+00  0.00000000000E+00  0.63302128427E+03  0.63302128427E+03  0.00000000000E+00 0.  1.
          1   -1    0    0  501    0  0.00000000000E+00 -0.00000000000E+00 -0.64740155176E+03  0.64740155176E+03  0.00000000000E+00 0. -1.
         23    2    1    2    0    0 -0.12339645303E+03  0.23139071819E+03 -0.17593519038E+03  0.32898087815E+03  0.92232737615E+02 0.  0.
        254    2    1    2    0    0  0.12339645303E+03 -0.23139071819E+03  0.16155492289E+03  0.95144195788E+03  0.90020745221E+03 0.  0.
         23    2    4    4    0    0  0.24312066901E+03 -0.13697222058E+03 -0.32217442833E+03  0.43604946007E+03  0.92052813360E+02 0.  0.
         23    2    4    4    0    0 -0.11972421597E+03 -0.94418497610E+02  0.48372935122E+03  0.51539249781E+03  0.91578387114E+02 0.  0.
          4    1    3    3  502    0 -0.77210590467E+02  0.16280599966E+03 -0.16724082329E+03  0.24583889395E+03  0.00000000000E+00 0. -1.
         -4    1    3    3    0  502 -0.46185862564E+02  0.68584718537E+02 -0.86943670908E+01  0.83141984199E+02  0.00000000000E+00 0.  1.
         11    1    5    5    0    0  0.20966751659E+03 -0.13528504078E+03 -0.31489347823E+03  0.40177159233E+03  0.00000000000E+00 0. -1.
        -11    1    5    5    0    0  0.33453152417E+02 -0.16871797994E+01 -0.72809501000E+01  0.34277867738E+02  0.00000000000E+00 0.  1.
          3    1    6    6  503    0 -0.55806776731E+02 -0.76651776233E+02  0.38458232809E+03  0.39609778869E+03  0.00000000000E+00 0. -1.
         -3    1    6    6    0  503 -0.63917439244E+02 -0.17766721377E+02  0.99147023134E+02  0.11929470912E+03  0.00000000000E+00 0.  1.
<mgrwt>
<rscale>  0 0.12803421E+04</rscale>
<asrwt>0</asrwt>
<pdfrwt beam="1">  1        1 0.99600238E-01 0.12803421E+04</pdfrwt>
<pdfrwt beam="2">  1       -1 0.97387890E-01 0.12803421E+04</pdfrwt>
<totfact> 0.30535680E+01</totfact>
</mgrwt>
</event>
<event>
12    2  0.8147979E-008  0.2402140E+04  0.7818608E-02  0.8438703E-01
         -3   -1    0    0    0  501 -0.00000000000E+00  0.00000000000E+00  0.15143327810E+04  0.15143327810E+04  0.00000000000E+00 0.  1.
          3   -1    0    0  501    0  0.00000000000E+00 -0.00000000000E+00 -0.95261016032E+03  0.95261016032E+03  0.00000000000E+00 0. -1.
         23    2    1    2    0    0 -0.38100773504E+03  0.93163750992E+03  0.14937010241E+02  0.10106066347E+04  0.89371762120E+02 0.  0.
        254    2    1    2    0    0  0.38100773504E+03 -0.93163750992E+03  0.54678561046E+03  0.14563363066E+04  0.89934731336E+03 0.  0.
         23    2    4    4    0    0 -0.17868832344E+02 -0.61056509925E+03  0.68148458125E+03  0.91965203754E+03  0.90717143262E+02 0.  0.
         23    2    4    4    0    0  0.39887656739E+03 -0.32107241067E+03 -0.13469897079E+03  0.53668426905E+03  0.87727891886E+02 0.  0.
          1    1    3    3  502    0 -0.36725549599E+03  0.83604599224E+03  0.19045822598E+01  0.91315558800E+03  0.00000000000E+00 0. -1.
         -1    1    3    3    0  502 -0.13752239054E+02  0.95591517680E+02  0.13032427981E+02  0.97451046739E+02  0.00000000000E+00 0.  1.
         11    1    5    5    0    0  0.88156811997E+01 -0.43342188886E+03  0.42745843603E+03  0.60881274996E+03  0.00000000000E+00 0.  1.
        -11    1    5    5    0    0 -0.26684513544E+02 -0.17714321039E+03  0.25402614522E+03  0.31083928758E+03  0.00000000000E+00 0. -1.
          3    1    6    6  503    0  0.14400454950E+03 -0.15837494932E+03 -0.84698869706E+02  0.23020389523E+03  0.00000000000E+00 0. -1.
         -3    1    6    6    0  503  0.25487201789E+03 -0.16269746134E+03 -0.50000101082E+02  0.30648037382E+03  0.00000000000E+00 0.  1.
<mgrwt>
<rscale>  0 0.24021397E+04</rscale>
<asrwt>0</asrwt>
<pdfrwt beam="1">  1        3 0.14655541E+00 0.24021397E+04</pdfrwt>
<pdfrwt beam="2">  1       -3 0.23297427E+00 0.24021397E+04</pdfrwt>
<totfact> 0.74069281E-02</totfact>
</mgrwt>
</event>
<event>
12    2  0.8147979E-008  0.1596667E+04  0.7818608E-02  0.8822598E-01
          2   -1    0    0  501    0  0.00000000000E+00  0.00000000000E+00  0.33061074209E+03  0.33061074209E+03  0.00000000000E+00 0. -1.
         -2   -1    0    0    0  501 -0.00000000000E+00 -0.00000000000E+00 -0.19277550489E+04  0.19277550489E+04  0.00000000000E+00 0.  1.
         23    2    1    2    0    0  0.39440896805E+03  0.36418696853E+03 -0.59074069314E+03  0.80343232788E+03  0.91314603516E+02 0.  0.
        254    2    1    2    0    0 -0.39440896805E+03 -0.36418696853E+03 -0.10064036136E+04  0.14549334631E+04  0.90321235949E+03 0.  0.
         23    2    4    4    0    0  0.28106097196E+03 -0.75345071760E+02 -0.35492585123E+03  0.46867745245E+03  0.94942323375E+02 0.  0.
         23    2    4    4    0    0 -0.67546994002E+03 -0.28884189677E+03 -0.65147776241E+03  0.98625601064E+03  0.92673417991E+02 0.  0.
          2    1    3    3  502    0  0.13760573181E+03  0.14855637051E+03 -0.16318504961E+03  0.26006478628E+03  0.00000000000E+00 0. -1.
         -2    1    3    3    0  502  0.25680323624E+03  0.21563059803E+03 -0.42755564353E+03  0.54336754160E+03  0.00000000000E+00 0.  1.
         11    1    5    5    0    0  0.97263475680E+02  0.11568086083E+02 -0.15623700202E+03  0.18440174922E+03  0.00000000000E+00 0. -1.
        -11    1    5    5    0    0  0.18379749628E+03 -0.86913157844E+02 -0.19868884921E+03  0.28427570323E+03  0.00000000000E+00 0.  1.
          3    1    6    6  503    0 -0.95533863200E+02 -0.50705706660E+02 -0.56855070360E+02  0.12218955246E+03  0.00000000000E+00 0. -1.
         -3    1    6    6    0  503 -0.57993607682E+03 -0.23813619011E+03 -0.59462269205E+03  0.86406645817E+03  0.00000000000E+00 0.  1.
<mgrwt>
<rscale>  0 0.15966672E+04</rscale>
<asrwt>0</asrwt>
<pdfrwt beam="1">  1        2 0.50863192E-01 0.15966672E+04</pdfrwt>
<pdfrwt beam="2">  1       -2 0.29657770E+00 0.15966672E+04</pdfrwt>
<totfact> 0.31597598E+00</totfact>
</mgrwt>
</event>
<event>
12    2  0.8147979E-008  0.1616391E+04  0.7818608E-02  0.8810541E-01
          2   -1    0    0  501    0  0.00000000000E+00  0.00000000000E+00  0.35547609702E+03  0.35547609702E+03  0.00000000000E+00 0. -1.
         -2   -1    0    0    0  501 -0.00000000000E+00 -0.00000000000E+00 -0.18374782007E+04  0.18374782007E+04  0.00000000000E+00 0.  1.
         23    2    1    2    0    0  0.19920164656E+02 -0.54667316440E+03 -0.61039047106E+03  0.82502502668E+03  0.94028750135E+02 0.  0.
        254    2    1    2    0    0 -0.19920164656E+02  0.54667316440E+03 -0.87161163257E+03  0.13679292710E+04  0.90126316400E+03 0.  0.
         23    2    4    4    0    0 -0.14649519268E+03  0.22642063541E+03 -0.95950937501E+03  0.10007303690E+04  0.89865928331E+02 0.  0.
         23    2    4    4    0    0  0.12657502802E+03  0.32025252899E+03  0.87897742438E+02  0.36719890201E+03  0.92336885737E+02 0.  0.
          2    1    3    3  502    0  0.26474597408E+02 -0.28162334065E+03 -0.24925989739E+03  0.37701870876E+03  0.00000000000E+00 0. -1.
         -2    1    3    3    0  502 -0.65544327528E+01 -0.26504982375E+03 -0.36113057367E+03  0.44800631792E+03  0.00000000000E+00 0.  1.
         11    1    5    5    0    0 -0.76272817290E+02  0.11457449318E+03 -0.64671392859E+03  0.66119873154E+03  0.00000000000E+00 0.  1.
        -11    1    5    5    0    0 -0.70222375390E+02  0.11184614223E+03 -0.31279544641E+03  0.33953163746E+03  0.00000000000E+00 0. -1.
          2    1    6    6  503    0 -0.89757073166E+01  0.11350768526E+02 -0.79520239926E+01  0.16511751983E+02  0.00000000000E+00 0. -1.
         -2    1    6    6    0  503  0.13555073534E+03  0.30890176046E+03  0.95849766430E+02  0.35068715002E+03  0.00000000000E+00 0.  1.
<mgrwt>
<rscale>  0 0.16163905E+04</rscale>
<asrwt>0</asrwt>
<pdfrwt beam="1">  1        2 0.54688630E-01 0.16163905E+04</pdfrwt>
<pdfrwt beam="2">  1       -2 0.28268896E+00 0.16163905E+04</pdfrwt>
<totfact> 0.35333916E+00</totfact>
</mgrwt>
</event>
<event>
12    2  0.8147979E-008  0.3335696E+04  0.7818608E-02  0.8153872E-01
          1   -1    0    0  501    0  0.00000000000E+00  0.00000000000E+00  0.13011986785E+04  0.13011986785E+04  0.00000000000E+00 0. -1.
         -1   -1    0    0    0  501 -0.00000000000E+00 -0.00000000000E+00 -0.21378104939E+04  0.21378104939E+04  0.00000000000E+00 0.  1.
         23    2    1    2    0    0 -0.13735141882E+04 -0.67292706055E+03 -0.16082018144E+03  0.15405699014E+04  0.90113463964E+02 0.  0.
        254    2    1    2    0    0  0.13735141882E+04  0.67292706055E+03 -0.67579163396E+03  0.18984392710E+04  0.89889113870E+03 0.  0.
         23    2    4    4    0    0 -0.73472616016E+02  0.12463162476E+03  0.63014983749E+02  0.18118469590E+03  0.89026617699E+02 0.  0.
         23    2    4    4    0    0  0.14469868042E+04  0.54829543580E+03 -0.73880661771E+03  0.17172545751E+04  0.93431049116E+02 0.  0.
          1    1    3    3  502    0 -0.85526336074E+03 -0.38105390609E+03 -0.70481339802E+02  0.93895959169E+03  0.00000000000E+00 0. -1.
         -1    1    3    3    0  502 -0.51825082742E+03 -0.29187315446E+03 -0.90338841640E+02  0.60161030969E+03  0.00000000000E+00 0.  1.
         11    1    5    5    0    0 -0.23031120271E+02  0.60215288830E+02 -0.17076296363E+02  0.66692678814E+02  0.00000000000E+00 0.  1.
        -11    1    5    5    0    0 -0.50441495745E+02  0.64416335926E+02  0.80091280112E+02  0.11449201709E+03  0.00000000000E+00 0. -1.
          1    1    6    6  503    0  0.53975176401E+00  0.78760027295E+00 -0.55574824584E+01  0.56389056945E+01  0.00000000000E+00 0.  1.
         -1    1    6    6    0  503  0.14464470524E+04  0.54750783552E+03 -0.73324913525E+03  0.17116156694E+04  0.00000000000E+00 0. -1.
<mgrwt>
<rscale>  0 0.33356955E+04</rscale>
<asrwt>0</asrwt>
<pdfrwt beam="1">  1        1 0.20018441E+00 0.33356955E+04</pdfrwt>
<pdfrwt beam="2">  1       -1 0.32889392E+00 0.33356955E+04</pdfrwt>
<totfact> 0.15979542E-01</totfact>
</mgrwt>
</event>
<event>
12    2  0.8147979E-008  0.1080194E+04  0.7818608E-02  0.9224714E-01
         -1   -1    0    0    0  501 -0.00000000000E+00  0.00000000000E+00  0.60561694966E+03  0.60561694966E+03  0.00000000000E+00 0.  1.
          1   -1    0    0  501    0  0.00000000000E+00 -0.00000000000E+00 -0.48166536568E+03  0.48166536568E+03  0.00000000000E+00 0. -1.
         23    2    1    2    0    0  0.17185663103E+02  0.12607937023E+03  0.73421164741E+02  0.17297954591E+03  0.91323059830E+02 0.  0.
        254    2    1    2    0    0 -0.17185663103E+02 -0.12607937023E+03  0.50530419235E+02  0.91430276943E+03  0.90399384749E+03 0.  0.
         23    2    4    4    0    0 -0.25443237205E+03 -0.23330564860E+02 -0.34174206173E+03  0.43584297272E+03  0.88833062043E+02 0.  0.
         23    2    4    4    0    0  0.23724670895E+03 -0.10274880537E+03  0.39227248096E+03  0.47845979671E+03  0.90569088742E+02 0.  0.
          1    1    3    3  502    0 -0.29450190929E+02  0.61724017105E+02  0.58120783702E+01  0.68636348157E+02  0.00000000000E+00 0. -1.
         -1    1    3    3    0  502  0.46635854032E+02  0.64355353127E+02  0.67609086371E+02  0.10434319775E+03  0.00000000000E+00 0.  1.
         11    1    5    5    0    0 -0.25135880329E+03 -0.28463204677E+02 -0.29452248653E+03  0.38824592346E+03  0.00000000000E+00 0. -1.
        -11    1    5    5    0    0 -0.30735687613E+01  0.51326398169E+01 -0.47219575199E+02  0.47597049262E+02  0.00000000000E+00 0.  1.
          3    1    6    6  503    0  0.22921343476E+03 -0.85669863385E+02  0.38860976908E+03  0.45923379317E+03  0.00000000000E+00 0. -1.
         -3    1    6    6    0  503  0.80332741875E+01 -0.17078941987E+02  0.36627118773E+01  0.19226003534E+02  0.00000000000E+00 0.  1.
<mgrwt>
<rscale>  0 0.10801939E+04</rscale>
<asrwt>0</asrwt>
<pdfrwt beam="1">  1        1 0.74102364E-01 0.10801939E+04</pdfrwt>
<pdfrwt beam="2">  1       -1 0.93171838E-01 0.10801939E+04</pdfrwt>
<totfact> 0.52105985E+01</totfact>
</mgrwt>
</event>
<event>
12    2  0.8147979E-008  0.1952413E+04  0.7818608E-02  0.8629198E-01
         -2   -1    0    0    0  501 -0.00000000000E+00  0.00000000000E+00  0.51195758834E+03  0.51195758834E+03  0.00000000000E+00 0.  1.
          2   -1    0    0  501    0  0.00000000000E+00 -0.00000000000E+00 -0.18614406967E+04  0.18614406967E+04  0.00000000000E+00 0. -1.
         23    2    1    2    0    0 -0.55228872073E+03 -0.52913846108E+03 -0.46214984535E+03  0.89597737105E+03  0.64673238908E+02 0.  0.
        254    2    1    2    0    0  0.55228872073E+03  0.52913846108E+03 -0.88733326304E+03  0.14774209140E+04  0.90022324757E+03 0.  0.
         23    2    4    4    0    0  0.15606758834E+03 -0.18648895390E+03  0.10364376171E+02  0.25946930934E+03  0.89898165387E+02 0.  0.
         23    2    4    4    0    0  0.39622113239E+03  0.71562741498E+03 -0.89769763921E+03  0.12179516047E+04  0.91821985849E+02 0.  0.
          4    1    3    3  502    0 -0.37747724770E+03 -0.34787487953E+03 -0.34307923718E+03  0.61742154750E+03  0.00000000000E+00 0.  1.
         -4    1    3    3    0  502 -0.17481147302E+03 -0.18126358156E+03 -0.11907060818E+03  0.27855582355E+03  0.00000000000E+00 0. -1.
         11    1    5    5    0    0  0.16446795075E+03 -0.15263537752E+03  0.90124273161E+01  0.22456288460E+03  0.00000000000E+00 0.  1.
        -11    1    5    5    0    0 -0.84003624100E+01 -0.33853576384E+02  0.13519488545E+01  0.34906424743E+02  0.00000000000E+00 0. -1.
          2    1    6    6  503    0  0.34879959873E+02  0.30133355945E+02 -0.72854856321E+02  0.86211720959E+02  0.00000000000E+00 0. -1.
         -2    1    6    6    0  503  0.36134117251E+03  0.68549405904E+03 -0.82484278289E+03  0.11317398837E+04  0.00000000000E+00 0.  1.
<mgrwt>
<rscale>  0 0.19524125E+04</rscale>
<asrwt>0</asrwt>
<pdfrwt beam="1">  1        2 0.28637549E+00 0.19524125E+04</pdfrwt>
<pdfrwt beam="2">  1       -2 0.78762705E-01 0.19524125E+04</pdfrwt>
<totfact> 0.10649569E+01</totfact>
</mgrwt>
</event>
<event>
12    2  0.8147979E-008  0.2397529E+04  0.7818608E-02  0.8440429E-01
         -1   -1    0    0    0  501 -0.00000000000E+00  0.00000000000E+00  0.12313672901E+04  0.12313672901E+04  0.00000000000E+00 0.  1.
          1   -1    0    0  501    0  0.00000000000E+00 -0.00000000000E+00 -0.11670250473E+04  0.11670250473E+04  0.00000000000E+00 0. -1.
         23    2    1    2    0    0 -0.51533047077E+03  0.64692744925E+03  0.61708009360E+03  0.10359424946E+04  0.91150378502E+02 0.  0.
        254    2    1    2    0    0  0.51533047077E+03 -0.64692744925E+03 -0.55273785079E+03  0.13624498428E+04  0.93095103187E+03 0.  0.
         23    2    4    4    0    0 -0.11890405181E+03 -0.53781564784E+03 -0.93549694227E+02  0.56710842461E+03  0.97347703469E+02 0.  0.
         23    2    4    4    0    0  0.63423452257E+03 -0.10911180140E+03 -0.45918815656E+03  0.79534141819E+03  0.86921766709E+02 0.  0.
          2    1    3    3  502    0 -0.20296215995E+03  0.31146776591E+03  0.31187580481E+03  0.48525490744E+03  0.00000000000E+00 0. -1.
         -2    1    3    3    0  502 -0.31236831082E+03  0.33545968333E+03  0.30520428880E+03  0.55068758715E+03  0.00000000000E+00 0.  1.
         11    1    5    5    0    0 -0.68399583829E+02 -0.12332777446E+03 -0.10836145883E+02  0.14144138389E+03  0.00000000000E+00 0.  1.
        -11    1    5    5    0    0 -0.50504467977E+02 -0.41448787338E+03 -0.82713548345E+02  0.42566704071E+03  0.00000000000E+00 0. -1.
          3    1    6    6  503    0  0.12022263198E+03  0.13451875428E+02 -0.85746375014E+02  0.14827971884E+03  0.00000000000E+00 0. -1.
         -3    1    6    6    0  503  0.51401189060E+03 -0.12256367683E+03 -0.37344178155E+03  0.64706169934E+03  0.00000000000E+00 0.  1.
<mgrwt>
<rscale>  0 0.23975291E+04</rscale>
<asrwt>0</asrwt>
<pdfrwt beam="1">  1        1 0.17954232E+00 0.23975291E+04</pdfrwt>
<pdfrwt beam="2">  1       -1 0.18944112E+00 0.23975291E+04</pdfrwt>
<totfact> 0.18058955E+00</totfact>
</mgrwt>
</event>
<event>
12    2  0.8147979E-008  0.2659533E+04  0.7818608E-02  0.8348256E-01
          2   -1    0    0  501    0  0.00000000000E+00  0.00000000000E+00  0.16372563155E+04  0.16372563155E+04  0.00000000000E+00 0. -1.
         -2   -1    0    0    0  501 -0.00000000000E+00 -0.00000000000E+00 -0.10800260313E+04  0.10800260313E+04  0.00000000000E+00 0.  1.
         23    2    1    2    0    0  0.85773644686E+03 -0.80412176533E+03  0.27828002230E+03  0.12115961177E+04  0.90563545341E+02 0.  0.
        254    2    1    2    0    0 -0.85773644686E+03  0.80412176533E+03  0.27895026183E+03  0.15056862291E+04  0.89830626528E+03 0.  0.
         23    2    4    4    0    0 -0.70150119842E+03  0.87481298699E+03  0.48248900224E+03  0.12242101194E+04  0.92157937873E+02 0.  0.
         23    2    4    4    0    0 -0.15623524845E+03 -0.70691221657E+02 -0.20353874041E+03  0.28147610975E+03  0.91619211081E+02 0.  0.
          4    1    3    3  502    0  0.65217211722E+03 -0.57744203801E+03  0.17378442184E+03  0.88823915868E+03  0.00000000000E+00 0.  1.
         -4    1    3    3    0  502  0.20556432964E+03 -0.22667972732E+03  0.10449560046E+03  0.32335695897E+03  0.00000000000E+00 0. -1.
         11    1    5    5    0    0 -0.67143942368E+03  0.85074106382E+03  0.48083788900E+03  0.11856628243E+04  0.00000000000E+00 0. -1.
        -11    1    5    5    0    0 -0.30061774743E+02  0.24071923165E+02  0.16511132394E+01  0.38547295113E+02  0.00000000000E+00 0.  1.
          3    1    6    6  503    0 -0.13041681816E+03 -0.16696362094E+02 -0.11542291344E+03  0.17495646291E+03  0.00000000000E+00 0. -1.
         -3    1    6    6    0  503 -0.25818430281E+02 -0.53994859563E+02 -0.88115826966E+02  0.10651964684E+03  0.00000000000E+00 0.  1.
<mgrwt>
<rscale>  0 0.26595334E+04</rscale>
<asrwt>0</asrwt>
<pdfrwt beam="1">  1        2 0.25188559E+00 0.26595334E+04</pdfrwt>
<pdfrwt beam="2">  1       -2 0.16615785E+00 0.26595334E+04</pdfrwt>
<totfact> 0.21251200E+00</totfact>
</mgrwt>
</event>
<event>
12    2  0.8147979E-008  0.1794330E+04  0.7818608E-02  0.8709321E-01
         -1   -1    0    0    0  501 -0.00000000000E+00  0.00000000000E+00  0.41883343910E+03  0.41883343910E+03  0.00000000000E+00 0.  1.
          1   -1    0    0  501    0  0.00000000000E+00 -0.00000000000E+00 -0.19217784620E+04  0.19217784620E+04  0.00000000000E+00 0. -1.
         23    2    1    2    0    0 -0.28350556060E+03  0.47255255860E+03 -0.10539849359E+04  0.11927113573E+04  0.89413719792E+02 0.  0.
        254    2    1    2    0    0  0.28350556060E+03 -0.47255255860E+03 -0.44896008703E+03  0.11479005438E+04  0.90134853144E+03 0.  0.
         23    2    4    4    0    0 -0.29080147688E+03 -0.37798010765E+01 -0.18570347919E+03  0.35645780797E+03  0.89423715156E+02 0.  0.
         23    2    4    4    0    0  0.57430703748E+03 -0.46877275752E+03 -0.26325660784E+03  0.79144273581E+03  0.86608839013E+02 0.  0.
          1    1    3    3  502    0 -0.12533428674E+03  0.29483017458E+03 -0.60423427141E+03  0.68390976745E+03  0.00000000000E+00 0. -1.
         -1    1    3    3    0  502 -0.15817127386E+03  0.17772238402E+03 -0.44975066447E+03  0.50880158986E+03  0.00000000000E+00 0.  1.
         11    1    5    5    0    0 -0.13864916721E+03 -0.25106651014E+02 -0.13373956141E+03  0.19426838594E+03  0.00000000000E+00 0. -1.
        -11    1    5    5    0    0 -0.15215230967E+03  0.21326849937E+02 -0.51963917777E+02  0.16218942203E+03  0.00000000000E+00 0.  1.
          1    1    6    6  503    0  0.13124556890E+03 -0.83405140340E+02 -0.23919198039E+02  0.15733386420E+03  0.00000000000E+00 0. -1.
         -1    1    6    6    0  503  0.44306146858E+03 -0.38536761718E+03 -0.23933740980E+03  0.63410887160E+03  0.00000000000E+00 0.  1.
<mgrwt>
<rscale>  0 0.17943301E+04</rscale>
<asrwt>0</asrwt>
<pdfrwt beam="1">  1        1 0.29565822E+00 0.17943301E+04</pdfrwt>
<pdfrwt beam="2">  1       -1 0.64435914E-01 0.17943301E+04</pdfrwt>
<totfact> 0.77646609E+00</totfact>
</mgrwt>
</event>
<event>
12    2  0.8147979E-008  0.2502033E+04  0.7818608E-02  0.8402262E-01
          2   -1    0    0  501    0  0.00000000000E+00  0.00000000000E+00  0.22678060076E+04  0.22678060076E+04  0.00000000000E+00 0. -1.
         -2   -1    0    0    0  501 -0.00000000000E+00 -0.00000000000E+00 -0.69011310803E+03  0.69011310803E+03  0.00000000000E+00 0.  1.
         23    2    1    2    0    0 -0.10752380442E+04 -0.10159295225E+03  0.53637436070E+03  0.12092378899E+04  0.90004666572E+02 0.  0.
        254    2    1    2    0    0  0.10752380442E+04  0.10159295225E+03  0.10413185388E+04  0.17486812257E+04  0.89837840029E+03 0.  0.
         23    2    4    4    0    0  0.88385755212E+03  0.13042591845E+03  0.11880971819E+04  0.14894789813E+04  0.93582206411E+02 0.  0.
         23    2    4    4    0    0  0.19138049206E+03 -0.28832966196E+02 -0.14677864306E+03  0.25920224440E+03  0.90465467252E+02 0.  0.
          1    1    3    3  502    0 -0.76720387689E+03 -0.63376730280E+02  0.42583622365E+03  0.87974705912E+03  0.00000000000E+00 0. -1.
         -1    1    3    3    0  502 -0.30803416729E+03 -0.38216221973E+02  0.11053813705E+03  0.32949083080E+03  0.00000000000E+00 0.  1.
         11    1    5    5    0    0  0.45210553647E+03  0.95425672541E+02  0.67469645394E+03  0.81775349589E+03  0.00000000000E+00 0. -1.
        -11    1    5    5    0    0  0.43175201566E+03  0.35000245907E+02  0.51340072798E+03  0.67172548539E+03  0.00000000000E+00 0.  1.
          3    1    6    6  503    0  0.15294842572E+03 -0.38230251712E+02 -0.69313149196E+02  0.17221813414E+03  0.00000000000E+00 0. -1.
         -3    1    6    6    0  503  0.38432066340E+02  0.93972855164E+01 -0.77465493869E+02  0.86984110265E+02  0.00000000000E+00 0.  1.
<mgrwt>
<rscale>  0 0.25020333E+04</rscale>
<asrwt>0</asrwt>
<pdfrwt beam="1">  1        2 0.34889323E+00 0.25020333E+04</pdfrwt>
<pdfrwt beam="2">  1       -2 0.10617125E+00 0.25020333E+04</pdfrwt>
<totfact> 0.30172649E+00</totfact>
</mgrwt>
</event>
<event>
12    2  0.8147979E-008  0.2339003E+04  0.7818608E-02  0.8462699E-01
          1   -1    0    0  501    0  0.00000000000E+00  0.00000000000E+00  0.16115551191E+04  0.16115551191E+04  0.00000000000E+00 0. -1.
         -1   -1    0    0    0  501 -0.00000000000E+00 -0.00000000000E+00 -0.84870458220E+03  0.84870458220E+03  0.00000000000E+00 0.  1.
         23    2    1    2    0    0 -0.21055470263E+03 -0.96560842071E+03  0.21082733394E+03  0.10145699629E+04  0.90394357907E+02 0.  0.
        254    2    1    2    0    0  0.21055470263E+03  0.96560842071E+03  0.55202320293E+03  0.14456897384E+04  0.89919758569E+03 0.  0.
         23    2    4    4    0    0 -0.11389371470E+03  0.95160424417E+03  0.55400534044E+03  0.11112481162E+04  0.97098109242E+02 0.  0.
         23    2    4    4    0    0  0.32444841733E+03  0.14004176549E+02 -0.19821375061E+01  0.33444162215E+03  0.79902298380E+02 0.  0.
          4    1    3    3  502    0 -0.60775702093E+02 -0.49085833047E+03  0.10538876615E+03  0.50570977704E+03  0.00000000000E+00 0. -1.
         -4    1    3    3    0  502 -0.14977900054E+03 -0.47475009024E+03  0.10543856779E+03  0.50886018587E+03  0.00000000000E+00 0.  1.
         11    1    5    5    0    0 -0.33360912895E+02  0.22368162410E+03  0.85117098345E+02  0.24164300093E+03  0.00000000000E+00 0. -1.
        -11    1    5    5    0    0 -0.80532801805E+02  0.72792262007E+03  0.46888824210E+03  0.86960511530E+03  0.00000000000E+00 0.  1.
          4    1    6    6  503    0  0.18782770500E+01 -0.47946937838E+01  0.98421568690E+01  0.11107883011E+02  0.00000000000E+00 0. -1.
         -4    1    6    6    0  503  0.32257014028E+03  0.18798870333E+02 -0.11824294375E+02  0.32333373914E+03  0.00000000000E+00 0.  1.
<mgrwt>
<rscale>  0 0.23390034E+04</rscale>
<asrwt>0</asrwt>
<pdfrwt beam="1">  1        1 0.24793156E+00 0.23390034E+04</pdfrwt>
<pdfrwt beam="2">  1       -1 0.13056994E+00 0.23390034E+04</pdfrwt>
<totfact> 0.24755440E+00</totfact>
</mgrwt>
</event>
<event>
12    2  0.8147979E-008  0.2787638E+04  0.7818608E-02  0.8307116E-01
          1   -1    0    0  501    0  0.00000000000E+00  0.00000000000E+00  0.19859883571E+04  0.19859883571E+04  0.00000000000E+00 0. -1.
         -1   -1    0    0    0  501 -0.00000000000E+00 -0.00000000000E+00 -0.97821914109E+03  0.97821914109E+03  0.00000000000E+00 0.  1.
         23    2    1    2    0    0 -0.11132798376E+04 -0.55851191509E+03  0.52551237584E+03  0.13548283865E+04  0.89828412221E+02 0.  0.
        254    2    1    2    0    0  0.11132798376E+04  0.55851191509E+03  0.48225684019E+03  0.16093791117E+04  0.89788747011E+03 0.  0.
         23    2    4    4    0    0  0.81300149524E+03  0.21740823023E+03 -0.11426018988E+03  0.85402886677E+03  0.89845113711E+02 0.  0.
         23    2    4    4    0    0  0.30027834239E+03  0.34110368486E+03  0.59651703007E+03  0.75535024489E+03  0.90568308823E+02 0.  0.
          1    1    3    3  502    0 -0.75442168557E+03 -0.34721595222E+03  0.38430020896E+03  0.91509433816E+03  0.00000000000E+00 0. -1.
         -1    1    3    3    0  502 -0.35885815207E+03 -0.21129596287E+03  0.14121216687E+03  0.43973404838E+03  0.00000000000E+00 0.  1.
         11    1    5    5    0    0  0.12372870877E+03  0.15453280041E+02 -0.44527149140E+02  0.13240190424E+03  0.00000000000E+00 0.  1.
        -11    1    5    5    0    0  0.68927278647E+03  0.20195495019E+03 -0.69733040738E+02  0.72162696253E+03  0.00000000000E+00 0. -1.
          1    1    6    6  503    0  0.26748576355E+03  0.26728981961E+03  0.52793959707E+03  0.64939410186E+03  0.00000000000E+00 0. -1.
         -1    1    6    6    0  503  0.32792578845E+02  0.73813865259E+02  0.68577432993E+02  0.10595614304E+03  0.00000000000E+00 0.  1.
<mgrwt>
<rscale>  0 0.27876383E+04</rscale>
<asrwt>0</asrwt>
<pdfrwt beam="1">  1        1 0.30553667E+00 0.27876383E+04</pdfrwt>
<pdfrwt beam="2">  1       -1 0.15049525E+00 0.27876383E+04</pdfrwt>
<totfact> 0.91276836E-01</totfact>
</mgrwt>
</event>
<event>
12    2  0.8147979E-008  0.1637623E+04  0.7818608E-02  0.8797762E-01
         -2   -1    0    0    0  501 -0.00000000000E+00  0.00000000000E+00  0.26362711325E+03  0.26362711325E+03  0.00000000000E+00 0.  1.
          2   -1    0    0  501    0  0.00000000000E+00 -0.00000000000E+00 -0.25431847399E+04  0.25431847399E+04  0.00000000000E+00 0. -1.
         23    2    1    2    0    0  0.25627662391E+02 -0.38232543996E+03 -0.15128782926E+04  0.15632738140E+04  0.90524970332E+02 0.  0.
        254    2    1    2    0    0 -0.25627662391E+02  0.38232543996E+03 -0.76667933404E+03  0.12435380391E+04  0.90097732179E+03 0.  0.
         23    2    4    4    0    0  0.23172867416E+03 -0.54588136083E+02  0.67141115249E+02  0.26337731721E+03  0.90452411994E+02 0.  0.
         23    2    4    4    0    0 -0.25735633655E+03  0.43691357604E+03 -0.83382044929E+03  0.98016072191E+03  0.91283855253E+02 0.  0.
          1    1    3    3  502    0  0.17969820109E+02 -0.18455769360E+03 -0.91133008792E+03  0.93000375582E+03  0.00000000000E+00 0. -1.
         -1    1    3    3    0  502  0.76578422822E+01 -0.19776774636E+03 -0.60154820469E+03  0.63327005821E+03  0.00000000000E+00 0.  1.
         11    1    5    5    0    0  0.16799725389E+03 -0.30558540182E+01  0.21026125547E+02  0.16933550576E+03  0.00000000000E+00 0.  1.
        -11    1    5    5    0    0  0.63731420275E+02 -0.51532282065E+02  0.46114989702E+02  0.94041811447E+02  0.00000000000E+00 0. -1.
          2    1    6    6  503    0 -0.17946363088E+02  0.53105324322E+02 -0.49705285989E+02  0.74919042137E+02  0.00000000000E+00 0. -1.
         -2    1    6    6    0  503 -0.23940997346E+03  0.38380825172E+03 -0.78411516330E+03  0.90524167977E+03  0.00000000000E+00 0.  1.
<mgrwt>
<rscale>  0 0.16376232E+04</rscale>
<asrwt>0</asrwt>
<pdfrwt beam="1">  1        2 0.39125920E+00 0.16376232E+04</pdfrwt>
<pdfrwt beam="2">  1       -2 0.40558016E-01 0.16376232E+04</pdfrwt>
<totfact> 0.18120565E+01</totfact>
</mgrwt>
</event>
<event>
12    2  0.8147979E-008  0.4401895E+04  0.7818608E-02  0.7928041E-01
          1   -1    0    0  501    0  0.00000000000E+00  0.00000000000E+00  0.27168864564E+04  0.27168864564E+04  0.00000000000E+00 0. -1.
         -1   -1    0    0    0  501 -0.00000000000E+00 -0.00000000000E+00 -0.17829861329E+04  0.17829861329E+04  0.00000000000E+00 0.  1.
         23    2    1    2    0    0  0.21059522389E+04 -0.10361572815E+03  0.44826481835E+03  0.21575194127E+04  0.90430178805E+02 0.  0.
        254    2    1    2    0    0 -0.21059522389E+04  0.10361572815E+03  0.48563550518E+03  0.23423531765E+04  0.89722099168E+03 0.  0.
         23    2    4    4    0    0 -0.20622402121E+04 -0.22576729103E+02  0.28152457497E+03  0.20833376394E+04  0.87722473258E+02 0.  0.
         23    2    4    4    0    0 -0.43712026790E+02  0.12619245726E+03  0.20411093021E+03  0.25901553709E+03  0.87134947467E+02 0.  0.
          1    1    3    3  502    0  0.70612937849E+03 -0.75874497948E+02  0.13886746768E+03  0.72364342889E+03  0.00000000000E+00 0. -1.
         -1    1    3    3    0  502  0.13998228604E+04 -0.27741230207E+02  0.30939735067E+03  0.14338759838E+04  0.00000000000E+00 0.  1.
         11    1    5    5    0    0 -0.15338481676E+04 -0.25371597835E+02  0.17160461413E+03  0.15436262704E+04  0.00000000000E+00 0.  1.
        -11    1    5    5    0    0 -0.52839204455E+03  0.27948687319E+01  0.10991996084E+03  0.53971136899E+03  0.00000000000E+00 0. -1.
          4    1    6    6  503    0 -0.15328788537E+01  0.63552019597E+02  0.32224660680E+02  0.71271576862E+02  0.00000000000E+00 0. -1.
         -4    1    6    6    0  503 -0.42179147936E+02  0.62640437660E+02  0.17188626953E+03  0.18774396023E+03  0.00000000000E+00 0.  1.
<mgrwt>
<rscale>  0 0.44018954E+04</rscale>
<asrwt>0</asrwt>
<pdfrwt beam="1">  1        1 0.41798253E+00 0.44018954E+04</pdfrwt>
<pdfrwt beam="2">  1       -1 0.27430556E+00 0.44018954E+04</pdfrwt>
<totfact> 0.35039395E-02</totfact>
</mgrwt>
</event>
<event>
12    2  0.8147979E-008  0.2183206E+04  0.7818608E-02  0.8525451E-01
          2   -1    0    0  501    0  0.00000000000E+00  0.00000000000E+00  0.13237060971E+04  0.13237060971E+04  0.00000000000E+00 0. -1.
         -2   -1    0    0    0  501 -0.00000000000E+00 -0.00000000000E+00 -0.90019791058E+03  0.90019791058E+03  0.00000000000E+00 0.  1.
         23    2    1    2    0    0 -0.69463183465E+03 -0.13206098327E+03  0.75297707073E+03  0.10369813107E+04  0.91663955501E+02 0.  0.
        254    2    1    2    0    0  0.69463183465E+03  0.13206098327E+03 -0.32946888417E+03  0.11869226970E+04  0.89458496186E+03 0.  0.
         23    2    4    4    0    0  0.53653857903E+03  0.49162338520E+03 -0.26329120590E+03  0.77920385799E+03  0.90935106216E+02 0.  0.
         23    2    4    4    0    0  0.15809325562E+03 -0.35956240192E+03 -0.66177678273E+02  0.40771883900E+03  0.87043484699E+02 0.  0.
          4    1    3    3  502    0 -0.34154818302E+03 -0.50809909646E+02  0.43108725958E+03  0.55233416843E+03  0.00000000000E+00 0. -1.
         -4    1    3    3    0  502 -0.35308365163E+03 -0.81251073627E+02  0.32188981115E+03  0.48464714230E+03  0.00000000000E+00 0.  1.
         11    1    5    5    0    0  0.44587068273E+03  0.43895738256E+03 -0.20069545481E+03  0.65708668759E+03  0.00000000000E+00 0. -1.
        -11    1    5    5    0    0  0.90667896300E+02  0.52666002637E+02 -0.62595751083E+02  0.12211717040E+03  0.00000000000E+00 0.  1.
          3    1    6    6  503    0  0.12252302243E+03 -0.25073304657E+03 -0.84914691015E+02  0.29170097089E+03  0.00000000000E+00 0. -1.
         -3    1    6    6    0  503  0.35570233194E+02 -0.10882935535E+03  0.18737012741E+02  0.11601786811E+03  0.00000000000E+00 0.  1.
<mgrwt>
<rscale>  0 0.21832063E+04</rscale>
<asrwt>0</asrwt>
<pdfrwt beam="1">  1        2 0.20364709E+00 0.21832063E+04</pdfrwt>
<pdfrwt beam="2">  1       -2 0.13849199E+00 0.21832063E+04</pdfrwt>
<totfact> 0.54155279E+00</totfact>
</mgrwt>
</event>
<event>
12    2  0.8147979E-008  0.3350080E+04  0.7818608E-02  0.8150268E-01
          2   -1    0    0  501    0  0.00000000000E+00  0.00000000000E+00  0.24776656459E+04  0.24776656459E+04  0.00000000000E+00 0. -1.
         -2   -1    0    0    0  501 -0.00000000000E+00 -0.00000000000E+00 -0.11324204066E+04  0.11324204066E+04  0.00000000000E+00 0.  1.
         23    2    1    2    0    0 -0.10838571910E+04  0.45039752896E+03 -0.47012258125E+03  0.12676365823E+04  0.91010541683E+02 0.  0.
        254    2    1    2    0    0  0.10838571910E+04 -0.45039752896E+03  0.18153678206E+04  0.23424494702E+04  0.90216675378E+03 0.  0.
         23    2    4    4    0    0  0.42748543581E+03 -0.19787452691E+03  0.10539721458E+03  0.49122488849E+03  0.91077944625E+02 0.  0.
         23    2    4    4    0    0  0.65637175523E+03 -0.25252300205E+03  0.17099706060E+04  0.18512245817E+04  0.91876171014E+02 0.  0.
          2    1    3    3  502    0 -0.77527368056E+03  0.29443635355E+03 -0.29629460006E+03  0.88064325132E+03  0.00000000000E+00 0.  1.
         -2    1    3    3    0  502 -0.30858351047E+03  0.15596117541E+03 -0.17382798118E+03  0.38699333097E+03  0.00000000000E+00 0. -1.
         11    1    5    5    0    0  0.18207268414E+03 -0.35499219239E+02  0.38774149080E+02  0.18951013565E+03  0.00000000000E+00 0.  1.
        -11    1    5    5    0    0  0.24541275167E+03 -0.16237530767E+03  0.66623065500E+02  0.30171475284E+03  0.00000000000E+00 0. -1.
          2    1    6    6  503    0  0.50094788892E+03 -0.21342603781E+03  0.14024352855E+04  0.15044348411E+04  0.00000000000E+00 0. -1.
         -2    1    6    6    0  503  0.15542386630E+03 -0.39096964237E+02  0.30753532046E+03  0.34678974056E+03  0.00000000000E+00 0.  1.
<mgrwt>
<rscale>  0 0.33500801E+04</rscale>
<asrwt>0</asrwt>
<pdfrwt beam="1">  1        2 0.38117933E+00 0.33500801E+04</pdfrwt>
<pdfrwt beam="2">  1       -2 0.17421852E+00 0.33500801E+04</pdfrwt>
<totfact> 0.59352181E-01</totfact>
</mgrwt>
</event>
<event>
12    2  0.8147979E-008  0.2556160E+04  0.7818608E-02  0.8383247E-01
         -1   -1    0    0    0  501 -0.00000000000E+00  0.00000000000E+00  0.71266666986E+03  0.71266666986E+03  0.00000000000E+00 0.  1.
          1   -1    0    0  501    0  0.00000000000E+00 -0.00000000000E+00 -0.22920791125E+04  0.22920791125E+04  0.00000000000E+00 0. -1.
         23    2    1    2    0    0 -0.69681997450E+03 -0.76758707317E+03 -0.11812263220E+04  0.15742922687E+04  0.91392186448E+02 0.  0.
        254    2    1    2    0    0  0.69681997450E+03  0.76758707317E+03 -0.39818612070E+03  0.14304535137E+04  0.90160805034E+03 0.  0.
         23    2    4    4    0    0  0.89487951819E+03  0.56174193093E+03 -0.39317964054E+03  0.11309031272E+04  0.89377314844E+02 0.  0.
         23    2    4    4    0    0 -0.19805954369E+03  0.20584514224E+03 -0.50064801613E+01  0.29955038649E+03  0.90030904525E+02 0.  0.
          3    1    3    3  502    0 -0.40578596768E+03 -0.46387044338E+03 -0.76693799153E+03  0.98388613297E+03  0.00000000000E+00 0. -1.
         -3    1    3    3    0  502 -0.29103400682E+03 -0.30371662979E+03 -0.41428833043E+03  0.59040613570E+03  0.00000000000E+00 0.  1.
         11    1    5    5    0    0  0.66864184935E+03  0.38637322289E+03 -0.25678679557E+03  0.81382163184E+03  0.00000000000E+00 0. -1.
        -11    1    5    5    0    0  0.22623766884E+03  0.17536870805E+03 -0.13639284497E+03  0.31708149540E+03  0.00000000000E+00 0.  1.
          4    1    6    6  503    0 -0.16921102527E+03  0.19618397934E+03  0.20449338938E+02  0.25988208920E+03  0.00000000000E+00 0. -1.
         -4    1    6    6    0  503 -0.28848518426E+02  0.96611628985E+01 -0.25455819100E+02  0.39668297291E+02  0.00000000000E+00 0.  1.
<mgrwt>
<rscale>  0 0.25561599E+04</rscale>
<asrwt>0</asrwt>
<pdfrwt beam="1">  1        1 0.35262756E+00 0.25561599E+04</pdfrwt>
<pdfrwt beam="2">  1       -1 0.10964103E+00 0.25561599E+04</pdfrwt>
<totfact> 0.12810299E+00</totfact>
</mgrwt>
</event>
<event>
12    2  0.8147979E-008  0.1813536E+04  0.7818608E-02  0.8699134E-01
          1   -1    0    0  501    0  0.00000000000E+00  0.00000000000E+00  0.67833846416E+03  0.67833846416E+03  0.00000000000E+00 0. -1.
         -1   -1    0    0    0  501 -0.00000000000E+00 -0.00000000000E+00 -0.12121214335E+04  0.12121214335E+04  0.00000000000E+00 0.  1.
         23    2    1    2    0    0 -0.16893764618E+03 -0.19169559218E+03 -0.86218063352E+03  0.90260129040E+03  0.77759348390E+02 0.  0.
        254    2    1    2    0    0  0.16893764618E+03  0.19169559218E+03  0.32839766420E+03  0.98785860724E+03  0.89595338812E+03 0.  0.
         23    2    4    4    0    0  0.41589754037E+03  0.30140419067E+03  0.43568215017E+03  0.67979559741E+03  0.92129626256E+02 0.  0.
         23    2    4    4    0    0 -0.24695989419E+03 -0.10970859849E+03 -0.10728448597E+03  0.30806300983E+03  0.10182186001E+03 0.  0.
          1    1    3    3  502    0 -0.80766028504E+02 -0.36626773098E+02 -0.29116806673E+03  0.30437397219E+03  0.00000000000E+00 0. -1.
         -1    1    3    3    0  502 -0.88171617671E+02 -0.15506881908E+03 -0.57101256679E+03  0.59822731821E+03  0.00000000000E+00 0.  1.
         11    1    5    5    0    0  0.34505382412E+03  0.26658367658E+03  0.32493087187E+03  0.54379138431E+03  0.00000000000E+00 0.  1.
        -11    1    5    5    0    0  0.70843716250E+02  0.34820514096E+02  0.11075127830E+03  0.13600421310E+03  0.00000000000E+00 0. -1.
          2    1    6    6  503    0 -0.45732997112E+02  0.95897155917E+01 -0.47458905729E+02  0.66601932426E+02  0.00000000000E+00 0. -1.
         -2    1    6    6    0  503 -0.20122689708E+03 -0.11929831408E+03 -0.59825580241E+02  0.24146107741E+03  0.00000000000E+00 0.  1.
<mgrwt>
<rscale>  0 0.18135364E+04</rscale>
<asrwt>0</asrwt>
<pdfrwt beam="1">  1        1 0.10435976E+00 0.18135364E+04</pdfrwt>
<pdfrwt beam="2">  1       -1 0.18648022E+00 0.18135364E+04</pdfrwt>
<totfact> 0.50379128E+00</totfact>
</mgrwt>
</event>
<event>
12    2  0.8147979E-008  0.2116125E+04  0.7818608E-02  0.8554173E-01
          1   -1    0    0  501    0  0.00000000000E+00  0.00000000000E+00  0.15177663595E+04  0.15177663595E+04  0.00000000000E+00 0. -1.
         -1   -1    0    0    0  501 -0.00000000000E+00 -0.00000000000E+00 -0.73759472184E+03  0.73759472184E+03  0.00000000000E+00 0.  1.
         23    2    1    2    0    0 -0.23788782725E+03  0.80938549836E+03  0.11664927324E+03  0.85653090988E+03  0.91338071521E+02 0.  0.
        254    2    1    2    0    0  0.23788782725E+03 -0.80938549836E+03  0.66352236442E+03  0.13988301715E+04  0.89708885690E+03 0.  0.
         23    2    4    4    0    0 -0.16942578236E+03  0.78685504198E+01  0.40107689471E+03  0.44477300453E+03  0.90517071738E+02 0.  0.
         23    2    4    4    0    0  0.40731360961E+03 -0.81725404878E+03  0.26244546971E+03  0.95405716693E+03  0.86826818264E+02 0.  0.
          3    1    3    3  502    0 -0.19658172100E+03  0.56334107150E+03  0.52701702205E+02  0.59897830119E+03  0.00000000000E+00 0. -1.
         -3    1    3    3    0  502 -0.41306106252E+02  0.24604442686E+03  0.63947571034E+02  0.25755260869E+03  0.00000000000E+00 0.  1.
         11    1    5    5    0    0 -0.75875181266E+02  0.14626723656E+02  0.84096354494E+02  0.11420674681E+03  0.00000000000E+00 0. -1.
        -11    1    5    5    0    0 -0.93550601091E+02 -0.67581732358E+01  0.31698054021E+03  0.33056625772E+03  0.00000000000E+00 0.  1.
          4    1    6    6  503    0  0.40508895322E+03 -0.80965474171E+03  0.26824508213E+03  0.94424217491E+03  0.00000000000E+00 0. -1.
         -4    1    6    6    0  503  0.22246563952E+01 -0.75993070707E+01 -0.57996124223E+01  0.98149920163E+01  0.00000000000E+00 0.  1.
<mgrwt>
<rscale>  0 0.21161252E+04</rscale>
<asrwt>0</asrwt>
<pdfrwt beam="1">  1        1 0.23350252E+00 0.21161252E+04</pdfrwt>
<pdfrwt beam="2">  1       -1 0.11347611E+00 0.21161252E+04</pdfrwt>
<totfact> 0.41386535E+00</totfact>
</mgrwt>
</event>
<event>
12    2  0.8147979E-008  0.1923837E+04  0.7818608E-02  0.8643081E-01
         -1   -1    0    0    0  501 -0.00000000000E+00  0.00000000000E+00  0.20866851171E+03  0.20866851171E+03  0.00000000000E+00 0.  1.
          1   -1    0    0  501    0  0.00000000000E+00 -0.00000000000E+00 -0.44342439138E+04  0.44342439138E+04  0.00000000000E+00 0. -1.
         23    2    1    2    0    0  0.35697005627E+03 -0.28157318547E+03 -0.22753816232E+03  0.51658042614E+03  0.91491209989E+02 0.  0.
        254    2    1    2    0    0 -0.35697005627E+03  0.28157318547E+03 -0.39980372397E+04  0.41263319994E+04  0.91411318699E+03 0.  0.
         23    2    4    4    0    0 -0.46138248506E+03 -0.19638125017E+03 -0.23575744257E+04  0.24120021382E+04  0.90320259665E+02 0.  0.
         23    2    4    4    0    0  0.10441242879E+03  0.47795443564E+03 -0.16404628141E+04  0.17143298611E+04  0.92012121720E+02 0.  0.
          1    1    3    3  502    0  0.13511350765E+03 -0.14830775096E+03 -0.13459694770E+03  0.24159301992E+03  0.00000000000E+00 0. -1.
         -1    1    3    3    0  502  0.22185654862E+03 -0.13326543451E+03 -0.92941214616E+02  0.27498740621E+03  0.00000000000E+00 0.  1.
         11    1    5    5    0    0 -0.38198212401E+03 -0.16625705292E+03 -0.17726305697E+04  0.18209258325E+04  0.00000000000E+00 0. -1.
        -11    1    5    5    0    0 -0.79400361040E+02 -0.30124197244E+02 -0.58494385598E+03  0.59107630576E+03  0.00000000000E+00 0.  1.
          1    1    6    6  503    0  0.11799213847E+03  0.41685955709E+03 -0.14795213851E+04  0.15416476783E+04  0.00000000000E+00 0. -1.
         -1    1    6    6    0  503 -0.13579709680E+02  0.61094878546E+02 -0.16094142897E+03  0.17268218281E+03  0.00000000000E+00 0.  1.
<mgrwt>
<rscale>  0 0.19238369E+04</rscale>
<asrwt>0</asrwt>
<pdfrwt beam="1">  1        1 0.68219137E+00 0.19238369E+04</pdfrwt>
<pdfrwt beam="2">  1       -1 0.32102848E-01 0.19238369E+04</pdfrwt>
<totfact> 0.32222666E-01</totfact>
</mgrwt>
</event>
<event>
12    2  0.8147979E-008  0.1314600E+04  0.7818608E-02  0.9018067E-01
          1   -1    0    0  501    0  0.00000000000E+00  0.00000000000E+00  0.47715443761E+03  0.47715443761E+03  0.00000000000E+00 0. -1.
         -1   -1    0    0    0  501 -0.00000000000E+00 -0.00000000000E+00 -0.90545803706E+03  0.90545803706E+03  0.00000000000E+00 0.  1.
         23    2    1    2    0    0  0.13156488856E+03  0.23913122282E+03 -0.35102790925E+03  0.45413962007E+03  0.92353342186E+02 0.  0.
        254    2    1    2    0    0 -0.13156488856E+03 -0.23913122282E+03 -0.77275690201E+02  0.92847285460E+03  0.88407988769E+03 0.  0.
         23    2    4    4    0    0 -0.43700789684E+03  0.10263281178E+03 -0.26441653528E+02  0.45839572426E+03  0.88983610960E+02 0.  0.
         23    2    4    4    0    0  0.30544300828E+03 -0.34176403460E+03 -0.50834036673E+02  0.47007713035E+03  0.91051208318E+02 0.  0.
          3    1    3    3  502    0  0.18909073597E+02  0.51337747057E+02 -0.22153951952E+02  0.59024697579E+02  0.00000000000E+00 0. -1.
         -3    1    3    3    0  502  0.11265581496E+03  0.18779347577E+03 -0.32887395730E+03  0.39511492249E+03  0.00000000000E+00 0.  1.
         11    1    5    5    0    0 -0.73121638950E+02 -0.13157046804E+02  0.92377048978E+01  0.74867998205E+02  0.00000000000E+00 0. -1.
        -11    1    5    5    0    0 -0.36388625789E+03  0.11578985858E+03 -0.35679358426E+02  0.38352772605E+03  0.00000000000E+00 0.  1.
          2    1    6    6  503    0  0.10375151538E+03 -0.59617538970E+02 -0.79524018075E+00  0.11966311171E+03  0.00000000000E+00 0. -1.
         -2    1    6    6    0  503  0.20169149291E+03 -0.28214649563E+03 -0.50038796492E+02  0.35041401864E+03  0.00000000000E+00 0.  1.
<mgrwt>
<rscale>  0 0.13146000E+04</rscale>
<asrwt>0</asrwt>
<pdfrwt beam="1">  1        1 0.73408375E-01 0.13146000E+04</pdfrwt>
<pdfrwt beam="2">  1       -1 0.13930124E+00 0.13146000E+04</pdfrwt>
<totfact> 0.19706504E+01</totfact>
</mgrwt>
</event>
<event>
12    2  0.8147979E-008  0.2196461E+04  0.7818608E-02  0.8519902E-01
          2   -1    0    0  501    0  0.00000000000E+00  0.00000000000E+00  0.28153860443E+04  0.28153860443E+04  0.00000000000E+00 0.  1.
         -2   -1    0    0    0  501 -0.00000000000E+00 -0.00000000000E+00 -0.42839968369E+03  0.42839968369E+03  0.00000000000E+00 0. -1.
         23    2    1    2    0    0  0.88997203772E+03 -0.15617542227E+03  0.11719507268E+04  0.14828978967E+04  0.95271588548E+02 0.  0.
        254    2    1    2    0    0 -0.88997203772E+03  0.15617542227E+03  0.12150356338E+04  0.17608878312E+04  0.89887339066E+03 0.  0.
         23    2    4    4    0    0 -0.12390969157E+03 -0.27970357349E+03  0.10036333364E+03  0.33661290766E+03  0.98222961563E+02 0.  0.
         23    2    4    4    0    0 -0.76606234615E+03  0.43587899576E+03  0.11146723001E+04  0.14242749236E+04  0.96034910975E+02 0.  0.
          1    1    3    3  502    0  0.55595178985E+02 -0.22515093544E+02  0.48553490529E+02  0.77169908684E+02  0.00000000000E+00 0. -1.
         -1    1    3    3    0  502  0.83437685873E+03 -0.13366032873E+03  0.11233972363E+04  0.14057279881E+04  0.00000000000E+00 0.  1.
         11    1    5    5    0    0 -0.13148233675E+03 -0.23191436573E+03  0.59200627296E+02  0.27308715126E+03  0.00000000000E+00 0. -1.
        -11    1    5    5    0    0  0.75726451830E+01 -0.47789207761E+02  0.41162706342E+02  0.63525756406E+02  0.00000000000E+00 0.  1.
          3    1    6    6  503    0 -0.61650548392E+03  0.39197805763E+03  0.92916535094E+03  0.11819788741E+04  0.00000000000E+00 0. -1.
         -3    1    6    6    0  503 -0.14955686223E+03  0.43900938132E+02  0.18550694918E+03  0.24229604950E+03  0.00000000000E+00 0.  1.
<mgrwt>
<rscale>  0 0.21964612E+04</rscale>
<asrwt>0</asrwt>
<pdfrwt beam="1">  1        2 0.43313630E+00 0.21964612E+04</pdfrwt>
<pdfrwt beam="2">  1       -2 0.65907645E-01 0.21964612E+04</pdfrwt>
<totfact> 0.43876868E+00</totfact>
</mgrwt>
</event>
<event>
12    2  0.8147979E-008  0.1978856E+04  0.7818608E-02  0.8616571E-01
         -1   -1    0    0    0  501 -0.00000000000E+00  0.00000000000E+00  0.51335124700E+03  0.51335124700E+03  0.00000000000E+00 0.  1.
          1   -1    0    0  501    0  0.00000000000E+00 -0.00000000000E+00 -0.19070127425E+04  0.19070127425E+04  0.00000000000E+00 0. -1.
         23    2    1    2    0    0  0.11278361766E+03 -0.61334189872E+03 -0.11322028269E+04  0.12958581135E+04  0.91959665037E+02 0.  0.
        254    2    1    2    0    0 -0.11278361766E+03  0.61334189872E+03 -0.26145866856E+03  0.11245058760E+04  0.89846780719E+03 0.  0.
         23    2    4    4    0    0 -0.36478852575E+02  0.74280611022E+03 -0.44354038476E+03  0.87078342449E+03  0.91891650229E+02 0.  0.
         23    2    4    4    0    0 -0.76304765082E+02 -0.12946421150E+03  0.18208171620E+03  0.25372245147E+03  0.92940474333E+02 0.  0.
          4    1    3    3  502    0  0.53102787458E+02 -0.23287240908E+03 -0.52563341686E+03  0.57735600271E+03  0.00000000000E+00 0. -1.
         -4    1    3    3    0  502  0.59680830200E+02 -0.38046948964E+03 -0.60656941007E+03  0.71850211083E+03  0.00000000000E+00 0.  1.
         11    1    5    5    0    0 -0.18463307658E+02  0.51438749756E+03 -0.35439362542E+03  0.62492418190E+03  0.00000000000E+00 0. -1.
        -11    1    5    5    0    0 -0.18015544917E+02  0.22841861266E+03 -0.89146759342E+02  0.24585924259E+03  0.00000000000E+00 0.  1.
          2    1    6    6  503    0 -0.29795698355E+02 -0.33357109734E+02  0.12476828238E+03  0.13254284099E+03  0.00000000000E+00 0. -1.
         -2    1    6    6    0  503 -0.46509066728E+02 -0.96107101767E+02  0.57313433819E+02  0.12117961047E+03  0.00000000000E+00 0.  1.
<mgrwt>
<rscale>  0 0.19788556E+04</rscale>
<asrwt>0</asrwt>
<pdfrwt beam="1">  1        1 0.29338658E+00 0.19788556E+04</pdfrwt>
<pdfrwt beam="2">  1       -1 0.78977114E-01 0.19788556E+04</pdfrwt>
<totfact> 0.51340385E+00</totfact>
</mgrwt>
</event>
<event>
12    2  0.8147979E-008  0.1934182E+04  0.7818608E-02  0.8638026E-01
         -2   -1    0    0    0  501 -0.00000000000E+00  0.00000000000E+00  0.38082299932E+03  0.38082299932E+03  0.00000000000E+00 0.  1.
          2   -1    0    0  501    0  0.00000000000E+00 -0.00000000000E+00 -0.24559059203E+04  0.24559059203E+04  0.00000000000E+00 0. -1.
         23    2    1    2    0    0 -0.56150657949E+03  0.13170867690E+03 -0.15269125601E+04  0.16348192587E+04  0.92386297430E+02 0.  0.
        254    2    1    2    0    0  0.56150657949E+03 -0.13170867690E+03 -0.54817036094E+03  0.12019096610E+04  0.90081034310E+03 0.  0.
         23    2    4    4    0    0  0.68923554781E+03  0.13423565669E+03 -0.54449321102E+03  0.89335163739E+03  0.92409086654E+02 0.  0.
         23    2    4    4    0    0 -0.12772896831E+03 -0.26594433359E+03 -0.36771499255E+01  0.30855802362E+03  0.90296481654E+02 0.  0.
          3    1    3    3  502    0 -0.36334139382E+03  0.12122623063E+03 -0.10770975089E+04  0.11431761943E+04  0.00000000000E+00 0. -1.
         -3    1    3    3    0  502 -0.19816518568E+03  0.10482446265E+02 -0.44981505115E+03  0.49164306436E+03  0.00000000000E+00 0.  1.
         11    1    5    5    0    0  0.77533361404E+02  0.32610853097E+02 -0.98542908995E+02  0.12955923272E+03  0.00000000000E+00 0.  1.
        -11    1    5    5    0    0  0.61170218640E+03  0.10162480359E+03 -0.44595030202E+03  0.76379240467E+03  0.00000000000E+00 0. -1.
          3    1    6    6  503    0 -0.12118784124E+03 -0.21051821708E+03  0.27781471556E+02  0.24449176417E+03  0.00000000000E+00 0. -1.
         -3    1    6    6    0  503 -0.65411270681E+01 -0.55426116510E+02 -0.31458621482E+02  0.64066259452E+02  0.00000000000E+00 0.  1.
<mgrwt>
<rscale>  0 0.19341825E+04</rscale>
<asrwt>0</asrwt>
<pdfrwt beam="1">  1        2 0.37783169E+00 0.19341825E+04</pdfrwt>
<pdfrwt beam="2">  1       -2 0.58588152E-01 0.19341825E+04</pdfrwt>
<totfact> 0.93966849E+00</totfact>
</mgrwt>
</event>
<event>
12    2  0.8147979E-008  0.2897789E+04  0.7818608E-02  0.8273536E-01
          2   -1    0    0  501    0  0.00000000000E+00  0.00000000000E+00  0.15314762467E+04  0.15314762467E+04  0.00000000000E+00 0. -1.
         -2   -1    0    0    0  501 -0.00000000000E+00 -0.00000000000E+00 -0.13707657128E+04  0.13707657128E+04  0.00000000000E+00 0.  1.
         23    2    1    2    0    0 -0.89153664200E+03 -0.92053431174E+03 -0.18725197459E+03  0.12982008447E+04  0.89672336810E+02 0.  0.
        254    2    1    2    0    0  0.89153664200E+03  0.92053431174E+03  0.34796250854E+03  0.16040411148E+04  0.89980497195E+03 0.  0.
         23    2    4    4    0    0  0.67071090888E+03  0.67603772838E+02  0.15850686308E+03  0.69857702690E+03  0.91989366053E+02 0.  0.
         23    2    4    4    0    0  0.22082573312E+03  0.85293053891E+03  0.18945564546E+03  0.90546408792E+03  0.87847961347E+02 0.  0.
          4    1    3    3  502    0 -0.34473465700E+03 -0.30635180899E+03 -0.41358756835E+02  0.46303775373E+03  0.00000000000E+00 0.  1.
         -4    1    3    3    0  502 -0.54680198500E+03 -0.61418250276E+03 -0.14589321775E+03  0.83516309095E+03  0.00000000000E+00 0. -1.
         11    1    5    5    0    0  0.31157595603E+03  0.74101739818E+02  0.56828148336E+02  0.32526924641E+03  0.00000000000E+00 0.  1.
        -11    1    5    5    0    0  0.35913495285E+03 -0.64979669795E+01  0.10167871475E+03  0.37330778048E+03  0.00000000000E+00 0. -1.
          1    1    6    6  503    0  0.22337100667E+03  0.76557216464E+03  0.18003649798E+03  0.81756252757E+03  0.00000000000E+00 0. -1.
         -1    1    6    6    0  503 -0.25452735477E+01  0.87358374271E+02  0.94191474741E+01  0.87901560349E+02  0.00000000000E+00 0.  1.
<mgrwt>
<rscale>  0 0.28977889E+04</rscale>
<asrwt>0</asrwt>
<pdfrwt beam="1">  1        2 0.23561173E+00 0.28977889E+04</pdfrwt>
<pdfrwt beam="2">  1       -2 0.21088703E+00 0.28977889E+04</pdfrwt>
<totfact> 0.11888296E+00</totfact>
</mgrwt>
</event>
<event>
12    2  0.8147979E-008  0.3024115E+04  0.7818608E-02  0.8236878E-01
         -2   -1    0    0    0  501 -0.00000000000E+00  0.00000000000E+00  0.21607937794E+04  0.21607937794E+04  0.00000000000E+00 0.  1.
          2   -1    0    0  501    0  0.00000000000E+00 -0.00000000000E+00 -0.10580919803E+04  0.10580919803E+04  0.00000000000E+00 0. -1.
         23    2    1    2    0    0 -0.13317873727E+02 -0.77728210781E+03  0.17109665610E+04  0.18815336102E+04  0.91745912210E+02 0.  0.
        254    2    1    2    0    0  0.13317873727E+02  0.77728210781E+03 -0.60826476192E+03  0.13373521495E+04  0.90231918430E+03 0.  0.
         23    2    4    4    0    0 -0.20933682579E+02  0.94189741808E+03 -0.33524022129E+03  0.10042622794E+04  0.92454067453E+02 0.  0.
         23    2    4    4    0    0  0.34251556306E+02 -0.16461531027E+03 -0.27302454063E+03  0.33308987013E+03  0.90194746582E+02 0.  0.
          1    1    3    3  502    0  0.31826847664E+02 -0.42785744701E+03  0.88274215473E+03  0.98148288571E+03  0.00000000000E+00 0. -1.
         -1    1    3    3    0  502 -0.45144721391E+02 -0.34942466080E+03  0.82822440628E+03  0.90005072446E+03  0.00000000000E+00 0.  1.
         11    1    5    5    0    0 -0.44358823502E+02  0.86695201023E+03 -0.30461630538E+03  0.91998075348E+03  0.00000000000E+00 0.  1.
        -11    1    5    5    0    0  0.23425140923E+02  0.74945407846E+02 -0.30623915910E+02  0.84281525913E+02  0.00000000000E+00 0. -1.
          1    1    6    6  503    0 -0.22239186511E+02 -0.15713895989E+02 -0.18758465996E+02  0.33066417864E+02  0.00000000000E+00 0. -1.
         -1    1    6    6    0  503  0.56490742817E+02 -0.14890141428E+03 -0.25426607464E+03  0.30002345227E+03  0.00000000000E+00 0.  1.
<mgrwt>
<rscale>  0 0.30241155E+04</rscale>
<asrwt>0</asrwt>
<pdfrwt beam="1">  1        2 0.16278338E+00 0.30241155E+04</pdfrwt>
<pdfrwt beam="2">  1       -2 0.33242981E+00 0.30241155E+04</pdfrwt>
<totfact> 0.39618804E-01</totfact>
</mgrwt>
</event>
<event>
12    2  0.8147979E-008  0.1826829E+04  0.7818608E-02  0.8692161E-01
          2   -1    0    0  501    0  0.00000000000E+00  0.00000000000E+00  0.14879577051E+04  0.14879577051E+04  0.00000000000E+00 0. -1.
         -2   -1    0    0    0  501 -0.00000000000E+00 -0.00000000000E+00 -0.56071899876E+03  0.56071899876E+03  0.00000000000E+00 0.  1.
         23    2    1    2    0    0 -0.55159387476E+03  0.33380354025E+03  0.83836989762E+02  0.65573286885E+03  0.85301513941E+02 0.  0.
        254    2    1    2    0    0  0.55159387476E+03 -0.33380354025E+03  0.84340171662E+03  0.13929438350E+04  0.90182341167E+03 0.  0.
         23    2    4    4    0    0  0.22103019971E+03 -0.58134855822E+03  0.71207237811E+03  0.95001800372E+03  0.93094792556E+02 0.  0.
         23    2    4    4    0    0  0.33056367505E+03  0.24754501796E+03  0.13132933851E+03  0.44292583133E+03  0.91569742394E+02 0.  0.
          1    1    3    3  502    0 -0.13973819329E+03  0.49408811995E+02 -0.23254398476E+00  0.14821621856E+03  0.00000000000E+00 0. -1.
         -1    1    3    3    0  502 -0.41185568147E+03  0.28439472826E+03  0.84069533747E+02  0.50751665029E+03  0.00000000000E+00 0.  1.
         11    1    5    5    0    0  0.16496425052E+03 -0.50340902108E+03  0.56616630768E+03  0.77535677879E+03  0.00000000000E+00 0.  1.
        -11    1    5    5    0    0  0.56065949194E+02 -0.77939537132E+02  0.14590607042E+03  0.17466122493E+03  0.00000000000E+00 0. -1.
          2    1    6    6  503    0  0.55447135655E+02  0.58239083609E+01  0.70744408502E+01  0.56199203503E+02  0.00000000000E+00 0. -1.
         -2    1    6    6    0  503  0.27511653939E+03  0.24172110960E+03  0.12425489766E+03  0.38672662783E+03  0.00000000000E+00 0.  1.
<mgrwt>
<rscale>  0 0.18268291E+04</rscale>
<asrwt>0</asrwt>
<pdfrwt beam="1">  1        2 0.22891657E+00 0.18268291E+04</pdfrwt>
<pdfrwt beam="2">  1       -2 0.86264462E-01 0.18268291E+04</pdfrwt>
<totfact> 0.14151476E+01</totfact>
</mgrwt>
</event>
<event>
12    2  0.8147979E-008  0.1231879E+04  0.7818608E-02  0.9085402E-01
         -2   -1    0    0    0  501 -0.00000000000E+00  0.00000000000E+00  0.10858955621E+04  0.10858955621E+04  0.00000000000E+00 0.  1.
          2   -1    0    0  501    0  0.00000000000E+00 -0.00000000000E+00 -0.34937180783E+03  0.34937180783E+03  0.00000000000E+00 0. -1.
         23    2    1    2    0    0 -0.24696206853E+03 -0.12016108492E+03  0.22296419742E+03  0.36497287895E+03  0.89795430936E+02 0.  0.
        254    2    1    2    0    0  0.24696206853E+03  0.12016108492E+03  0.51355955684E+03  0.10702944910E+04  0.89797434783E+03 0.  0.
         23    2    4    4    0    0  0.50687456904E+03  0.30919259553E+03  0.27723727113E+03  0.66149168134E+03  0.90492265432E+02 0.  0.
         23    2    4    4    0    0 -0.25991250051E+03 -0.18903151061E+03  0.23632228570E+03  0.40880280963E+03  0.89353760540E+02 0.  0.
          2    1    3    3  502    0 -0.70491377295E+02 -0.80635445325E+02  0.68435722328E+02  0.12710057988E+03  0.00000000000E+00 0. -1.
         -2    1    3    3    0  502 -0.17647069124E+03 -0.39525639597E+02  0.15452847509E+03  0.23787229907E+03  0.00000000000E+00 0.  1.
         11    1    5    5    0    0  0.45201033692E+03  0.26230801427E+03  0.21120270460E+03  0.56367137719E+03  0.00000000000E+00 0. -1.
        -11    1    5    5    0    0  0.54864232120E+02  0.46884581261E+02  0.66034566537E+02  0.97820304149E+02  0.00000000000E+00 0.  1.
          4    1    6    6  503    0 -0.25451066478E+03 -0.19214320224E+03  0.21018525537E+03  0.38193262525E+03  0.00000000000E+00 0. -1.
         -4    1    6    6    0  503 -0.54018357283E+01  0.31116916399E+01  0.26137030337E+02  0.26870184386E+02  0.00000000000E+00 0.  1.
<mgrwt>
<rscale>  0 0.12318787E+04</rscale>
<asrwt>0</asrwt>
<pdfrwt beam="1">  1        2 0.53749509E-01 0.12318787E+04</pdfrwt>
<pdfrwt beam="2">  1       -2 0.16706085E+00 0.12318787E+04</pdfrwt>
<totfact> 0.20373208E+01</totfact>
</mgrwt>
</event>
<event>
12    2  0.8147979E-008  0.1898459E+04  0.7818608E-02  0.8655624E-01
          2   -1    0    0  501    0  0.00000000000E+00  0.00000000000E+00  0.92533246261E+03  0.92533246261E+03  0.00000000000E+00 0. -1.
         -2   -1    0    0    0  501 -0.00000000000E+00 -0.00000000000E+00 -0.97374322139E+03  0.97374322139E+03  0.00000000000E+00 0.  1.
         23    2    1    2    0    0 -0.49429078757E+03  0.53463623890E+03  0.72541524812E+02  0.73576469216E+03  0.76994277566E+02 0.  0.
        254    2    1    2    0    0  0.49429078757E+03 -0.53463623890E+03 -0.12095228359E+03  0.11633109918E+04  0.89916834809E+03 0.  0.
         23    2    4    4    0    0  0.36343242116E+02 -0.64390549717E+03 -0.18839543765E+03  0.67866191932E+03  0.95676743612E+02 0.  0.
         23    2    4    4    0    0  0.45794754545E+03  0.10926925827E+03  0.67443154062E+02  0.48464907252E+03  0.93168767727E+02 0.  0.
          4    1    3    3  502    0 -0.45845752615E+03  0.51160937232E+03  0.82830949142E+02  0.69194538749E+03  0.00000000000E+00 0. -1.
         -4    1    3    3    0  502 -0.35833261420E+02  0.23026866580E+02 -0.10289424330E+02  0.43819304667E+02  0.00000000000E+00 0.  1.
         11    1    5    5    0    0  0.90534734740E+01 -0.57160528081E+03 -0.14398355786E+03  0.58953017511E+03  0.00000000000E+00 0.  1.
        -11    1    5    5    0    0  0.27289768642E+02 -0.72300216357E+02 -0.44411879794E+02  0.89131744203E+02  0.00000000000E+00 0. -1.
          1    1    6    6  503    0  0.35242985767E+02  0.24830773813E+02  0.28838730163E+02  0.51868176480E+02  0.00000000000E+00 0. -1.
         -1    1    6    6    0  503  0.42270455969E+03  0.84438484454E+02  0.38604423899E+02  0.43278089604E+03  0.00000000000E+00 0.  1.
<mgrwt>
<rscale>  0 0.18984585E+04</rscale>
<asrwt>0</asrwt>
<pdfrwt beam="1">  1        2 0.14235884E+00 0.18984585E+04</pdfrwt>
<pdfrwt beam="2">  1       -2 0.14980665E+00 0.18984585E+04</pdfrwt>
<totfact> 0.79377978E+00</totfact>
</mgrwt>
</event>
<event>
12    2  0.8147979E-008  0.1558034E+04  0.7818608E-02  0.8846753E-01
         -1   -1    0    0    0  501 -0.00000000000E+00  0.00000000000E+00  0.26201190365E+03  0.26201190365E+03  0.00000000000E+00 0.  1.
          1   -1    0    0  501    0  0.00000000000E+00 -0.00000000000E+00 -0.23161816586E+04  0.23161816586E+04  0.00000000000E+00 0. -1.
         23    2    1    2    0    0 -0.27521587860E+03  0.40443174299E+03 -0.83971529531E+03  0.97602239353E+03  0.90493761823E+02 0.  0.
        254    2    1    2    0    0  0.27521587860E+03 -0.40443174299E+03 -0.12144544597E+04  0.16021711687E+04  0.92344139217E+03 0.  0.
         23    2    4    4    0    0 -0.19486795237E+03 -0.39015747163E+03 -0.21752813165E+03  0.49607151833E+03  0.92585591259E+02 0.  0.
         23    2    4    4    0    0  0.47008383097E+03 -0.14274271355E+02 -0.99692632802E+03  0.11060996504E+04  0.91715703031E+02 0.  0.
          3    1    3    3  502    0 -0.52687193093E+02  0.11118853950E+03 -0.28321104602E+03  0.30878362687E+03  0.00000000000E+00 0. -1.
         -3    1    3    3    0  502 -0.22252868551E+03  0.29324320349E+03 -0.55650424928E+03  0.66723876666E+03  0.00000000000E+00 0.  1.
         11    1    5    5    0    0  0.86279837208E+01 -0.22980536660E+02 -0.22039232723E+02  0.32989012524E+02  0.00000000000E+00 0. -1.
        -11    1    5    5    0    0 -0.20349593609E+03 -0.36717693497E+03 -0.19548889892E+03  0.46308250581E+03  0.00000000000E+00 0.  1.
          1    1    6    6  503    0  0.60113215213E+02 -0.95111342023E+01 -0.21175168737E+03  0.22032439134E+03  0.00000000000E+00 0. -1.
         -1    1    6    6    0  503  0.40997061576E+03 -0.47631371530E+01 -0.78517464066E+03  0.88577525908E+03  0.00000000000E+00 0.  1.
<mgrwt>
<rscale>  0 0.15580336E+04</rscale>
<asrwt>0</asrwt>
<pdfrwt beam="1">  1        1 0.35633563E+00 0.15580336E+04</pdfrwt>
<pdfrwt beam="2">  1       -1 0.40309525E-01 0.15580336E+04</pdfrwt>
<totfact> 0.10505242E+01</totfact>
</mgrwt>
</event>
<event>
12    2  0.8147979E-008  0.2065474E+04  0.7818608E-02  0.8576607E-01
         -1   -1    0    0    0  501 -0.00000000000E+00  0.00000000000E+00  0.10104576990E+04  0.10104576990E+04  0.00000000000E+00 0.  1.
          1   -1    0    0  501    0  0.00000000000E+00 -0.00000000000E+00 -0.10555074808E+04  0.10555074808E+04  0.00000000000E+00 0. -1.
         23    2    1    2    0    0 -0.29141598065E+03 -0.39857300663E+03  0.65336344629E+03  0.82404653564E+03  0.91570653375E+02 0.  0.
        254    2    1    2    0    0  0.29141598065E+03  0.39857300663E+03 -0.69841322814E+03  0.12419186442E+04  0.90044276119E+03 0.  0.
         23    2    4    4    0    0  0.30448735961E+03  0.56925918869E+03 -0.79522037615E+03  0.10284135389E+04  0.92143281353E+02 0.  0.
         23    2    4    4    0    0 -0.13071378960E+02 -0.17068618205E+03  0.96807148010E+02  0.21350510530E+03  0.83115416073E+02 0.  0.
          2    1    3    3  502    0 -0.22146974184E+02 -0.10794212531E+02  0.11313265183E+02  0.27110762785E+02  0.00000000000E+00 0. -1.
         -2    1    3    3    0  502 -0.26926900647E+03 -0.38777879410E+03  0.64205018110E+03  0.79693577285E+03  0.00000000000E+00 0.  1.
         11    1    5    5    0    0  0.78475742061E+02  0.11493557657E+03 -0.11991214137E+03  0.18370506390E+03  0.00000000000E+00 0.  1.
        -11    1    5    5    0    0  0.22601161755E+03  0.45432361212E+03 -0.67530823478E+03  0.84470847501E+03  0.00000000000E+00 0. -1.
          4    1    6    6  503    0  0.23989466797E+02 -0.14035255071E+03  0.71208103377E+02  0.15920090136E+03  0.00000000000E+00 0. -1.
         -4    1    6    6    0  503 -0.37060845756E+02 -0.30333631346E+02  0.25599044633E+02  0.54304203935E+02  0.00000000000E+00 0.  1.
<mgrwt>
<rscale>  0 0.20654740E+04</rscale>
<asrwt>0</asrwt>
<pdfrwt beam="1">  1        1 0.16238577E+00 0.20654740E+04</pdfrwt>
<pdfrwt beam="2">  1       -1 0.15545503E+00 0.20654740E+04</pdfrwt>
<totfact> 0.40023352E+00</totfact>
</mgrwt>
</event>
<event>
12    2  0.8147979E-008  0.2126816E+04  0.7818608E-02  0.8549522E-01
          2   -1    0    0  501    0  0.00000000000E+00  0.00000000000E+00  0.21403756830E+04  0.21403756830E+04  0.00000000000E+00 0. -1.
         -2   -1    0    0    0  501 -0.00000000000E+00 -0.00000000000E+00 -0.52833566763E+03  0.52833566763E+03  0.00000000000E+00 0.  1.
         23    2    1    2    0    0  0.39694580172E+03 -0.77428302165E+03  0.68561953097E+03  0.11115463486E+04  0.91547675060E+02 0.  0.
        254    2    1    2    0    0 -0.39694580172E+03  0.77428302165E+03  0.92642048442E+03  0.15571650020E+04  0.89968203405E+03 0.  0.
         23    2    4    4    0    0 -0.29908821309E+03 -0.12934712675E+03  0.25650290756E+03  0.42445290575E+03  0.90454901516E+02 0.  0.
         23    2    4    4    0    0 -0.97857588638E+02  0.90363014840E+03  0.66991757686E+03  0.11327120963E+04  0.90130907340E+02 0.  0.
          2    1    3    3  502    0  0.92243604444E+02 -0.20406057500E+03  0.22702625103E+03  0.31888950984E+03  0.00000000000E+00 0. -1.
         -2    1    3    3    0  502  0.30470219728E+03 -0.57022244666E+03  0.45859327994E+03  0.79265683881E+03  0.00000000000E+00 0.  1.
         11    1    5    5    0    0 -0.30143247512E+03 -0.13307882468E+03  0.24071847425E+03  0.40806481652E+03  0.00000000000E+00 0. -1.
        -11    1    5    5    0    0  0.23442620333E+01  0.37316979263E+01  0.15784433304E+02  0.16388089230E+02  0.00000000000E+00 0.  1.
          1    1    6    6  503    0 -0.86834779802E+02  0.88802124509E+03  0.64345304775E+03  0.11000699229E+04  0.00000000000E+00 0. -1.
         -1    1    6    6    0  503 -0.11022808836E+02  0.15608903315E+02  0.26464529107E+02  0.32642173307E+02  0.00000000000E+00 0.  1.
<mgrwt>
<rscale>  0 0.21268162E+04</rscale>
<asrwt>0</asrwt>
<pdfrwt beam="1">  1        2 0.32928856E+00 0.21268162E+04</pdfrwt>
<pdfrwt beam="2">  1       -2 0.81282411E-01 0.21268162E+04</pdfrwt>
<totfact> 0.68394324E+00</totfact>
</mgrwt>
</event>
<event>
12    2  0.8147979E-008  0.1197182E+04  0.7818608E-02  0.9115327E-01
          2   -1    0    0  501    0  0.00000000000E+00  0.00000000000E+00  0.90895869595E+03  0.90895869595E+03  0.00000000000E+00 0. -1.
         -2   -1    0    0    0  501 -0.00000000000E+00 -0.00000000000E+00 -0.39419970087E+03  0.39419970087E+03  0.00000000000E+00 0.  1.
         23    2    1    2    0    0 -0.24191070794E+03  0.41022572110E+02  0.12637751659E+03  0.29107032639E+03  0.92450073903E+02 0.  0.
        254    2    1    2    0    0  0.24191070794E+03 -0.41022572110E+02  0.38838147849E+03  0.10120880704E+04  0.90181952043E+03 0.  0.
         23    2    4    4    0    0  0.55072971356E+03 -0.21393836898E+02  0.77345939656E+02  0.56386976335E+03  0.90585881802E+02 0.  0.
         23    2    4    4    0    0 -0.30881900562E+03 -0.19628735212E+02  0.31103553884E+03  0.44821830708E+03  0.91662854577E+02 0.  0.
          4    1    3    3  502    0 -0.15756893010E+03  0.51494297396E+02  0.41347805491E+02  0.17084867988E+03  0.00000000000E+00 0.  1.
         -4    1    3    3    0  502 -0.84341777845E+02 -0.10471725286E+02  0.85029711101E+02  0.12022164651E+03  0.00000000000E+00 0. -1.
         11    1    5    5    0    0  0.23190231683E+03  0.10539690001E+02 -0.79871282335E+01  0.23227906457E+03  0.00000000000E+00 0. -1.
        -11    1    5    5    0    0  0.31882739672E+03 -0.31933526899E+02  0.85333067890E+02  0.33159069878E+03  0.00000000000E+00 0.  1.
          1    1    6    6  503    0 -0.13334337683E+03 -0.43836876376E+02  0.17800957154E+03  0.22669260119E+03  0.00000000000E+00 0. -1.
         -1    1    6    6    0  503 -0.17547562878E+03  0.24208141164E+02  0.13302596730E+03  0.22152570589E+03  0.00000000000E+00 0.  1.
<mgrwt>
<rscale>  0 0.11971821E+04</rscale>
<asrwt>0</asrwt>
<pdfrwt beam="1">  1        2 0.13983980E+00 0.11971821E+04</pdfrwt>
<pdfrwt beam="2">  1       -2 0.60646108E-01 0.11971821E+04</pdfrwt>
<totfact> 0.72266975E+01</totfact>
</mgrwt>
</event>
<event>
12    2  0.8147979E-008  0.1422592E+04  0.7818608E-02  0.8937625E-01
         -2   -1    0    0    0  501 -0.00000000000E+00  0.00000000000E+00  0.47400941178E+03  0.47400941178E+03  0.00000000000E+00 0.  1.
          2   -1    0    0  501    0  0.00000000000E+00 -0.00000000000E+00 -0.10673675790E+04  0.10673675790E+04  0.00000000000E+00 0. -1.
         23    2    1    2    0    0  0.13100081612E+03 -0.22299993737E+03 -0.53983734235E+03  0.60561117799E+03  0.91925822398E+02 0.  0.
        254    2    1    2    0    0 -0.13100081612E+03  0.22299993737E+03 -0.53520824865E+02  0.93576581277E+03  0.89772099885E+03 0.  0.
         23    2    4    4    0    0  0.16568563096E+03 -0.59049877490E+02  0.31757230338E+03  0.37574448918E+03  0.96918197119E+02 0.  0.
         23    2    4    4    0    0 -0.29668644709E+03  0.28204981486E+03 -0.37109312825E+03  0.56002132359E+03  0.91317178560E+02 0.  0.
          4    1    3    3  502    0  0.39334433485E+02 -0.26160931277E+02 -0.17293796830E+03  0.17927390457E+03  0.00000000000E+00 0.  1.
         -4    1    3    3    0  502  0.91666382635E+02 -0.19683900609E+03 -0.36689937405E+03  0.42633727342E+03  0.00000000000E+00 0. -1.
         11    1    5    5    0    0  0.84357581338E+02 -0.58325079674E+02  0.24924872203E+03  0.26952354606E+03  0.00000000000E+00 0. -1.
        -11    1    5    5    0    0  0.81328049627E+02 -0.72479781604E+00  0.68323581355E+02  0.10622094312E+03  0.00000000000E+00 0.  1.
          3    1    6    6  503    0 -0.16614918605E+03  0.20210790918E+03 -0.19259609028E+03  0.32487907438E+03  0.00000000000E+00 0. -1.
         -3    1    6    6    0  503 -0.13053726104E+03  0.79941905680E+02 -0.17849703797E+03  0.23514224922E+03  0.00000000000E+00 0.  1.
<mgrwt>
<rscale>  0 0.14225924E+04</rscale>
<asrwt>0</asrwt>
<pdfrwt beam="1">  1        2 0.16421039E+00 0.14225924E+04</pdfrwt>
<pdfrwt beam="2">  1       -2 0.72924526E-01 0.14225924E+04</pdfrwt>
<totfact> 0.37697810E+01</totfact>
</mgrwt>
</event>
<event>
12    2  0.8147979E-008  0.1782127E+04  0.7818608E-02  0.8715862E-01
         -2   -1    0    0    0  501 -0.00000000000E+00  0.00000000000E+00  0.26507047996E+03  0.26507047996E+03  0.00000000000E+00 0.  1.
          2   -1    0    0  501    0  0.00000000000E+00 -0.00000000000E+00 -0.29954092030E+04  0.29954092030E+04  0.00000000000E+00 0. -1.
         23    2    1    2    0    0 -0.89171942421E+02  0.56794114156E+03 -0.16075294663E+04  0.17097149008E+04  0.92006964306E+02 0.  0.
        254    2    1    2    0    0  0.89171942421E+02 -0.56794114156E+03 -0.11228092567E+04  0.15507647821E+04  0.90203215401E+03 0.  0.
         23    2    4    4    0    0 -0.32778507657E+03 -0.62055974294E+02 -0.15728998894E+03  0.38009664710E+03  0.91865772439E+02 0.  0.
         23    2    4    4    0    0  0.41695701899E+03 -0.50588516727E+03 -0.96551926776E+03  0.11706681350E+04  0.91997107222E+02 0.  0.
          3    1    3    3  502    0 -0.76607534241E+02  0.52526669221E+03 -0.15393731196E+04  0.16283253402E+04  0.00000000000E+00 0. -1.
         -3    1    3    3    0  502 -0.12564408180E+02  0.42674449350E+02 -0.68156346713E+02  0.81389560617E+02  0.00000000000E+00 0.  1.
         11    1    5    5    0    0 -0.19641628808E+02  0.45191077832E+01 -0.38027703845E+02  0.43038612630E+02  0.00000000000E+00 0.  1.
        -11    1    5    5    0    0 -0.30814344776E+03 -0.66575082077E+02 -0.11926228509E+03  0.33705803447E+03  0.00000000000E+00 0. -1.
          2    1    6    6  503    0  0.27642178312E+03 -0.39674571221E+03 -0.68503756027E+03  0.83850618442E+03  0.00000000000E+00 0. -1.
         -2    1    6    6    0  503  0.14053523587E+03 -0.10913945506E+03 -0.28048170749E+03  0.33216195058E+03  0.00000000000E+00 0.  1.
<mgrwt>
<rscale>  0 0.17821274E+04</rscale>
<asrwt>0</asrwt>
<pdfrwt beam="1">  1        2 0.46083218E+00 0.17821274E+04</pdfrwt>
<pdfrwt beam="2">  1       -2 0.40780074E-01 0.17821274E+04</pdfrwt>
<totfact> 0.94732559E+00</totfact>
</mgrwt>
</event>
<event>
12    2  0.8147979E-008  0.2750518E+04  0.7818608E-02  0.8318797E-01
         -2   -1    0    0    0  501 -0.00000000000E+00  0.00000000000E+00  0.14809083236E+04  0.14809083236E+04  0.00000000000E+00 0. -1.
          2   -1    0    0  501    0  0.00000000000E+00 -0.00000000000E+00 -0.12771466609E+04  0.12771466609E+04  0.00000000000E+00 0.  1.
         23    2    1    2    0    0  0.87087605349E+03  0.63544816958E+03 -0.49555564458E+03  0.11903145559E+04  0.95151818016E+02 0.  0.
        254    2    1    2    0    0 -0.87087605349E+03 -0.63544816958E+03  0.69931730721E+03  0.15677404286E+04  0.89807899344E+03 0.  0.
         23    2    4    4    0    0 -0.96988239261E+03 -0.53210262577E+03  0.32453639576E+03  0.11565741451E+04  0.92384095404E+02 0.  0.
         23    2    4    4    0    0  0.99006339123E+02 -0.10334554381E+03  0.37478091145E+03  0.41116628348E+03  0.90080100284E+02 0.  0.
          4    1    3    3  502    0  0.36093485535E+03  0.27826001061E+03 -0.15973921458E+03  0.48292775856E+03  0.00000000000E+00 0. -1.
         -4    1    3    3    0  502  0.50994119813E+03  0.35718815896E+03 -0.33581643000E+03  0.70738679738E+03  0.00000000000E+00 0.  1.
         11    1    5    5    0    0 -0.40971913797E+03 -0.17761721316E+03  0.14993848193E+03  0.47106177386E+03  0.00000000000E+00 0.  1.
        -11    1    5    5    0    0 -0.56016325464E+03 -0.35448541260E+03  0.17459791383E+03  0.68551237123E+03  0.00000000000E+00 0. -1.
          2    1    6    6  503    0  0.10436792209E+03 -0.91286200481E+02  0.25157596458E+03  0.28725650474E+03  0.00000000000E+00 0. -1.
         -2    1    6    6    0  503 -0.53615829659E+01 -0.12059343330E+02  0.12320494688E+03  0.12390977874E+03  0.00000000000E+00 0.  1.
<mgrwt>
<rscale>  0 0.27505179E+04</rscale>
<asrwt>0</asrwt>
<pdfrwt beam="1">  1        2 0.19648410E+00 0.27505179E+04</pdfrwt>
<pdfrwt beam="2">  1       -2 0.22783205E+00 0.27505179E+04</pdfrwt>
<totfact> 0.13139983E+00</totfact>
</mgrwt>
</event>
<event>
12    2  0.8147979E-008  0.1722245E+04  0.7818608E-02  0.8748778E-01
         -2   -1    0    0    0  501 -0.00000000000E+00  0.00000000000E+00  0.20532819939E+03  0.20532819939E+03  0.00000000000E+00 0.  1.
          2   -1    0    0  501    0  0.00000000000E+00 -0.00000000000E+00 -0.36114455972E+04  0.36114455972E+04  0.00000000000E+00 0. -1.
         23    2    1    2    0    0  0.12092014853E+03  0.55673474452E+03 -0.69059787346E+03  0.89974708958E+03  0.89689153825E+02 0.  0.
        254    2    1    2    0    0 -0.12092014853E+03 -0.55673474452E+03 -0.27155195243E+04  0.29170267070E+04  0.90023511606E+03 0.  0.
         23    2    4    4    0    0 -0.29271930229E+03 -0.31053333145E+03 -0.24983511980E+04  0.25361762632E+04  0.91190950778E+02 0.  0.
         23    2    4    4    0    0  0.17179915376E+03 -0.24620141308E+03 -0.21716832634E+03  0.38085044382E+03  0.88061873461E+02 0.  0.
          2    1    3    3  502    0  0.12208467268E+03  0.50976898457E+03 -0.66326918519E+03  0.84539641409E+03  0.00000000000E+00 0. -1.
         -2    1    3    3    0  502 -0.11645241504E+01  0.46965759950E+02 -0.27328688265E+02  0.54350675492E+02  0.00000000000E+00 0.  1.
         11    1    5    5    0    0 -0.10761747139E+03 -0.18054176646E+03 -0.12137411185E+04  0.12318053224E+04  0.00000000000E+00 0.  1.
        -11    1    5    5    0    0 -0.18510183090E+03 -0.12999156499E+03 -0.12846100795E+04  0.13043709408E+04  0.00000000000E+00 0. -1.
          3    1    6    6  503    0  0.13893440209E+02 -0.74833172629E+02 -0.80128038197E+02  0.11051485833E+03  0.00000000000E+00 0. -1.
         -3    1    6    6    0  503  0.15790571355E+03 -0.17136824045E+03 -0.13704028814E+03  0.27033558549E+03  0.00000000000E+00 0.  1.
<mgrwt>
<rscale>  0 0.17222446E+04</rscale>
<asrwt>0</asrwt>
<pdfrwt beam="1">  1        2 0.55560703E+00 0.17222446E+04</pdfrwt>
<pdfrwt beam="2">  1       -2 0.31588953E-01 0.17222446E+04</pdfrwt>
<totfact> 0.60554674E+00</totfact>
</mgrwt>
</event>
<event>
12    2  0.8147979E-008  0.1642623E+04  0.7818608E-02  0.8794783E-01
         -2   -1    0    0    0  501 -0.00000000000E+00  0.00000000000E+00  0.18049758313E+04  0.18049758313E+04  0.00000000000E+00 0.  1.
          2   -1    0    0  501    0  0.00000000000E+00 -0.00000000000E+00 -0.37371834002E+03  0.37371834002E+03  0.00000000000E+00 0. -1.
         23    2    1    2    0    0 -0.26004910238E+03  0.68682054787E+02  0.11675431969E+04  0.12013792015E+04  0.88386134587E+02 0.  0.
        254    2    1    2    0    0  0.26004910238E+03 -0.68682054787E+02  0.26371429435E+03  0.97731496982E+03  0.90180738569E+03 0.  0.
         23    2    4    4    0    0  0.52516562532E+02 -0.22391264728E+03 -0.27743436447E+03  0.37091088162E+03  0.87807702197E+02 0.  0.
         23    2    4    4    0    0  0.20753253985E+03  0.15523059250E+03  0.54114865882E+03  0.60640408820E+03  0.87850755838E+02 0.  0.
          2    1    3    3  502    0 -0.41412621834E+02  0.10345448501E+02  0.81384505684E+02  0.91899245467E+02  0.00000000000E+00 0. -1.
         -2    1    3    3    0  502 -0.21863648055E+03  0.58336606286E+02  0.10861586912E+04  0.11094799560E+04  0.00000000000E+00 0.  1.
         11    1    5    5    0    0  0.17553915099E+02 -0.14268477386E+02 -0.71403185213E+02  0.74900896128E+02  0.00000000000E+00 0.  1.
        -11    1    5    5    0    0  0.34962647433E+02 -0.20964416990E+03 -0.20603117925E+03  0.29600998549E+03  0.00000000000E+00 0. -1.
          1    1    6    6  503    0  0.77316612649E+02  0.11095857803E+03  0.24409729635E+03  0.27905761899E+03  0.00000000000E+00 0. -1.
         -1    1    6    6    0  503  0.13021592720E+03  0.44272014470E+02  0.29705136247E+03  0.32734646921E+03  0.00000000000E+00 0.  1.
<mgrwt>
<rscale>  0 0.16426230E+04</rscale>
<asrwt>0</asrwt>
<pdfrwt beam="1">  1        2 0.57495130E-01 0.16426230E+04</pdfrwt>
<pdfrwt beam="2">  1       -2 0.27768859E+00 0.16426230E+04</pdfrwt>
<totfact> 0.35746363E+00</totfact>
</mgrwt>
</event>
<event>
12    2  0.8147979E-008  0.2560843E+04  0.7818608E-02  0.8381625E-01
         -2   -1    0    0    0  501 -0.00000000000E+00  0.00000000000E+00  0.61061323388E+03  0.61061323388E+03  0.00000000000E+00 0.  1.
          2   -1    0    0  501    0  0.00000000000E+00 -0.00000000000E+00 -0.26849707099E+04  0.26849707099E+04  0.00000000000E+00 0. -1.
         23    2    1    2    0    0 -0.16109010863E+03  0.96071946062E+03 -0.19697777303E+03  0.99711700704E+03  0.80685671205E+02 0.  0.
        254    2    1    2    0    0  0.16109010863E+03 -0.96071946062E+03 -0.18773797030E+04  0.22984669368E+04  0.89970206460E+03 0.  0.
         23    2    4    4    0    0  0.47055418811E+03 -0.40126364287E+03 -0.59098479241E+03  0.85925168930E+03  0.81343012433E+02 0.  0.
         23    2    4    4    0    0 -0.30946407947E+03 -0.55945581775E+03 -0.12863949106E+04  0.14392152475E+04  0.88146662111E+02 0.  0.
          3    1    3    3  502    0 -0.20825560200E+02  0.35526449828E+03 -0.78686106660E+02  0.36446957497E+03  0.00000000000E+00 0. -1.
         -3    1    3    3    0  502 -0.14026454843E+03  0.60545496234E+03 -0.11829166637E+03  0.63264743207E+03  0.00000000000E+00 0.  1.
         11    1    5    5    0    0  0.25569794006E+03 -0.27045473216E+03 -0.35132677810E+03  0.51181803770E+03  0.00000000000E+00 0. -1.
        -11    1    5    5    0    0  0.21485624804E+03 -0.13080891071E+03 -0.23965801431E+03  0.34743365160E+03  0.00000000000E+00 0.  1.
          4    1    6    6  503    0 -0.76194918469E+02 -0.82339255044E+02 -0.27139337081E+03  0.29366610332E+03  0.00000000000E+00 0. -1.
         -4    1    6    6    0  503 -0.23326916100E+03 -0.47711656271E+03 -0.10150015398E+04  0.11455491441E+04  0.00000000000E+00 0.  1.
<mgrwt>
<rscale>  0 0.25608426E+04</rscale>
<asrwt>0</asrwt>
<pdfrwt beam="1">  1        2 0.41307242E+00 0.25608426E+04</pdfrwt>
<pdfrwt beam="2">  1       -2 0.93940496E-01 0.25608426E+04</pdfrwt>
<totfact> 0.23011490E+00</totfact>
</mgrwt>
</event>
<event>
12    2  0.8147979E-008  0.1216058E+04  0.7818608E-02  0.9098916E-01
          2   -1    0    0  501    0  0.00000000000E+00  0.00000000000E+00  0.47531360688E+03  0.47531360688E+03  0.00000000000E+00 0. -1.
         -2   -1    0    0    0  501 -0.00000000000E+00 -0.00000000000E+00 -0.77780042468E+03  0.77780042468E+03  0.00000000000E+00 0.  1.
         23    2    1    2    0    0  0.43454348867E+02  0.17828996823E+03  0.12360429553E+03  0.24080798225E+03  0.95051929151E+02 0.  0.
        254    2    1    2    0    0 -0.43454348867E+02 -0.17828996823E+03 -0.42609111332E+03  0.10123060493E+04  0.89974124469E+03 0.  0.
         23    2    4    4    0    0  0.22139940780E+03  0.14317084893E+03 -0.50715148093E+03  0.57848335986E+03  0.89021251746E+02 0.  0.
         23    2    4    4    0    0 -0.26485375667E+03 -0.32146081717E+03  0.81060367609E+02  0.43382268945E+03  0.90259477558E+02 0.  0.
          2    1    3    3  502    0 -0.45554751594E+01  0.85311038343E+02  0.10358041456E+03  0.13426700227E+03  0.00000000000E+00 0. -1.
         -2    1    3    3    0  502  0.48009824026E+02  0.92978929892E+02  0.20023880961E+02  0.10654097998E+03  0.00000000000E+00 0.  1.
         11    1    5    5    0    0  0.14956378331E+03  0.10916021330E+03 -0.42789460043E+03  0.46623928033E+03  0.00000000000E+00 0. -1.
        -11    1    5    5    0    0  0.71835624491E+02  0.34010635635E+02 -0.79256880504E+02  0.11224407953E+03  0.00000000000E+00 0.  1.
          3    1    6    6  503    0 -0.22341384011E+03 -0.22849703876E+03  0.89001242389E+02  0.33173161113E+03  0.00000000000E+00 0. -1.
         -3    1    6    6    0  503 -0.41439916551E+02 -0.92963778409E+02 -0.79408747802E+01  0.10209107832E+03  0.00000000000E+00 0.  1.
<mgrwt>
<rscale>  0 0.12160578E+04</rscale>
<asrwt>0</asrwt>
<pdfrwt beam="1">  1        2 0.73125171E-01 0.12160578E+04</pdfrwt>
<pdfrwt beam="2">  1       -2 0.11966160E+00 0.12160578E+04</pdfrwt>
<totfact> 0.34411594E+01</totfact>
</mgrwt>
</event>
<event>
12    2  0.8147979E-008  0.2752531E+04  0.7818608E-02  0.8318159E-01
         -1   -1    0    0    0  501 -0.00000000000E+00  0.00000000000E+00  0.11992098199E+04  0.11992098199E+04  0.00000000000E+00 0.  1.
          1   -1    0    0  501    0  0.00000000000E+00 -0.00000000000E+00 -0.15794620841E+04  0.15794620841E+04  0.00000000000E+00 0. -1.
         23    2    1    2    0    0  0.75964637268E+03 -0.40625773983E+03  0.71081307903E+03  0.11207299229E+04  0.93125528789E+02 0.  0.
        254    2    1    2    0    0 -0.75964637268E+03  0.40625773983E+03 -0.10910653432E+04  0.16579419811E+04  0.90346005266E+03 0.  0.
         23    2    4    4    0    0  0.88797498400E+02  0.89696030556E+02  0.79772476395E+02  0.17475293784E+03  0.90799601731E+02 0.  0.
         23    2    4    4    0    0 -0.84844387108E+03  0.31656170927E+03 -0.11708378196E+04  0.14831890432E+04  0.94446916227E+02 0.  0.
          2    1    3    3  502    0  0.63320807536E+03 -0.32738055285E+03  0.54155772349E+03  0.89521799634E+03  0.00000000000E+00 0. -1.
         -2    1    3    3    0  502  0.12643829732E+03 -0.78877186974E+02  0.16925535554E+03  0.22551192659E+03  0.00000000000E+00 0.  1.
         11    1    5    5    0    0  0.21389640923E+02  0.50073419658E+02  0.79745967712E+02  0.96562329411E+02  0.00000000000E+00 0.  1.
        -11    1    5    5    0    0  0.67407857477E+02  0.39622610899E+02  0.26508683315E-01  0.78190608431E+02  0.00000000000E+00 0. -1.
          2    1    6    6  503    0 -0.14979602443E+03  0.83363857195E+02 -0.17985617539E+03  0.24846856028E+03  0.00000000000E+00 0. -1.
         -2    1    6    6    0  503 -0.69864784666E+03  0.23319785208E+03 -0.99098164422E+03  0.12347204830E+04  0.00000000000E+00 0.  1.
<mgrwt>
<rscale>  0 0.27525308E+04</rscale>
<asrwt>0</asrwt>
<pdfrwt beam="1">  1        1 0.24299417E+00 0.27525308E+04</pdfrwt>
<pdfrwt beam="2">  1       -1 0.18449382E+00 0.27525308E+04</pdfrwt>
<totfact> 0.96848535E-01</totfact>
</mgrwt>
</event>
<event>
12    2  0.8147979E-008  0.2850389E+04  0.7818608E-02  0.8287793E-01
         -1   -1    0    0    0  501 -0.00000000000E+00  0.00000000000E+00  0.55312086604E+03  0.55312086604E+03  0.00000000000E+00 0.  1.
          1   -1    0    0  501    0  0.00000000000E+00 -0.00000000000E+00 -0.36722171059E+04  0.36722171059E+04  0.00000000000E+00 0. -1.
         23    2    1    2    0    0  0.10691675613E+04  0.53480486184E+02 -0.24521411477E+04  0.26771888644E+04  0.91458028860E+02 0.  0.
        254    2    1    2    0    0 -0.10691675613E+04 -0.53480486184E+02 -0.66695509214E+03  0.15481491075E+04  0.89775115023E+03 0.  0.
         23    2    4    4    0    0 -0.46901907946E+03 -0.39640916806E+03 -0.60164252350E+02  0.62374491760E+03  0.91207782285E+02 0.  0.
         23    2    4    4    0    0 -0.60014848179E+03  0.34292868188E+03 -0.60679083979E+03  0.92440418991E+03  0.92464598770E+02 0.  0.
          3    1    3    3  502    0  0.29288577577E+03  0.55207720459E+02 -0.69468633548E+03  0.75592266452E+03  0.00000000000E+00 0. -1.
         -3    1    3    3    0  502  0.77628178548E+03 -0.17272342742E+01 -0.17574548122E+04  0.19212661999E+04  0.00000000000E+00 0.  1.
         11    1    5    5    0    0 -0.31023176225E+03 -0.23872720824E+03 -0.78395358636E+02  0.39922457154E+03  0.00000000000E+00 0. -1.
        -11    1    5    5    0    0 -0.15878731721E+03 -0.15768195982E+03  0.18231106287E+02  0.22452034607E+03  0.00000000000E+00 0.  1.
          4    1    6    6  503    0 -0.14382261451E+03  0.12806008363E+03 -0.18211148712E+03  0.26504513428E+03  0.00000000000E+00 0. -1.
         -4    1    6    6    0  503 -0.45632586728E+03  0.21486859825E+03 -0.42467935267E+03  0.65935905563E+03  0.00000000000E+00 0.  1.
<mgrwt>
<rscale>  0 0.28503894E+04</rscale>
<asrwt>0</asrwt>
<pdfrwt beam="1">  1        1 0.56495649E+00 0.28503894E+04</pdfrwt>
<pdfrwt beam="2">  1       -1 0.85095516E-01 0.28503894E+04</pdfrwt>
<totfact> 0.21396523E-01</totfact>
</mgrwt>
</event>
<event>
12    2  0.8147979E-008  0.1558991E+04  0.7818608E-02  0.8846145E-01
         -1   -1    0    0    0  501 -0.00000000000E+00  0.00000000000E+00  0.25182470694E+04  0.25182470694E+04  0.00000000000E+00 0.  1.
          1   -1    0    0  501    0  0.00000000000E+00 -0.00000000000E+00 -0.24128417046E+03  0.24128417046E+03  0.00000000000E+00 0. -1.
         23    2    1    2    0    0  0.68651912887E+02 -0.91224966747E+02  0.16447578747E+04  0.16513252832E+04  0.92798948179E+02 0.  0.
        254    2    1    2    0    0 -0.68651912887E+02  0.91224966747E+02  0.63220502427E+03  0.11082059567E+04  0.90299621818E+03 0.  0.
         23    2    4    4    0    0  0.22789229356E+03 -0.29170934993E+02  0.72279158056E+03  0.76395132738E+03  0.91695805585E+02 0.  0.
         23    2    4    4    0    0 -0.29654420645E+03  0.12039590174E+03 -0.90586556281E+02  0.34425462933E+03  0.88722523071E+02 0.  0.
          2    1    3    3  502    0  0.39808748011E+02  0.10583589363E+02  0.49155984581E+03  0.49328270879E+03  0.00000000000E+00 0. -1.
         -2    1    3    3    0  502  0.28843164876E+02 -0.10180855611E+03  0.11531980289E+04  0.11580425744E+04  0.00000000000E+00 0.  1.
         11    1    5    5    0    0  0.87869281157E+01 -0.24618975248E+02  0.50863382139E+02  0.57187303578E+02  0.00000000000E+00 0.  1.
        -11    1    5    5    0    0  0.21910536545E+03 -0.45519597453E+01  0.67192819842E+03  0.70676402380E+03  0.00000000000E+00 0. -1.
          3    1    6    6  503    0 -0.18403841972E+03  0.66759088458E+02 -0.98909119961E+02  0.21933975891E+03  0.00000000000E+00 0. -1.
         -3    1    6    6    0  503 -0.11250578673E+03  0.53636813282E+02  0.83225636797E+01  0.12491487042E+03  0.00000000000E+00 0.  1.
<mgrwt>
<rscale>  0 0.15589909E+04</rscale>
<asrwt>0</asrwt>
<pdfrwt beam="1">  1        1 0.37120643E-01 0.15589909E+04</pdfrwt>
<pdfrwt beam="2">  1       -1 0.38742261E+00 0.15589909E+04</pdfrwt>
<totfact> 0.98271247E-01</totfact>
</mgrwt>
</event>
<event>
12    2  0.8147979E-008  0.2044556E+04  0.7818608E-02  0.8586068E-01
          1   -1    0    0  501    0  0.00000000000E+00  0.00000000000E+00  0.34300130869E+03  0.34300130869E+03  0.00000000000E+00 0. -1.
         -1   -1    0    0    0  501 -0.00000000000E+00 -0.00000000000E+00 -0.30467875277E+04  0.30467875277E+04  0.00000000000E+00 0.  1.
         23    2    1    2    0    0  0.80981480305E+03 -0.14094336495E+03 -0.11622982176E+04  0.14262642092E+04  0.87334989075E+02 0.  0.
        254    2    1    2    0    0 -0.80981480305E+03  0.14094336495E+03 -0.15414880014E+04  0.19635246272E+04  0.89642548819E+03 0.  0.
         23    2    4    4    0    0 -0.79930021597E+03  0.42168667184E+03 -0.12811486199E+04  0.15703407492E+04  0.89038181926E+02 0.  0.
         23    2    4    4    0    0 -0.10514587081E+02 -0.28074330689E+03 -0.26033938152E+03  0.39318387805E+03  0.88823462456E+02 0.  0.
          1    1    3    3  502    0  0.40202394888E+03 -0.85912803616E+02 -0.51057677703E+03  0.65550965709E+03  0.00000000000E+00 0. -1.
         -1    1    3    3    0  502  0.40779085417E+03 -0.55030561337E+02 -0.65172144058E+03  0.77075455207E+03  0.00000000000E+00 0.  1.
         11    1    5    5    0    0 -0.35251401578E+03  0.17293710901E+03 -0.63088044395E+03  0.74309051235E+03  0.00000000000E+00 0. -1.
        -11    1    5    5    0    0 -0.44678620019E+03  0.24874956284E+03 -0.65026817591E+03  0.82725023680E+03  0.00000000000E+00 0.  1.
          1    1    6    6  503    0  0.30940251207E+02 -0.18044440704E+03 -0.13550846607E+03  0.22777187612E+03  0.00000000000E+00 0. -1.
         -1    1    6    6    0  503 -0.41454838288E+02 -0.10029889985E+03 -0.12483091545E+03  0.16541200192E+03  0.00000000000E+00 0.  1.
<mgrwt>
<rscale>  0 0.20445558E+04</rscale>
<asrwt>0</asrwt>
<pdfrwt beam="1">  1        1 0.52769433E-01 0.20445558E+04</pdfrwt>
<pdfrwt beam="2">  1       -1 0.46873653E+00 0.20445558E+04</pdfrwt>
<totfact> 0.16347854E-01</totfact>
</mgrwt>
</event>
<event>
12    2  0.8147979E-008  0.1449930E+04  0.7818608E-02  0.8918449E-01
         -1   -1    0    0    0  501 -0.00000000000E+00  0.00000000000E+00  0.41938971691E+03  0.41938971691E+03  0.00000000000E+00 0.  1.
          1   -1    0    0  501    0  0.00000000000E+00 -0.00000000000E+00 -0.12531875305E+04  0.12531875305E+04  0.00000000000E+00 0. -1.
         23    2    1    2    0    0 -0.20928550297E+03  0.26724270761E+03  0.64540396580E+02  0.35730322789E+03  0.91000260136E+02 0.  0.
        254    2    1    2    0    0  0.20928550297E+03 -0.26724270761E+03 -0.89833821014E+03  0.13152740195E+04  0.89872972581E+03 0.  0.
         23    2    4    4    0    0 -0.29877572150E+03  0.98996743772E+02 -0.28869365937E+03  0.43685893779E+03  0.91839074100E+02 0.  0.
         23    2    4    4    0    0  0.50806122447E+03 -0.36623945138E+03 -0.60964455077E+03  0.87841508171E+03  0.87687136653E+02 0.  0.
          2    1    3    3  502    0 -0.33321572894E+02  0.65200512857E+02 -0.20791789639E+02  0.76116572527E+02  0.00000000000E+00 0. -1.
         -2    1    3    3    0  502 -0.17596393007E+03  0.20204219475E+03  0.85332186219E+02  0.28118665536E+03  0.00000000000E+00 0.  1.
         11    1    5    5    0    0 -0.16821013664E+03  0.25542381597E+02 -0.20072743189E+03  0.26313222007E+03  0.00000000000E+00 0. -1.
        -11    1    5    5    0    0 -0.13056558486E+03  0.73454362175E+02 -0.87966227477E+02  0.17372671772E+03  0.00000000000E+00 0.  1.
          1    1    6    6  503    0  0.39129474168E+03 -0.23379255341E+03 -0.43585368582E+03  0.63066549640E+03  0.00000000000E+00 0. -1.
         -1    1    6    6    0  503  0.11676648278E+03 -0.13244689797E+03 -0.17379086495E+03  0.24774958531E+03  0.00000000000E+00 0.  1.
<mgrwt>
<rscale>  0 0.14499296E+04</rscale>
<asrwt>0</asrwt>
<pdfrwt beam="1">  1        1 0.19279808E+00 0.14499296E+04</pdfrwt>
<pdfrwt beam="2">  1       -1 0.64521495E-01 0.14499296E+04</pdfrwt>
<totfact> 0.23123872E+01</totfact>
</mgrwt>
</event>
<event>
12    2  0.8147979E-008  0.3079677E+04  0.7818608E-02  0.8221338E-01
          1   -1    0    0  501    0  0.00000000000E+00  0.00000000000E+00  0.79160319957E+03  0.79160319957E+03  0.00000000000E+00 0. -1.
         -1   -1    0    0    0  501 -0.00000000000E+00 -0.00000000000E+00 -0.29953162539E+04  0.29953162539E+04  0.00000000000E+00 0.  1.
         23    2    1    2    0    0  0.97862799613E+03  0.38243063296E+03  0.14095370771E+03  0.10641888569E+04  0.93080779799E+02 0.  0.
        254    2    1    2    0    0 -0.97862799613E+03 -0.38243063296E+03 -0.23446667620E+04  0.27227305966E+04  0.90101816449E+03 0.  0.
         23    2    4    4    0    0 -0.30205966604E+03 -0.28926259839E+03 -0.17834945886E+04  0.18341795276E+04  0.91916805013E+02 0.  0.
         23    2    4    4    0    0 -0.67656833010E+03 -0.93168034570E+02 -0.56117217340E+03  0.88855106900E+03  0.90464391177E+02 0.  0.
          3    1    3    3  502    0  0.70333953844E+03  0.31528867852E+03  0.11996537514E+03  0.78005458038E+03  0.00000000000E+00 0. -1.
         -3    1    3    3    0  502  0.27528845769E+03  0.67141954446E+02  0.20988332568E+02  0.28413427651E+03  0.00000000000E+00 0.  1.
         11    1    5    5    0    0 -0.27179332607E+03 -0.24353016232E+03 -0.16496887744E+04  0.16895714263E+04  0.00000000000E+00 0.  1.
        -11    1    5    5    0    0 -0.30266339969E+02 -0.45732436073E+02 -0.13380581416E+03  0.14460810125E+03  0.00000000000E+00 0. -1.
          4    1    6    6  503    0 -0.98452610957E+02 -0.34948586854E+02 -0.11931474946E+03  0.15858855496E+03  0.00000000000E+00 0. -1.
         -4    1    6    6    0  503 -0.57811571914E+03 -0.58219447716E+02 -0.44185742394E+03  0.72996251404E+03  0.00000000000E+00 0.  1.
<mgrwt>
<rscale>  0 0.30796766E+04</rscale>
<asrwt>0</asrwt>
<pdfrwt beam="1">  1        1 0.12178511E+00 0.30796766E+04</pdfrwt>
<pdfrwt beam="2">  1       -1 0.46081789E+00 0.30796766E+04</pdfrwt>
<totfact> 0.51754887E-02</totfact>
</mgrwt>
</event>
<event>
12    2  0.8147979E-008  0.2186229E+04  0.7818608E-02  0.8524182E-01
         -2   -1    0    0    0  501 -0.00000000000E+00  0.00000000000E+00  0.91501259092E+03  0.91501259092E+03  0.00000000000E+00 0.  1.
          2   -1    0    0  501    0  0.00000000000E+00 -0.00000000000E+00 -0.13058832548E+04  0.13058832548E+04  0.00000000000E+00 0. -1.
         23    2    1    2    0    0  0.10933545062E+03  0.55769905130E+03  0.55192349688E+03  0.79758636145E+03  0.92422859634E+02 0.  0.
        254    2    1    2    0    0 -0.10933545062E+03 -0.55769905130E+03 -0.94279416080E+03  0.14233094843E+04  0.90220096759E+03 0.  0.
         23    2    4    4    0    0 -0.36656460609E+03 -0.58825564631E+03 -0.37228326690E+03  0.79174327085E+03  0.88590407324E+02 0.  0.
         23    2    4    4    0    0  0.25722915546E+03  0.30556595016E+02 -0.57051089390E+03  0.63156621346E+03  0.79326275632E+02 0.  0.
          2    1    3    3  502    0  0.50458069320E+01  0.27199645454E+02  0.42163669763E+01  0.27983184789E+02  0.00000000000E+00 0. -1.
         -2    1    3    3    0  502  0.10428964369E+03  0.53049940584E+03  0.54770712990E+03  0.76960317666E+03  0.00000000000E+00 0.  1.
         11    1    5    5    0    0 -0.43739257747E+02 -0.49577387285E+02 -0.64524849357E+02  0.92382336963E+02  0.00000000000E+00 0. -1.
        -11    1    5    5    0    0 -0.32282534834E+03 -0.53867825903E+03 -0.30775841754E+03  0.69936093389E+03  0.00000000000E+00 0.  1.
          4    1    6    6  503    0  0.18610538925E+03  0.49370050571E+02 -0.46147263393E+03  0.50002960879E+03  0.00000000000E+00 0.  1.
         -4    1    6    6    0  503  0.71123766218E+02 -0.18813455555E+02 -0.10903825997E+03  0.13153660467E+03  0.00000000000E+00 0. -1.
<mgrwt>
<rscale>  0 0.21862293E+04</rscale>
<asrwt>0</asrwt>
<pdfrwt beam="1">  1        2 0.20090512E+00 0.21862293E+04</pdfrwt>
<pdfrwt beam="2">  1       -2 0.14077117E+00 0.21862293E+04</pdfrwt>
<totfact> 0.53147071E+00</totfact>
</mgrwt>
</event>
<event>
12    2  0.8147979E-008  0.2352345E+04  0.7818608E-02  0.8457564E-01
          2   -1    0    0  501    0  0.00000000000E+00  0.00000000000E+00  0.23136274962E+04  0.23136274962E+04  0.00000000000E+00 0. -1.
         -2   -1    0    0    0  501 -0.00000000000E+00 -0.00000000000E+00 -0.59792756455E+03  0.59792756455E+03  0.00000000000E+00 0.  1.
         23    2    1    2    0    0  0.38907141129E+03 -0.70475197893E+03  0.14723456697E+04  0.16806479456E+04  0.93401451178E+02 0.  0.
        254    2    1    2    0    0 -0.38907141129E+03  0.70475197893E+03  0.24335426193E+03  0.12309071151E+04  0.89880983216E+03 0.  0.
         23    2    4    4    0    0  0.20368194327E+03 -0.22157335043E+02  0.17708343548E+03  0.28610430637E+03  0.92303030771E+02 0.  0.
         23    2    4    4    0    0 -0.59275335456E+03  0.72690931397E+03  0.66270826449E+02  0.94480280876E+03  0.92232504685E+02 0.  0.
          1    1    3    3  502    0  0.73037023551E+02 -0.79252155363E+02  0.16014551122E+03  0.19303340567E+03  0.00000000000E+00 0. -1.
         -1    1    3    3    0  502  0.31603438774E+03 -0.62549982356E+03  0.13122001585E+04  0.14876145399E+04  0.00000000000E+00 0.  1.
         11    1    5    5    0    0  0.39417536338E+02  0.25067325923E+02  0.70844362360E+02  0.84858922207E+02  0.00000000000E+00 0.  1.
        -11    1    5    5    0    0  0.16426440694E+03 -0.47224660966E+02  0.10623907312E+03  0.20124538416E+03  0.00000000000E+00 0. -1.
          2    1    6    6  503    0 -0.94881178743E+02  0.80193027722E+02 -0.12454568772E+02  0.12485381876E+03  0.00000000000E+00 0.  1.
         -2    1    6    6    0  503 -0.49787217582E+03  0.64671628625E+03  0.78725395221E+02  0.81994899000E+03  0.00000000000E+00 0. -1.
<mgrwt>
<rscale>  0 0.23523449E+04</rscale>
<asrwt>0</asrwt>
<pdfrwt beam="1">  1        2 0.35594269E+00 0.23523449E+04</pdfrwt>
<pdfrwt beam="2">  1       -2 0.91988858E-01 0.23523449E+04</pdfrwt>
<totfact> 0.40385321E+00</totfact>
</mgrwt>
</event>
<event>
12    2  0.8147979E-008  0.1946253E+04  0.7818608E-02  0.8632170E-01
         -2   -1    0    0    0  501 -0.00000000000E+00  0.00000000000E+00  0.82712283442E+03  0.82712283442E+03  0.00000000000E+00 0.  1.
          2   -1    0    0  501    0  0.00000000000E+00 -0.00000000000E+00 -0.11449030783E+04  0.11449030783E+04  0.00000000000E+00 0. -1.
         23    2    1    2    0    0  0.74605546101E+03 -0.14442886127E+03 -0.72909603915E+02  0.76878365095E+03  0.90851773556E+02 0.  0.
        254    2    1    2    0    0 -0.74605546101E+03  0.14442886127E+03 -0.24487064000E+03  0.12032422618E+04  0.90020656707E+03 0.  0.
         23    2    4    4    0    0 -0.75024086140E+02 -0.38229436033E+02  0.29390366962E+03  0.31885918457E+03  0.90563288866E+02 0.  0.
         23    2    4    4    0    0 -0.67103137487E+03  0.18265829730E+03 -0.53877430962E+03  0.88438307724E+03  0.90600833103E+02 0.  0.
          2    1    3    3  502    0  0.53853014897E+03 -0.14001279818E+03 -0.73074006366E+02  0.56121129302E+03  0.00000000000E+00 0. -1.
         -2    1    3    3    0  502  0.20752531204E+03 -0.44160630891E+01  0.16440245163E+00  0.20757235793E+03  0.00000000000E+00 0.  1.
         11    1    5    5    0    0 -0.43938566763E+01 -0.46925875564E+02  0.74065489870E+02  0.87789752042E+02  0.00000000000E+00 0. -1.
        -11    1    5    5    0    0 -0.70630229464E+02  0.86964395310E+01  0.21983817975E+03  0.23106943253E+03  0.00000000000E+00 0.  1.
          1    1    6    6  503    0 -0.38593292638E+03  0.15057110753E+03 -0.30900209224E+03  0.51681541685E+03  0.00000000000E+00 0. -1.
         -1    1    6    6    0  503 -0.28509844849E+03  0.32087189769E+02 -0.22977221738E+03  0.36756766038E+03  0.00000000000E+00 0.  1.
<mgrwt>
<rscale>  0 0.19462533E+04</rscale>
<asrwt>0</asrwt>
<pdfrwt beam="1">  1        2 0.17613894E+00 0.19462533E+04</pdfrwt>
<pdfrwt beam="2">  1       -2 0.12724967E+00 0.19462533E+04</pdfrwt>
<totfact> 0.87477604E+00</totfact>
</mgrwt>
</event>
<event>
12    2  0.8147979E-008  0.1228885E+04  0.7818608E-02  0.9087943E-01
          1   -1    0    0  501    0  0.00000000000E+00  0.00000000000E+00  0.29230450811E+03  0.29230450811E+03  0.00000000000E+00 0. -1.
         -1   -1    0    0    0  501 -0.00000000000E+00 -0.00000000000E+00 -0.12915963386E+04  0.12915963386E+04  0.00000000000E+00 0.  1.
         23    2    1    2    0    0  0.32855918796E+02  0.22941249830E+03 -0.72321576223E+02  0.27436708098E+03  0.12781736565E+03 0.  0.
        254    2    1    2    0    0 -0.32855918796E+02 -0.22941249830E+03 -0.92697025424E+03  0.13095337657E+04  0.89548602753E+03 0.  0.
         23    2    4    4    0    0 -0.30607276804E+03 -0.29277177598E+03 -0.11748754430E+03  0.44814402791E+03  0.87372161125E+02 0.  0.
         23    2    4    4    0    0  0.27321684924E+03  0.63359277687E+02 -0.80948270993E+03  0.86138973779E+03  0.89823036654E+02 0.  0.
          1    1    3    3  502    0  0.13372690475E+02  0.10461264759E+03  0.32358858934E+02  0.11031650211E+03  0.00000000000E+00 0. -1.
         -1    1    3    3    0  502  0.19483228322E+02  0.12479985070E+03 -0.10468043516E+03  0.16405057887E+03  0.00000000000E+00 0.  1.
         11    1    5    5    0    0 -0.27446442994E+03 -0.29206711003E+03 -0.10691399451E+03  0.41480660830E+03  0.00000000000E+00 0.  1.
        -11    1    5    5    0    0 -0.31608338093E+02 -0.70466595092E+00 -0.10573549792E+02  0.33337419611E+02  0.00000000000E+00 0. -1.
          3    1    6    6  503    0  0.92397652965E+02  0.13304915398E+01 -0.16453951119E+03  0.18871233988E+03  0.00000000000E+00 0. -1.
         -3    1    6    6    0  503  0.18081919627E+03  0.62028786147E+02 -0.64494319875E+03  0.67267739791E+03  0.00000000000E+00 0.  1.
<mgrwt>
<rscale>  0 0.12288848E+04</rscale>
<asrwt>0</asrwt>
<pdfrwt beam="1">  1        1 0.44969925E-01 0.12288848E+04</pdfrwt>
<pdfrwt beam="2">  1       -1 0.19870713E+00 0.12288848E+04</pdfrwt>
<totfact> 0.13765954E+01</totfact>
</mgrwt>
</event>
<event>
12    2  0.8147979E-008  0.1659511E+04  0.7818608E-02  0.8784799E-01
         -2   -1    0    0    0  501 -0.00000000000E+00  0.00000000000E+00  0.86020504715E+03  0.86020504715E+03  0.00000000000E+00 0.  1.
          2   -1    0    0  501    0  0.00000000000E+00 -0.00000000000E+00 -0.80038411050E+03  0.80038411050E+03  0.00000000000E+00 0. -1.
         23    2    1    2    0    0  0.56931014656E+03  0.52694697078E+02  0.12711298450E+03  0.59265332857E+03  0.90495762128E+02 0.  0.
        254    2    1    2    0    0 -0.56931014656E+03 -0.52694697078E+02 -0.67292047840E+02  0.10679358291E+04  0.89948204054E+03 0.  0.
         23    2    4    4    0    0 -0.42551140367E+03  0.32404619016E+03 -0.27300378318E+03  0.60602417897E+03  0.81659977039E+02 0.  0.
         23    2    4    4    0    0 -0.14379874288E+03 -0.37674088723E+03  0.20571173534E+03  0.46191165011E+03  0.91832891057E+02 0.  0.
          3    1    3    3  502    0  0.30586355366E+03  0.67260470017E+02  0.45428770596E+02  0.31644945486E+03  0.00000000000E+00 0. -1.
         -3    1    3    3    0  502  0.26344659290E+03 -0.14565772938E+02  0.81684213900E+02  0.27620387371E+03  0.00000000000E+00 0.  1.
         11    1    5    5    0    0 -0.23657406140E+03  0.18646611292E+03 -0.10831386917E+03  0.32010746953E+03  0.00000000000E+00 0. -1.
        -11    1    5    5    0    0 -0.18893734228E+03  0.13758007724E+03 -0.16468991401E+03  0.28591670944E+03  0.00000000000E+00 0.  1.
          4    1    6    6  503    0  0.48771328001E+00 -0.72056694106E+02  0.11855839297E+02  0.73027159025E+02  0.00000000000E+00 0. -1.
         -4    1    6    6    0  503 -0.14428645616E+03 -0.30468419313E+03  0.19385589605E+03  0.38888449108E+03  0.00000000000E+00 0.  1.
<mgrwt>
<rscale>  0 0.16595113E+04</rscale>
<asrwt>0</asrwt>
<pdfrwt beam="1">  1        2 0.12313602E+00 0.16595113E+04</pdfrwt>
<pdfrwt beam="2">  1       -2 0.13233924E+00 0.16595113E+04</pdfrwt>
<totfact> 0.13636045E+01</totfact>
</mgrwt>
</event>
<event>
12    2  0.8147979E-008  0.2067681E+04  0.7818608E-02  0.8575615E-01
         -2   -1    0    0    0  501 -0.00000000000E+00  0.00000000000E+00  0.42371623492E+03  0.42371623492E+03  0.00000000000E+00 0.  1.
          2   -1    0    0  501    0  0.00000000000E+00 -0.00000000000E+00 -0.25225042524E+04  0.25225042524E+04  0.00000000000E+00 0. -1.
         23    2    1    2    0    0 -0.26784488692E+03  0.64267322911E+03 -0.15163028591E+04  0.16695795330E+04  0.59596086825E+02 0.  0.
        254    2    1    2    0    0  0.26784488692E+03 -0.64267322911E+03 -0.58248515834E+03  0.12766409543E+04  0.89763767951E+03 0.  0.
         23    2    4    4    0    0  0.13310370453E+03 -0.35623793682E+03  0.19172387104E+03  0.43484797429E+03  0.87821718432E+02 0.  0.
         23    2    4    4    0    0  0.13474118239E+03 -0.28643529229E+03 -0.77420902939E+03  0.84179298002E+03  0.94949655793E+02 0.  0.
          1    1    3    3  502    0 -0.14560509501E+03  0.27950565205E+03 -0.71434178726E+03  0.78077425819E+03  0.00000000000E+00 0. -1.
         -1    1    3    3    0  502 -0.12223979191E+03  0.36316757705E+03 -0.80196107189E+03  0.88880527484E+03  0.00000000000E+00 0.  1.
         11    1    5    5    0    0 -0.63410275971E+01 -0.76154947341E+01 -0.48440081273E+01  0.11030358370E+02  0.00000000000E+00 0. -1.
        -11    1    5    5    0    0  0.13944473213E+03 -0.34862244208E+03  0.19656787917E+03  0.42381761592E+03  0.00000000000E+00 0.  1.
          3    1    6    6  503    0  0.88535081022E+02 -0.90009066818E+02 -0.34894447141E+03  0.37108265495E+03  0.00000000000E+00 0. -1.
         -3    1    6    6    0  503  0.46206101368E+02 -0.19642622547E+03 -0.42526455798E+03  0.47071032507E+03  0.00000000000E+00 0.  1.
<mgrwt>
<rscale>  0 0.20676808E+04</rscale>
<asrwt>0</asrwt>
<pdfrwt beam="1">  1        2 0.38807757E+00 0.20676808E+04</pdfrwt>
<pdfrwt beam="2">  1       -2 0.65187113E-01 0.20676808E+04</pdfrwt>
<totfact> 0.67746663E+00</totfact>
</mgrwt>
</event>
<event>
12    2  0.8147979E-008  0.2713520E+04  0.7818608E-02  0.8330632E-01
          1   -1    0    0  501    0  0.00000000000E+00  0.00000000000E+00  0.12356672062E+04  0.12356672062E+04  0.00000000000E+00 0. -1.
         -1   -1    0    0    0  501 -0.00000000000E+00 -0.00000000000E+00 -0.14897192335E+04  0.14897192335E+04  0.00000000000E+00 0.  1.
         23    2    1    2    0    0  0.65638305449E+03 -0.99225232728E+03  0.84441274130E+02  0.11960316678E+04  0.89207770717E+02 0.  0.
        254    2    1    2    0    0 -0.65638305449E+03  0.99225232728E+03 -0.33849330139E+03  0.15293547719E+04  0.89941364676E+03 0.  0.
         23    2    4    4    0    0 -0.22688975935E+03  0.10014957677E+04 -0.35558262589E+03  0.10904901783E+04  0.90868527771E+02 0.  0.
         23    2    4    4    0    0 -0.42949329514E+03 -0.92434404682E+01  0.17089324502E+02  0.43886459362E+03  0.88091740561E+02 0.  0.
          2    1    3    3  502    0  0.40479732542E+03 -0.67857398440E+03  0.35246202143E+02  0.79092719117E+03  0.00000000000E+00 0. -1.
         -2    1    3    3    0  502  0.25158572908E+03 -0.31367834288E+03  0.49195071987E+02  0.40510447662E+03  0.00000000000E+00 0.  1.
         11    1    5    5    0    0 -0.26874422946E+02  0.27904765249E+03 -0.11748177605E+03  0.30396018600E+03  0.00000000000E+00 0. -1.
        -11    1    5    5    0    0 -0.20001533640E+03  0.72244811525E+03 -0.23810084984E+03  0.78652999226E+03  0.00000000000E+00 0.  1.
          2    1    6    6  503    0 -0.21655265104E+03 -0.28888293259E+02  0.45446088777E+02  0.22314777871E+03  0.00000000000E+00 0.  1.
         -2    1    6    6    0  503 -0.21294064411E+03  0.19644852791E+02 -0.28356764275E+02  0.21571681491E+03  0.00000000000E+00 0. -1.
<mgrwt>
<rscale>  0 0.27135196E+04</rscale>
<asrwt>0</asrwt>
<pdfrwt beam="1">  1        1 0.19010265E+00 0.27135196E+04</pdfrwt>
<pdfrwt beam="2">  1       -1 0.22918757E+00 0.27135196E+04</pdfrwt>
<totfact> 0.83891490E-01</totfact>
</mgrwt>
</event>
<event>
12    2  0.8147979E-008  0.3874076E+04  0.7818608E-02  0.8030443E-01
          2   -1    0    0  501    0  0.00000000000E+00  0.00000000000E+00  0.37619235673E+04  0.37619235673E+04  0.00000000000E+00 0. -1.
         -2   -1    0    0    0  501 -0.00000000000E+00 -0.00000000000E+00 -0.99739294383E+03  0.99739294383E+03  0.00000000000E+00 0.  1.
         23    2    1    2    0    0  0.16348101402E+04 -0.64661212818E+03  0.19380339148E+04  0.26182095918E+04  0.91293883206E+02 0.  0.
        254    2    1    2    0    0 -0.16348101402E+04  0.64661212818E+03  0.82649670874E+03  0.21411069193E+04  0.90029472475E+03 0.  0.
         23    2    4    4    0    0 -0.46630665317E+03  0.60335677252E+03  0.13559665314E+03  0.77989758054E+03  0.91501333609E+02 0.  0.
         23    2    4    4    0    0 -0.11685034871E+04  0.43255355657E+02  0.69090005560E+03  0.13612093388E+04  0.90975557322E+02 0.  0.
          1    1    3    3  502    0  0.12417674830E+04 -0.49424765487E+03  0.15298292538E+04  0.20314144757E+04  0.00000000000E+00 0. -1.
         -1    1    3    3    0  502  0.39304265721E+03 -0.15236447331E+03  0.40820466099E+03  0.58679511618E+03  0.00000000000E+00 0.  1.
         11    1    5    5    0    0 -0.18548992645E+03  0.30517755331E+03  0.40581635943E+02  0.35942554310E+03  0.00000000000E+00 0.  1.
        -11    1    5    5    0    0 -0.28081672672E+03  0.29817921921E+03  0.95015017192E+02  0.42047203744E+03  0.00000000000E+00 0. -1.
          1    1    6    6  503    0 -0.30342708175E+03 -0.22588904458E+02  0.20422145213E+03  0.36644870590E+03  0.00000000000E+00 0. -1.
         -1    1    6    6    0  503 -0.86507640532E+03  0.65844260115E+02  0.48667860347E+03  0.99476063287E+03  0.00000000000E+00 0.  1.
<mgrwt>
<rscale>  0 0.38740759E+04</rscale>
<asrwt>0</asrwt>
<pdfrwt beam="1">  1        2 0.57875747E+00 0.38740759E+04</pdfrwt>
<pdfrwt beam="2">  1       -2 0.15344507E+00 0.38740759E+04</pdfrwt>
<totfact> 0.11765564E-01</totfact>
</mgrwt>
</event>
<event>
12    2  0.8147979E-008  0.1052512E+04  0.7818608E-02  0.9252755E-01
          2   -1    0    0  501    0  0.00000000000E+00  0.00000000000E+00  0.10786173526E+04  0.10786173526E+04  0.00000000000E+00 0. -1.
         -2   -1    0    0    0  501 -0.00000000000E+00 -0.00000000000E+00 -0.25675953464E+03  0.25675953464E+03  0.00000000000E+00 0.  1.
         23    2    1    2    0    0 -0.24143454027E+02 -0.66278533212E+02  0.10705867486E+02  0.12167742572E+03  0.98564851720E+02 0.  0.
        254    2    1    2    0    0  0.24143454027E+02  0.66278533212E+02  0.81115195042E+03  0.12136994615E+04  0.90006841171E+03 0.  0.
         23    2    4    4    0    0  0.36849827464E+03  0.14295732211E+03  0.10528576134E+03  0.41930529400E+03  0.92217480362E+02 0.  0.
         23    2    4    4    0    0 -0.34435482061E+03 -0.76678788894E+02  0.70586618908E+03  0.79439416747E+03  0.91406439989E+02 0.  0.
          3    1    3    3  502    0  0.14316150720E+02 -0.79170123435E+02  0.39073386422E+01  0.80548916264E+02  0.00000000000E+00 0. -1.
         -3    1    3    3    0  502 -0.38459604747E+02  0.12891590222E+02  0.67985288441E+01  0.41128509458E+02  0.00000000000E+00 0.  1.
         11    1    5    5    0    0  0.36302216156E+03  0.14267585836E+03  0.86222929288E+02  0.39946950307E+03  0.00000000000E+00 0.  1.
        -11    1    5    5    0    0  0.54761130725E+01  0.28146374271E+00  0.19062832051E+02  0.19835790935E+02  0.00000000000E+00 0. -1.
          4    1    6    6  503    0 -0.21577044990E+03 -0.36441978764E+02  0.33821576120E+03  0.40283347178E+03  0.00000000000E+00 0. -1.
         -4    1    6    6    0  503 -0.12858437071E+03 -0.40236810130E+02  0.36765042788E+03  0.39156069568E+03  0.00000000000E+00 0.  1.
<mgrwt>
<rscale>  0 0.10525118E+04</rscale>
<asrwt>0</asrwt>
<pdfrwt beam="1">  1        2 0.16594113E+00 0.10525118E+04</pdfrwt>
<pdfrwt beam="2">  1       -2 0.39501467E-01 0.10525118E+04</pdfrwt>
<totfact> 0.13542734E+02</totfact>
</mgrwt>
</event>
<event>
12    2  0.8147979E-008  0.2184829E+04  0.7818608E-02  0.8524769E-01
          1   -1    0    0  501    0  0.00000000000E+00  0.00000000000E+00  0.10546683887E+04  0.10546683887E+04  0.00000000000E+00 0. -1.
         -1   -1    0    0    0  501 -0.00000000000E+00 -0.00000000000E+00 -0.11315110348E+04  0.11315110348E+04  0.00000000000E+00 0.  1.
         23    2    1    2    0    0  0.70396757860E+02  0.85075954741E+03  0.26722561760E+03  0.89889087609E+03  0.88587614140E+02 0.  0.
        254    2    1    2    0    0 -0.70396757860E+02 -0.85075954741E+03 -0.34406826372E+03  0.12872885475E+04  0.89998962400E+03 0.  0.
         23    2    4    4    0    0 -0.18939533187E+03  0.71952815135E+02  0.11079422961E+03  0.24802170126E+03  0.90507478382E+02 0.  0.
         23    2    4    4    0    0  0.11899857401E+03 -0.92271236255E+03 -0.45486249333E+03  0.10392668462E+04  0.87274997385E+02 0.  0.
          2    1    3    3  502    0 -0.70320597184E+01  0.19935782457E+03  0.32154366203E+02  0.20205666370E+03  0.00000000000E+00 0.  1.
         -2    1    3    3    0  502  0.77428817578E+02  0.65140172285E+03  0.23507125140E+03  0.69683421239E+03  0.00000000000E+00 0. -1.
         11    1    5    5    0    0  0.34802419074E+01  0.77437506263E+00 -0.92757391217E+01  0.99373576330E+01  0.00000000000E+00 0. -1.
        -11    1    5    5    0    0 -0.19287557378E+03  0.71178440073E+02  0.12006996873E+03  0.23808434363E+03  0.00000000000E+00 0.  1.
          3    1    6    6  503    0  0.32189558314E+02 -0.54010952572E+03 -0.23935523563E+03  0.59164634390E+03  0.00000000000E+00 0. -1.
         -3    1    6    6    0  503  0.86809015694E+02 -0.38260283683E+03 -0.21550725770E+03  0.44762050230E+03  0.00000000000E+00 0.  1.
<mgrwt>
<rscale>  0 0.21848285E+04</rscale>
<asrwt>0</asrwt>
<pdfrwt beam="1">  1        1 0.16225668E+00 0.21848285E+04</pdfrwt>
<pdfrwt beam="2">  1       -1 0.17407862E+00 0.21848285E+04</pdfrwt>
<totfact> 0.28785226E+00</totfact>
</mgrwt>
</event>
<event>
12    2  0.8147979E-008  0.3160114E+04  0.7818608E-02  0.8199431E-01
          1   -1    0    0  501    0  0.00000000000E+00  0.00000000000E+00  0.24024442860E+04  0.24024442860E+04  0.00000000000E+00 0. -1.
         -1   -1    0    0    0  501 -0.00000000000E+00 -0.00000000000E+00 -0.10391833755E+04  0.10391833755E+04  0.00000000000E+00 0.  1.
         23    2    1    2    0    0  0.12335276907E+04  0.71419246415E+03  0.33914497860E+03  0.14679161206E+04  0.89983225142E+02 0.  0.
        254    2    1    2    0    0 -0.12335276907E+04 -0.71419246415E+03  0.10241159319E+04  0.19737115410E+04  0.90280804447E+03 0.  0.
         23    2    4    4    0    0  0.34171965572E+01  0.14249866322E+03  0.17601031099E+03  0.24435554561E+03  0.91719446381E+02 0.  0.
         23    2    4    4    0    0 -0.12369448873E+04 -0.85669112737E+03  0.84810562094E+03  0.17293559953E+04  0.86236143314E+02 0.  0.
          1    1    3    3  502    0  0.49238183576E+03  0.25413241847E+03  0.16753258280E+03  0.57886986845E+03  0.00000000000E+00 0. -1.
         -1    1    3    3    0  502  0.74114585499E+03  0.46006004568E+03  0.17161239580E+03  0.88904625211E+03  0.00000000000E+00 0.  1.
         11    1    5    5    0    0 -0.29146621556E+02  0.10937201563E+02  0.52241815021E+02  0.60814103322E+02  0.00000000000E+00 0. -1.
        -11    1    5    5    0    0  0.32563818114E+02  0.13156146165E+03  0.12376849597E+03  0.18354144229E+03  0.00000000000E+00 0.  1.
          4    1    6    6  503    0 -0.50000088434E+02 -0.18765005048E+02  0.20071515358E+02  0.57052607185E+02  0.00000000000E+00 0. -1.
         -4    1    6    6    0  503 -0.11869447989E+04 -0.83792612232E+03  0.82803410559E+03  0.16723033882E+04  0.00000000000E+00 0.  1.
<mgrwt>
<rscale>  0 0.31601140E+04</rscale>
<asrwt>0</asrwt>
<pdfrwt beam="1">  1        1 0.36960681E+00 0.31601140E+04</pdfrwt>
<pdfrwt beam="2">  1       -1 0.15987437E+00 0.31601140E+04</pdfrwt>
<totfact> 0.38901216E-01</totfact>
</mgrwt>
</event>
<event>
12    2  0.8147979E-008  0.1563863E+04  0.7818608E-02  0.8843061E-01
          1   -1    0    0  501    0  0.00000000000E+00  0.00000000000E+00  0.68235374343E+03  0.68235374343E+03  0.00000000000E+00 0. -1.
         -1   -1    0    0    0  501 -0.00000000000E+00 -0.00000000000E+00 -0.89604086290E+03  0.89604086290E+03  0.00000000000E+00 0.  1.
         23    2    1    2    0    0 -0.25147318732E+03 -0.42456040443E+03  0.87850728947E+02  0.50944853706E+03  0.91267520999E+02 0.  0.
        254    2    1    2    0    0  0.25147318732E+03  0.42456040443E+03 -0.30153784842E+03  0.10689460693E+04  0.89901630909E+03 0.  0.
         23    2    4    4    0    0 -0.32072682620E+03  0.56435716601E+02 -0.11301438264E+03  0.35691299690E+03  0.92541609673E+02 0.  0.
         23    2    4    4    0    0  0.57220001352E+03  0.36812468783E+03 -0.18852346577E+03  0.71203307236E+03  0.92311200464E+02 0.  0.
          4    1    3    3  502    0 -0.24346167996E+03 -0.39921192261E+03  0.10306637897E+03  0.47881773906E+03  0.00000000000E+00 0. -1.
         -4    1    3    3    0  502 -0.80115073560E+01 -0.25348481814E+02 -0.15215650023E+02  0.30630797999E+02  0.00000000000E+00 0.  1.
         11    1    5    5    0    0 -0.47793436185E+02 -0.52083257792E+01 -0.51441933142E+02  0.70410309509E+02  0.00000000000E+00 0. -1.
        -11    1    5    5    0    0 -0.27293339001E+03  0.61644042380E+02 -0.61572449502E+02  0.28650268739E+03  0.00000000000E+00 0.  1.
          1    1    6    6  503    0  0.22095670346E+02  0.24026716583E+02  0.88471259052E+01  0.33819719020E+02  0.00000000000E+00 0. -1.
         -1    1    6    6    0  503  0.55010434317E+03  0.34409797124E+03 -0.19737059168E+03  0.67821335334E+03  0.00000000000E+00 0.  1.
<mgrwt>
<rscale>  0 0.15638630E+04</rscale>
<asrwt>0</asrwt>
<pdfrwt beam="1">  1        1 0.10497750E+00 0.15638630E+04</pdfrwt>
<pdfrwt beam="2">  1       -1 0.13785244E+00 0.15638630E+04</pdfrwt>
<totfact> 0.11896234E+01</totfact>
</mgrwt>
</event>
<event>
12    2  0.8147979E-008  0.1730325E+04  0.7818608E-02  0.8744256E-01
          1   -1    0    0  501    0  0.00000000000E+00  0.00000000000E+00  0.71613307999E+03  0.71613307999E+03  0.00000000000E+00 0. -1.
         -1   -1    0    0    0  501 -0.00000000000E+00 -0.00000000000E+00 -0.10452051494E+04  0.10452051494E+04  0.00000000000E+00 0.  1.
         23    2    1    2    0    0  0.15170387106E+03 -0.34627553343E+03  0.38931454162E+03  0.55046212771E+03  0.92314311879E+02 0.  0.
        254    2    1    2    0    0 -0.15170387106E+03  0.34627553343E+03 -0.71838661104E+03  0.12108761017E+04  0.89845467397E+03 0.  0.
         23    2    4    4    0    0  0.82985798708E+02  0.29964728819E+03  0.11074103366E+03  0.34306209535E+03  0.93556852362E+02 0.  0.
         23    2    4    4    0    0 -0.23468966977E+03  0.46628245249E+02 -0.82912764469E+03  0.86781400634E+03  0.91624582168E+02 0.  0.
          2    1    3    3  502    0  0.33249019181E+02 -0.17889958612E+03  0.21195557583E+03  0.27934875213E+03  0.00000000000E+00 0. -1.
         -2    1    3    3    0  502  0.11845485188E+03 -0.16737594731E+03  0.17735896578E+03  0.27111337558E+03  0.00000000000E+00 0.  1.
         11    1    5    5    0    0  0.48057156170E+02  0.11801929063E+03 -0.11495689818E+00  0.12742863271E+03  0.00000000000E+00 0.  1.
        -11    1    5    5    0    0  0.34928642539E+02  0.18162799755E+03  0.11085599055E+03  0.21563346263E+03  0.00000000000E+00 0. -1.
          3    1    6    6  503    0 -0.15095490058E+03  0.23512051536E+02 -0.66267836584E+03  0.68006089075E+03  0.00000000000E+00 0. -1.
         -3    1    6    6    0  503 -0.83734769195E+02  0.23116193713E+02 -0.16644927885E+03  0.18775311559E+03  0.00000000000E+00 0.  1.
<mgrwt>
<rscale>  0 0.17303248E+04</rscale>
<asrwt>0</asrwt>
<pdfrwt beam="1">  1        1 0.11017432E+00 0.17303248E+04</pdfrwt>
<pdfrwt beam="2">  1       -1 0.16080079E+00 0.17303248E+04</pdfrwt>
<totfact> 0.71972300E+00</totfact>
</mgrwt>
</event>
<event>
12    2  0.8147979E-008  0.2054691E+04  0.7818608E-02  0.8581469E-01
          2   -1    0    0  501    0  0.00000000000E+00  0.00000000000E+00  0.10256174492E+04  0.10256174492E+04  0.00000000000E+00 0.  1.
         -2   -1    0    0    0  501 -0.00000000000E+00 -0.00000000000E+00 -0.10290760226E+04  0.10290760226E+04  0.00000000000E+00 0. -1.
         23    2    1    2    0    0 -0.46333692583E+03 -0.47214201992E+03  0.49550857789E+03  0.83162599038E+03  0.92053480632E+02 0.  0.
        254    2    1    2    0    0  0.46333692583E+03  0.47214201992E+03 -0.49896715130E+03  0.12230674814E+04  0.89962584015E+03 0.  0.
         23    2    4    4    0    0  0.14546921566E+03  0.46444639041E+03  0.13020919180E+03  0.51176530314E+03  0.89875189008E+02 0.  0.
         23    2    4    4    0    0  0.31786771017E+03  0.76956295110E+01 -0.62917634310E+03  0.71130217830E+03  0.94809357435E+02 0.  0.
          2    1    3    3  502    0 -0.39973213121E+03 -0.35792136494E+03  0.38423739450E+03  0.65994837338E+03  0.00000000000E+00 0. -1.
         -2    1    3    3    0  502 -0.63604794621E+02 -0.11422065498E+03  0.11127118340E+03  0.17167761700E+03  0.00000000000E+00 0.  1.
         11    1    5    5    0    0  0.13650137050E+03  0.35739970780E+03  0.71017906566E+02  0.38911530211E+03  0.00000000000E+00 0.  1.
        -11    1    5    5    0    0  0.89678451596E+01  0.10704668261E+03  0.59191285235E+02  0.12265000103E+03  0.00000000000E+00 0. -1.
          2    1    6    6  503    0  0.17997221476E+03  0.19431327741E+02 -0.44895122975E+03  0.48407104983E+03  0.00000000000E+00 0.  1.
         -2    1    6    6    0  503  0.13789549541E+03 -0.11735698230E+02 -0.18022511335E+03  0.22723112847E+03  0.00000000000E+00 0. -1.
<mgrwt>
<rscale>  0 0.20546906E+04</rscale>
<asrwt>0</asrwt>
<pdfrwt beam="1">  1        2 0.15778730E+00 0.20546906E+04</pdfrwt>
<pdfrwt beam="2">  1       -2 0.15831939E+00 0.20546906E+04</pdfrwt>
<totfact> 0.58152541E+00</totfact>
</mgrwt>
</event>
<event>
12    2  0.8147979E-008  0.3225708E+04  0.7818608E-02  0.8182061E-01
         -1   -1    0    0    0  501 -0.00000000000E+00  0.00000000000E+00  0.16881628841E+04  0.16881628841E+04  0.00000000000E+00 0.  1.
          1   -1    0    0  501    0  0.00000000000E+00 -0.00000000000E+00 -0.15409041669E+04  0.15409041669E+04  0.00000000000E+00 0. -1.
         23    2    1    2    0    0  0.47265962622E+03  0.13150109043E+04 -0.43748145006E+03  0.14669867440E+04  0.89438734252E+02 0.  0.
        254    2    1    2    0    0 -0.47265962622E+03 -0.13150109043E+04  0.58474016717E+03  0.17620803070E+04  0.90019172663E+03 0.  0.
         23    2    4    4    0    0 -0.38029259287E+03 -0.15976329164E+03 -0.69852124792E+02  0.42796010818E+03  0.90131954986E+02 0.  0.
         23    2    4    4    0    0 -0.92367033358E+02 -0.11552476126E+04  0.65459229196E+03  0.13341201989E+04  0.90867601130E+02 0.  0.
          3    1    3    3  502    0  0.23433542797E+03  0.55439844457E+03 -0.21921336991E+03  0.64056633512E+03  0.00000000000E+00 0. -1.
         -3    1    3    3    0  502  0.23832419825E+03  0.76061245971E+03 -0.21826808015E+03  0.82642040884E+03  0.00000000000E+00 0.  1.
         11    1    5    5    0    0 -0.16336333523E+03 -0.11744462119E+03 -0.34218175903E+02  0.20408748591E+03  0.00000000000E+00 0. -1.
        -11    1    5    5    0    0 -0.21692925763E+03 -0.42318670449E+02 -0.35633948889E+02  0.22387262226E+03  0.00000000000E+00 0.  1.
          4    1    6    6  503    0 -0.60712370465E+02 -0.94735589404E+03  0.57121643922E+03  0.11079067661E+04  0.00000000000E+00 0. -1.
         -4    1    6    6    0  503 -0.31654662894E+02 -0.20789171860E+03  0.83375852740E+02  0.22621343277E+03  0.00000000000E+00 0.  1.
<mgrwt>
<rscale>  0 0.32257075E+04</rscale>
<asrwt>0</asrwt>
<pdfrwt beam="1">  1        1 0.23706218E+00 0.32257075E+04</pdfrwt>
<pdfrwt beam="2">  1       -1 0.25971737E+00 0.32257075E+04</pdfrwt>
<totfact> 0.30828487E-01</totfact>
</mgrwt>
</event>
<event>
12    2  0.8147979E-008  0.1336939E+04  0.7818608E-02  0.9000775E-01
         -3   -1    0    0    0  501 -0.00000000000E+00  0.00000000000E+00  0.13035072350E+04  0.13035072350E+04  0.00000000000E+00 0.  1.
          3   -1    0    0  501    0  0.00000000000E+00 -0.00000000000E+00 -0.34280680572E+03  0.34280680572E+03  0.00000000000E+00 0. -1.
         23    2    1    2    0    0  0.33957440650E+02 -0.32847620167E+03  0.11017397323E+03  0.36477770337E+03  0.10897130660E+03 0.  0.
        254    2    1    2    0    0 -0.33957440650E+02  0.32847620167E+03  0.85052645607E+03  0.12815363374E+04  0.89993911386E+03 0.  0.
         23    2    4    4    0    0 -0.25703000329E+03  0.30035020451E+03  0.60797175321E+01  0.40317813807E+03  0.78999874131E+02 0.  0.
         23    2    4    4    0    0  0.22307256264E+03  0.28125997161E+02  0.84444673854E+03  0.87835819929E+03  0.88715230418E+02 0.  0.
          3    1    3    3  502    0  0.63190420490E+02 -0.29627846564E+03  0.85497301808E+02  0.31477570913E+03  0.00000000000E+00 0. -1.
         -3    1    3    3    0  502 -0.29232979840E+02 -0.32197736032E+02  0.24676671418E+02  0.50001994242E+02  0.00000000000E+00 0.  1.
         11    1    5    5    0    0 -0.25062022516E+03  0.25590736475E+03  0.35925195099E+01  0.35820662025E+03  0.00000000000E+00 0. -1.
        -11    1    5    5    0    0 -0.64097781321E+01  0.44442839754E+02  0.24871980222E+01  0.44971517821E+02  0.00000000000E+00 0.  1.
          4    1    6    6  503    0  0.17710444169E+03  0.54634997821E+02  0.58956047299E+03  0.61800689119E+03  0.00000000000E+00 0. -1.
         -4    1    6    6    0  503  0.45968120949E+02 -0.26509000660E+02  0.25488626555E+03  0.26035130809E+03  0.00000000000E+00 0.  1.
<mgrwt>
<rscale>  0 0.13369385E+04</rscale>
<asrwt>0</asrwt>
<pdfrwt beam="1">  1        3 0.52739509E-01 0.13369385E+04</pdfrwt>
<pdfrwt beam="2">  1       -3 0.20053957E+00 0.13369385E+04</pdfrwt>
<totfact> 0.13241199E+00</totfact>
</mgrwt>
</event>
<event>
12    2  0.8147979E-008  0.2983993E+04  0.7818608E-02  0.8248317E-01
         -2   -1    0    0    0  501 -0.00000000000E+00  0.00000000000E+00  0.41810740158E+04  0.41810740158E+04  0.00000000000E+00 0.  1.
          2   -1    0    0  501    0  0.00000000000E+00 -0.00000000000E+00 -0.53241174559E+03  0.53241174559E+03  0.00000000000E+00 0. -1.
         23    2    1    2    0    0 -0.13396537011E+04 -0.18597980994E+03  0.15389092037E+04  0.20507259613E+04  0.89302310954E+02 0.  0.
        254    2    1    2    0    0  0.13396537011E+04  0.18597980994E+03  0.21097530665E+04  0.26627598001E+04  0.89998401232E+03 0.  0.
         23    2    4    4    0    0  0.53724391883E+03  0.27350522189E+03  0.15777630396E+04  0.16916106407E+04  0.93670784748E+02 0.  0.
         23    2    4    4    0    0  0.80240978228E+03 -0.87525411949E+02  0.53199002694E+03  0.97114915935E+03  0.92710002195E+02 0.  0.
          1    1    3    3  502    0 -0.16970749790E+03 -0.59332746761E+01  0.15852417852E+03  0.23230530293E+03  0.00000000000E+00 0. -1.
         -1    1    3    3    0  502 -0.11699462032E+04 -0.18004653526E+03  0.13803850252E+04  0.18184206584E+04  0.00000000000E+00 0.  1.
         11    1    5    5    0    0  0.47011335114E+03  0.21613240876E+03  0.14115794333E+04  0.15034215236E+04  0.00000000000E+00 0.  1.
        -11    1    5    5    0    0  0.67130567693E+02  0.57372813126E+02  0.16618360629E+03  0.18818911712E+03  0.00000000000E+00 0. -1.
          1    1    6    6  503    0  0.59660957370E+01 -0.36886857843E+01  0.18593523404E+02  0.19872589507E+02  0.00000000000E+00 0. -1.
         -1    1    6    6    0  503  0.79644368655E+03 -0.83836726165E+02  0.51339650353E+03  0.95127656984E+03  0.00000000000E+00 0.  1.
<mgrwt>
<rscale>  0 0.29839926E+04</rscale>
<asrwt>0</asrwt>
<pdfrwt beam="1">  1        2 0.81909502E-01 0.29839926E+04</pdfrwt>
<pdfrwt beam="2">  1       -2 0.64324213E+00 0.29839926E+04</pdfrwt>
<totfact> 0.17145307E-02</totfact>
</mgrwt>
</event>
<event>
12    2  0.8147979E-008  0.2883669E+04  0.7818608E-02  0.8277753E-01
         -2   -1    0    0    0  501 -0.00000000000E+00  0.00000000000E+00  0.13186340656E+04  0.13186340656E+04  0.00000000000E+00 0. -1.
          2   -1    0    0  501    0  0.00000000000E+00 -0.00000000000E+00 -0.15765459624E+04  0.15765459624E+04  0.00000000000E+00 0.  1.
         23    2    1    2    0    0 -0.11500458833E+04 -0.17342617404E+01 -0.72380347555E+03  0.13622229486E+04  0.95662685009E+02 0.  0.
        254    2    1    2    0    0  0.11500458833E+04  0.17342617404E+01  0.46589157869E+03  0.15329570794E+04  0.90016326454E+03 0.  0.
         23    2    4    4    0    0  0.10009418861E+04  0.95909407636E+02  0.69810800334E+03  0.12275047333E+04  0.91267805263E+02 0.  0.
         23    2    4    4    0    0  0.14910399718E+03 -0.94175145896E+02 -0.23221642464E+03  0.30545234603E+03  0.90970917000E+02 0.  0.
          2    1    3    3  502    0 -0.75854250764E+03 -0.28289925939E+02 -0.43375837997E+03  0.87426162446E+03  0.00000000000E+00 0. -1.
         -2    1    3    3    0  502 -0.39150337562E+03  0.26555664198E+02 -0.29004509557E+03  0.48796132417E+03  0.00000000000E+00 0.  1.
         11    1    5    5    0    0  0.45820694583E+03  0.63847328503E+02  0.37088379526E+03  0.59294593021E+03  0.00000000000E+00 0.  1.
        -11    1    5    5    0    0  0.54273494024E+03  0.32062079133E+02  0.32722420807E+03  0.63455880313E+03  0.00000000000E+00 0. -1.
          2    1    6    6  503    0 -0.55404752893E+01 -0.19465812089E+02 -0.55286659197E+02  0.58874692287E+02  0.00000000000E+00 0. -1.
         -2    1    6    6    0  503  0.15464447247E+03 -0.74709333806E+02 -0.17692976545E+03  0.24657765374E+03  0.00000000000E+00 0.  1.
<mgrwt>
<rscale>  0 0.28836693E+04</rscale>
<asrwt>0</asrwt>
<pdfrwt beam="1">  1        2 0.24254553E+00 0.28836693E+04</pdfrwt>
<pdfrwt beam="2">  1       -2 0.20286678E+00 0.28836693E+04</pdfrwt>
<totfact> 0.12654262E+00</totfact>
</mgrwt>
</event>
<event>
12    2  0.8147979E-008  0.2056854E+04  0.7818608E-02  0.8580492E-01
          2   -1    0    0  501    0  0.00000000000E+00  0.00000000000E+00  0.19281049874E+04  0.19281049874E+04  0.00000000000E+00 0. -1.
         -2   -1    0    0    0  501 -0.00000000000E+00 -0.00000000000E+00 -0.54854985422E+03  0.54854985422E+03  0.00000000000E+00 0.  1.
         23    2    1    2    0    0 -0.99374166366E+02  0.39157566600E+03  0.14211226319E+04  0.14821679167E+04  0.11842918206E+03 0.  0.
        254    2    1    2    0    0  0.99374166366E+02 -0.39157566600E+03 -0.41567498763E+02  0.99448692491E+03  0.90778282629E+03 0.  0.
         23    2    4    4    0    0  0.38173436838E+03 -0.52460606497E+03 -0.10204700058E+03  0.66329885414E+03  0.92839259892E+02 0.  0.
         23    2    4    4    0    0 -0.28236020201E+03  0.13303039897E+03  0.60479501816E+02  0.33118807077E+03  0.92754500415E+02 0.  0.
          2    1    3    3  502    0 -0.50063367847E+02  0.32814828153E+03  0.12466447078E+04  0.12900816497E+04  0.00000000000E+00 0. -1.
         -2    1    3    3    0  502 -0.49310798519E+02  0.63427384465E+02  0.17447792412E+03  0.19208626696E+03  0.00000000000E+00 0.  1.
         11    1    5    5    0    0  0.36519490536E+03 -0.46860803949E+03 -0.11052087900E+03  0.60429767356E+03  0.00000000000E+00 0.  1.
        -11    1    5    5    0    0  0.16539463017E+02 -0.55998025481E+02  0.84738784243E+01  0.59001180583E+02  0.00000000000E+00 0. -1.
          1    1    6    6  503    0 -0.84659896534E+02 -0.12512576918E+01  0.31962338590E+02  0.90501131568E+02  0.00000000000E+00 0. -1.
         -1    1    6    6    0  503 -0.19770030548E+03  0.13428165666E+03  0.28517163226E+02  0.24068693920E+03  0.00000000000E+00 0.  1.
<mgrwt>
<rscale>  0 0.20568536E+04</rscale>
<asrwt>0</asrwt>
<pdfrwt beam="1">  1        2 0.29663153E+00 0.20568536E+04</pdfrwt>
<pdfrwt beam="2">  1       -2 0.84392286E-01 0.20568536E+04</pdfrwt>
<totfact> 0.82964221E+00</totfact>
</mgrwt>
</event>
<event>
12    2  0.8147979E-008  0.3914840E+04  0.7818608E-02  0.8021950E-01
         -2   -1    0    0    0  501 -0.00000000000E+00  0.00000000000E+00  0.17296237788E+04  0.17296237788E+04  0.00000000000E+00 0.  1.
          2   -1    0    0  501    0  0.00000000000E+00 -0.00000000000E+00 -0.22152179159E+04  0.22152179159E+04  0.00000000000E+00 0. -1.
         23    2    1    2    0    0  0.64788009648E+03  0.17362889507E+04 -0.25128535386E+03  0.18723756361E+04  0.90544208779E+02 0.  0.
        254    2    1    2    0    0 -0.64788009648E+03 -0.17362889507E+04 -0.23430878320E+03  0.20724660586E+04  0.89764526318E+03 0.  0.
         23    2    4    4    0    0 -0.24065204311E+03 -0.15631900344E+04 -0.47685990988E+02  0.15850274643E+04  0.92529019286E+02 0.  0.
         23    2    4    4    0    0 -0.40722805338E+03 -0.17309891635E+03 -0.18662279221E+03  0.48743859435E+03  0.83488887830E+02 0.  0.
          2    1    3    3  502    0  0.47284432754E+03  0.13698011573E+04 -0.18548839885E+03  0.14609390524E+04  0.00000000000E+00 0. -1.
         -2    1    3    3    0  502  0.17503576894E+03  0.36648779342E+03 -0.65796955008E+02  0.41143658372E+03  0.00000000000E+00 0.  1.
         11    1    5    5    0    0 -0.12853071802E+03 -0.10979650724E+04 -0.19058875929E+02  0.11056268296E+04  0.00000000000E+00 0. -1.
        -11    1    5    5    0    0 -0.11212132508E+03 -0.46522496199E+03 -0.28627115060E+02  0.47940063466E+03  0.00000000000E+00 0.  1.
          3    1    6    6  503    0 -0.31971619929E+03 -0.12295673392E+03 -0.10678030278E+03  0.35880195034E+03  0.00000000000E+00 0. -1.
         -3    1    6    6    0  503 -0.87511854086E+02 -0.50142182425E+02 -0.79842489427E+02  0.12863664401E+03  0.00000000000E+00 0.  1.
<mgrwt>
<rscale>  0 0.39148403E+04</rscale>
<asrwt>0</asrwt>
<pdfrwt beam="1">  1        2 0.34080276E+00 0.39148403E+04</pdfrwt>
<pdfrwt beam="2">  1       -2 0.26609597E+00 0.39148403E+04</pdfrwt>
<totfact> 0.20593490E-01</totfact>
</mgrwt>
</event>
<event>
12    2  0.8147979E-008  0.1993312E+04  0.7818608E-02  0.8609754E-01
          2   -1    0    0  501    0  0.00000000000E+00  0.00000000000E+00  0.21497291593E+04  0.21497291593E+04  0.00000000000E+00 0.  1.
         -2   -1    0    0    0  501 -0.00000000000E+00 -0.00000000000E+00 -0.46206907854E+03  0.46206907854E+03  0.00000000000E+00 0. -1.
         23    2    1    2    0    0 -0.51499534269E+03 -0.13816651357E+03 -0.90968171250E+02  0.54870088913E+03  0.92126375644E+02 0.  0.
        254    2    1    2    0    0  0.51499534269E+03  0.13816651357E+03  0.17786282520E+04  0.20630973487E+04  0.89918964794E+03 0.  0.
         23    2    4    4    0    0  0.10847043414E+03  0.24370459655E+02 -0.73538024841E+02  0.16115733991E+03  0.90576446846E+02 0.  0.
         23    2    4    4    0    0  0.40652490855E+03  0.11379605391E+03  0.18521662768E+04  0.19019400088E+04  0.92972236949E+02 0.  0.
          1    1    3    3  502    0 -0.37363682743E+03 -0.13430221535E+03 -0.42940688664E+02  0.39935631535E+03  0.00000000000E+00 0. -1.
         -1    1    3    3    0  502 -0.14135851525E+03 -0.38642982194E+01 -0.48027482586E+02  0.14934457378E+03  0.00000000000E+00 0.  1.
         11    1    5    5    0    0  0.81255266699E+02 -0.20452854909E+02 -0.68962015848E+02  0.10851957091E+03  0.00000000000E+00 0.  1.
        -11    1    5    5    0    0  0.27215167441E+02  0.44823314564E+02 -0.45760089937E+01  0.52637769003E+02  0.00000000000E+00 0. -1.
          4    1    6    6  503    0  0.64608701077E+02 -0.15280057791E+02  0.31579921150E+03  0.32270250449E+03  0.00000000000E+00 0. -1.
         -4    1    6    6    0  503  0.34191620747E+03  0.12907611171E+03  0.15363670653E+04  0.15792375043E+04  0.00000000000E+00 0.  1.
<mgrwt>
<rscale>  0 0.19933122E+04</rscale>
<asrwt>0</asrwt>
<pdfrwt beam="1">  1        2 0.33072756E+00 0.19933122E+04</pdfrwt>
<pdfrwt beam="2">  1       -2 0.71087552E-01 0.19933122E+04</pdfrwt>
<totfact> 0.92064060E+00</totfact>
</mgrwt>
</event>
<event>
12    2  0.8147979E-008  0.2340615E+04  0.7818608E-02  0.8462077E-01
         -1   -1    0    0    0  501 -0.00000000000E+00  0.00000000000E+00  0.98546407252E+03  0.98546407252E+03  0.00000000000E+00 0.  1.
          1   -1    0    0  501    0  0.00000000000E+00 -0.00000000000E+00 -0.13898217474E+04  0.13898217474E+04  0.00000000000E+00 0. -1.
         23    2    1    2    0    0  0.17556615879E+03  0.60280045822E+03  0.61098525947E+03  0.88051614127E+03  0.88395809894E+02 0.  0.
        254    2    1    2    0    0 -0.17556615879E+03 -0.60280045822E+03 -0.10153429343E+04  0.14947696786E+04  0.89956836832E+03 0.  0.
         23    2    4    4    0    0 -0.53663048035E+03 -0.36682383363E+03 -0.59508725318E+03  0.88612310766E+03  0.92484191396E+02 0.  0.
         23    2    4    4    0    0  0.36106432157E+03 -0.23597662459E+03 -0.42025568115E+03  0.60864657096E+03  0.88223574766E+02 0.  0.
          2    1    3    3  502    0  0.53529196013E+02  0.78750425834E+02  0.77086034893E+02  0.12251228987E+03  0.00000000000E+00 0. -1.
         -2    1    3    3    0  502  0.12203696277E+03  0.52405003238E+03  0.53389922458E+03  0.75800385140E+03  0.00000000000E+00 0.  1.
         11    1    5    5    0    0 -0.52439890073E+03 -0.37088182005E+03 -0.59036484961E+03  0.87239795230E+03  0.00000000000E+00 0. -1.
        -11    1    5    5    0    0 -0.12231579629E+02  0.40579864226E+01 -0.47224035784E+01  0.13725155358E+02  0.00000000000E+00 0.  1.
          2    1    6    6  503    0  0.16189655391E+03 -0.13766030878E+03 -0.25416779810E+03  0.33130367395E+03  0.00000000000E+00 0. -1.
         -2    1    6    6    0  503  0.19916776766E+03 -0.98316315807E+02 -0.16608788305E+03  0.27734289701E+03  0.00000000000E+00 0.  1.
<mgrwt>
<rscale>  0 0.23406148E+04</rscale>
<asrwt>0</asrwt>
<pdfrwt beam="1">  1        1 0.21381873E+00 0.23406148E+04</pdfrwt>
<pdfrwt beam="2">  1       -1 0.15160986E+00 0.23406148E+04</pdfrwt>
<totfact> 0.23848406E+00</totfact>
</mgrwt>
</event>
<event>
12    2  0.8147979E-008  0.1735016E+04  0.7818608E-02  0.8741642E-01
          2   -1    0    0  501    0  0.00000000000E+00  0.00000000000E+00  0.91235844545E+03  0.91235844545E+03  0.00000000000E+00 0. -1.
         -2   -1    0    0    0  501 -0.00000000000E+00 -0.00000000000E+00 -0.82486211701E+03  0.82486211701E+03  0.00000000000E+00 0.  1.
         23    2    1    2    0    0  0.36239242539E+03 -0.51040710090E+03  0.94976229049E+02  0.63933214007E+03  0.88777376673E+02 0.  0.
        254    2    1    2    0    0 -0.36239242539E+03  0.51040710090E+03 -0.74799006086E+01  0.10978884224E+04  0.90191981933E+03 0.  0.
         23    2    4    4    0    0 -0.24159986929E+03  0.47878787039E+03  0.39059347557E+03  0.67063623832E+03  0.97884520343E+02 0.  0.
         23    2    4    4    0    0 -0.12079255610E+03  0.31619230508E+02 -0.39807337617E+03  0.42725218408E+03  0.92148785301E+02 0.  0.
          4    1    3    3  502    0  0.85399658957E+02 -0.10831193082E+03 -0.15271246267E+02  0.13877242907E+03  0.00000000000E+00 0. -1.
         -4    1    3    3    0  502  0.27699276643E+03 -0.40209517008E+03  0.11024747532E+03  0.50055971100E+03  0.00000000000E+00 0.  1.
         11    1    5    5    0    0 -0.75033970973E+01  0.30670739987E+02 -0.28654125645E+00  0.31576531875E+02  0.00000000000E+00 0. -1.
        -11    1    5    5    0    0 -0.23409647219E+03  0.44811713040E+03  0.39088001682E+03  0.63905970645E+03  0.00000000000E+00 0.  1.
          2    1    6    6  503    0 -0.34454027324E+02 -0.32715227546E+02 -0.12202709505E+03  0.13095028843E+03  0.00000000000E+00 0.  1.
         -2    1    6    6    0  503 -0.86338528780E+02  0.64334458054E+02 -0.27604628112E+03  0.29630189565E+03  0.00000000000E+00 0. -1.
<mgrwt>
<rscale>  0 0.17350158E+04</rscale>
<asrwt>0</asrwt>
<pdfrwt beam="1">  1        2 0.14036284E+00 0.17350158E+04</pdfrwt>
<pdfrwt beam="2">  1       -2 0.12690186E+00 0.17350158E+04</pdfrwt>
<totfact> 0.12598759E+01</totfact>
</mgrwt>
</event>
<event>
12    2  0.8147979E-008  0.4439487E+04  0.7818608E-02  0.7921317E-01
          2   -1    0    0  501    0  0.00000000000E+00  0.00000000000E+00  0.22201698501E+04  0.22201698501E+04  0.00000000000E+00 0.  1.
         -2   -1    0    0    0  501 -0.00000000000E+00 -0.00000000000E+00 -0.22193174087E+04  0.22193174087E+04  0.00000000000E+00 0. -1.
         23    2    1    2    0    0  0.17689159178E+02 -0.84966582692E+03 -0.19497038402E+04  0.21295838572E+04  0.10741236662E+03 0.  0.
        254    2    1    2    0    0 -0.17689159178E+02  0.84966582692E+03  0.19505562816E+04  0.23099034015E+04  0.89929916755E+03 0.  0.
         23    2    4    4    0    0 -0.25009776098E+03  0.73000280557E+03  0.75827153657E+03  0.10858763358E+04  0.93266860540E+02 0.  0.
         23    2    4    4    0    0  0.23240860180E+03  0.11966302134E+03  0.11922847451E+04  0.12240270657E+04  0.91467739957E+02 0.  0.
          1    1    3    3  502    0 -0.12436139488E+02 -0.19735485615E+03 -0.56560169143E+03  0.59917348920E+03  0.00000000000E+00 0. -1.
         -1    1    3    3    0  502  0.30125298666E+02 -0.65231097077E+03 -0.13841021488E+04  0.15304103680E+04  0.00000000000E+00 0.  1.
         11    1    5    5    0    0 -0.52221297660E+02  0.26440164575E+03  0.29984331835E+03  0.40316412262E+03  0.00000000000E+00 0.  1.
        -11    1    5    5    0    0 -0.19787646332E+03  0.46560115982E+03  0.45842821822E+03  0.68271221318E+03  0.00000000000E+00 0. -1.
          4    1    6    6  503    0  0.10051500351E+03  0.16039344150E+02  0.59474878645E+03  0.60339592763E+03  0.00000000000E+00 0.  1.
         -4    1    6    6    0  503  0.13189359829E+03  0.10362367719E+03  0.59753595861E+03  0.62063113810E+03  0.00000000000E+00 0. -1.
<mgrwt>
<rscale>  0 0.44394872E+04</rscale>
<asrwt>0</asrwt>
<pdfrwt beam="1">  1        2 0.34156459E+00 0.44394872E+04</pdfrwt>
<pdfrwt beam="2">  1       -2 0.34143345E+00 0.44394872E+04</pdfrwt>
<totfact> 0.67460065E-02</totfact>
</mgrwt>
</event>
<event>
12    2  0.8147979E-008  0.2186717E+04  0.7818608E-02  0.8523977E-01
          1   -1    0    0  501    0  0.00000000000E+00  0.00000000000E+00  0.89753434207E+03  0.89753434207E+03  0.00000000000E+00 0. -1.
         -1   -1    0    0    0  501 -0.00000000000E+00 -0.00000000000E+00 -0.13319080349E+04  0.13319080349E+04  0.00000000000E+00 0.  1.
         23    2    1    2    0    0  0.70987568400E+03  0.19396627148E+03  0.35972175581E+03  0.82422865237E+03  0.91688213975E+02 0.  0.
        254    2    1    2    0    0 -0.70987568400E+03 -0.19396627148E+03 -0.79409544862E+03  0.14052137246E+04  0.89581897113E+03 0.  0.
         23    2    4    4    0    0 -0.60426936223E+03  0.72200221837E+02 -0.68080778018E+02  0.61927356134E+03  0.92251922896E+02 0.  0.
         23    2    4    4    0    0 -0.10560632177E+03 -0.26616649331E+03 -0.72601467060E+03  0.78594016324E+03  0.92775756036E+02 0.  0.
          1    1    3    3  502    0  0.25074658063E+03  0.59014763045E+02  0.17422383033E+03  0.31098317159E+03  0.00000000000E+00 0. -1.
         -1    1    3    3    0  502  0.45912910337E+03  0.13495150843E+03  0.18549792548E+03  0.51324548078E+03  0.00000000000E+00 0.  1.
         11    1    5    5    0    0 -0.11282430565E+03 -0.22255035749E+02 -0.16661398843E+02  0.11619902225E+03  0.00000000000E+00 0. -1.
        -11    1    5    5    0    0 -0.49144505659E+03  0.94455257585E+02 -0.51419379175E+02  0.50307453909E+03  0.00000000000E+00 0.  1.
          2    1    6    6  503    0 -0.96615993566E+02 -0.11792083387E+03 -0.36122756449E+03  0.39207821493E+03  0.00000000000E+00 0.  1.
         -2    1    6    6    0  503 -0.89903282005E+01 -0.14824565944E+03 -0.36478710611E+03  0.39386194831E+03  0.00000000000E+00 0. -1.
<mgrwt>
<rscale>  0 0.21867174E+04</rscale>
<asrwt>0</asrwt>
<pdfrwt beam="1">  1        1 0.13808221E+00 0.21867174E+04</pdfrwt>
<pdfrwt beam="2">  1       -1 0.20490893E+00 0.21867174E+04</pdfrwt>
<totfact> 0.23235772E+00</totfact>
</mgrwt>
</event>
<event>
12    2  0.8147979E-008  0.2653779E+04  0.7818608E-02  0.8350160E-01
         -2   -1    0    0    0  501 -0.00000000000E+00  0.00000000000E+00  0.89855921550E+03  0.89855921550E+03  0.00000000000E+00 0.  1.
          2   -1    0    0  501    0  0.00000000000E+00 -0.00000000000E+00 -0.19593993937E+04  0.19593993937E+04  0.00000000000E+00 0. -1.
         23    2    1    2    0    0  0.75351221163E+03 -0.65250881389E+03 -0.11358718247E+04  0.15139904754E+04  0.91727598139E+02 0.  0.
        254    2    1    2    0    0 -0.75351221163E+03  0.65250881389E+03  0.75031646532E+02  0.13439681337E+04  0.89837196709E+03 0.  0.
         23    2    4    4    0    0 -0.55467808075E+02  0.62191510483E+03  0.10102328692E+03  0.63892339491E+03  0.90345584911E+02 0.  0.
         23    2    4    4    0    0 -0.69804440356E+03  0.30593709055E+02 -0.25991640386E+02  0.70504473883E+03  0.90612107431E+02 0.  0.
          1    1    3    3  502    0  0.57782951443E+03 -0.45877352486E+03 -0.87585962401E+03  0.11452031155E+04  0.00000000000E+00 0. -1.
         -1    1    3    3    0  502  0.17568269720E+03 -0.19373528902E+03 -0.26001220071E+03  0.36878735991E+03  0.00000000000E+00 0.  1.
         11    1    5    5    0    0 -0.23901455067E+02  0.43641539973E+03  0.31061596751E+02  0.43817177393E+03  0.00000000000E+00 0. -1.
        -11    1    5    5    0    0 -0.31566353008E+02  0.18549970510E+03  0.69961690168E+02  0.20075162098E+03  0.00000000000E+00 0.  1.
          2    1    6    6  503    0 -0.68080730701E+03  0.44242564054E+02 -0.21371547151E+02  0.68257800784E+03  0.00000000000E+00 0. -1.
         -2    1    6    6    0  503 -0.17237096544E+02 -0.13648854998E+02 -0.46200932356E+01  0.22466730993E+02  0.00000000000E+00 0.  1.
<mgrwt>
<rscale>  0 0.26537795E+04</rscale>
<asrwt>0</asrwt>
<pdfrwt beam="1">  1        2 0.30144606E+00 0.26537795E+04</pdfrwt>
<pdfrwt beam="2">  1       -2 0.13823988E+00 0.26537795E+04</pdfrwt>
<totfact> 0.23005056E+00</totfact>
</mgrwt>
</event>
<event>
12    2  0.8147979E-008  0.2141978E+04  0.7818608E-02  0.8542974E-01
         -2   -1    0    0    0  501 -0.00000000000E+00  0.00000000000E+00  0.68219818580E+03  0.68219818580E+03  0.00000000000E+00 0.  1.
          2   -1    0    0  501    0  0.00000000000E+00 -0.00000000000E+00 -0.16813545609E+04  0.16813545609E+04  0.00000000000E+00 0. -1.
         23    2    1    2    0    0  0.85419531197E+03 -0.14302064758E+03 -0.57591041104E+03  0.10439777402E+04  0.90067662576E+02 0.  0.
        254    2    1    2    0    0 -0.85419531197E+03  0.14302064758E+03 -0.42324596401E+03  0.13195750065E+04  0.90113068699E+03 0.  0.
         23    2    4    4    0    0 -0.51410250691E+03  0.43505188421E+03  0.23817940670E+02  0.67997471467E+03  0.90701646767E+02 0.  0.
         23    2    4    4    0    0 -0.34009280506E+03 -0.29203123663E+03 -0.44706390468E+03  0.63960029180E+03  0.90978234704E+02 0.  0.
          1    1    3    3  502    0  0.55336006578E+03 -0.10027942838E+03 -0.42376303675E+03  0.70415796344E+03  0.00000000000E+00 0. -1.
         -1    1    3    3    0  502  0.30083524618E+03 -0.42741219202E+02 -0.15214737429E+03  0.33981977675E+03  0.00000000000E+00 0.  1.
         11    1    5    5    0    0 -0.38994098620E+03  0.33621988113E+03 -0.20253151835E+02  0.51527465623E+03  0.00000000000E+00 0. -1.
        -11    1    5    5    0    0 -0.12416152070E+03  0.98832003073E+02  0.44071092505E+02  0.16470005844E+03  0.00000000000E+00 0.  1.
          2    1    6    6  503    0 -0.11732661382E+03 -0.10354008098E+03 -0.21940273510E+03  0.26948774156E+03  0.00000000000E+00 0.  1.
         -2    1    6    6    0  503 -0.22276619124E+03 -0.18849115564E+03 -0.22766116957E+03  0.37011255024E+03  0.00000000000E+00 0. -1.
<mgrwt>
<rscale>  0 0.21419776E+04</rscale>
<asrwt>0</asrwt>
<pdfrwt beam="1">  1        2 0.25866993E+00 0.21419776E+04</pdfrwt>
<pdfrwt beam="2">  1       -2 0.10495357E+00 0.21419776E+04</pdfrwt>
<totfact> 0.67885167E+00</totfact>
</mgrwt>
</event>
<event>
12    2  0.8147979E-008  0.1307252E+04  0.7818608E-02  0.9023834E-01
          1   -1    0    0  501    0  0.00000000000E+00  0.00000000000E+00  0.50417542640E+03  0.50417542640E+03  0.00000000000E+00 0. -1.
         -1   -1    0    0    0  501 -0.00000000000E+00 -0.00000000000E+00 -0.84737745331E+03  0.84737745331E+03  0.00000000000E+00 0.  1.
         23    2    1    2    0    0 -0.13708430313E+03 -0.25057978621E+03 -0.26961109832E+03  0.40341678857E+03  0.92046866015E+02 0.  0.
        254    2    1    2    0    0  0.13708430313E+03  0.25057978621E+03 -0.73590928592E+02  0.94813609114E+03  0.90109049886E+03 0.  0.
         23    2    4    4    0    0 -0.29345226241E+03  0.30359528597E+03  0.14230867250E+03  0.45472542784E+03  0.90769645127E+02 0.  0.
         23    2    4    4    0    0  0.43053656554E+03 -0.53015499759E+02 -0.21589960109E+03  0.49341066331E+03  0.93107826937E+02 0.  0.
          1    1    3    3  502    0 -0.29407834057E+02 -0.13260067062E+03 -0.89385572569E+02  0.16259624576E+03  0.00000000000E+00 0. -1.
         -1    1    3    3    0  502 -0.10767646907E+03 -0.11797911559E+03 -0.18022552575E+03  0.24082054281E+03  0.00000000000E+00 0.  1.
         11    1    5    5    0    0 -0.20711919153E+03  0.15015140795E+03  0.84179756120E+02  0.26931401031E+03  0.00000000000E+00 0.  1.
        -11    1    5    5    0    0 -0.86333070880E+02  0.15344387802E+03  0.58128916378E+02  0.18541141753E+03  0.00000000000E+00 0. -1.
          1    1    6    6  503    0  0.14014985558E+03 -0.55594298273E+02 -0.98974537481E+02  0.18035705445E+03  0.00000000000E+00 0. -1.
         -1    1    6    6    0  503  0.29038670995E+03  0.25787985137E+01 -0.11692506361E+03  0.31305360886E+03  0.00000000000E+00 0.  1.
<mgrwt>
<rscale>  0 0.13072519E+04</rscale>
<asrwt>0</asrwt>
<pdfrwt beam="1">  1        1 0.77565451E-01 0.13072519E+04</pdfrwt>
<pdfrwt beam="2">  1       -1 0.13036576E+00 0.13072519E+04</pdfrwt>
<totfact> 0.21671803E+01</totfact>
</mgrwt>
</event>
<event>
12    2  0.8147979E-008  0.2825994E+04  0.7818608E-02  0.8295244E-01
         -2   -1    0    0    0  501 -0.00000000000E+00  0.00000000000E+00  0.55538924585E+03  0.55538924585E+03  0.00000000000E+00 0.  1.
          2   -1    0    0  501    0  0.00000000000E+00 -0.00000000000E+00 -0.35948842190E+04  0.35948842190E+04  0.00000000000E+00 0. -1.
         23    2    1    2    0    0 -0.96423010744E+03 -0.75400850629E+03 -0.89534329129E+03  0.15194366310E+04  0.93699192266E+02 0.  0.
        254    2    1    2    0    0  0.96423010744E+03  0.75400850629E+03 -0.21441516818E+04  0.26308368339E+04  0.90865146454E+03 0.  0.
         23    2    4    4    0    0  0.96943037189E+03  0.71700137931E+03 -0.12792363676E+04  0.17602971152E+04  0.91181279418E+02 0.  0.
         23    2    4    4    0    0 -0.52002644484E+01  0.37007126988E+02 -0.86491531425E+03  0.87053971867E+03  0.91456715212E+02 0.  0.
          2    1    3    3  502    0 -0.16551836019E+03 -0.17091946615E+03 -0.15249303543E+03  0.28260204763E+03  0.00000000000E+00 0. -1.
         -2    1    3    3    0  502 -0.79871174725E+03 -0.58308904015E+03 -0.74285025586E+03  0.12368345833E+04  0.00000000000E+00 0.  1.
         11    1    5    5    0    0  0.57393176159E+03  0.46238970047E+03 -0.82759035286E+03  0.11082002049E+04  0.00000000000E+00 0.  1.
        -11    1    5    5    0    0  0.39549861030E+03  0.25461167883E+03 -0.45164601472E+03  0.65209691025E+03  0.00000000000E+00 0. -1.
          2    1    6    6  503    0 -0.23850041754E+02  0.27398762759E+02 -0.82168675960E+03  0.82248929938E+03  0.00000000000E+00 0.  1.
         -2    1    6    6    0  503  0.18649777305E+02  0.96083642295E+01 -0.43228554650E+02  0.48050419289E+02  0.00000000000E+00 0. -1.
<mgrwt>
<rscale>  0 0.28259937E+04</rscale>
<asrwt>0</asrwt>
<pdfrwt beam="1">  1        2 0.55305912E+00 0.28259937E+04</pdfrwt>
<pdfrwt beam="2">  1       -2 0.85444498E-01 0.28259937E+04</pdfrwt>
<totfact> 0.71972814E-01</totfact>
</mgrwt>
</event>
<event>
12    2  0.8147979E-008  0.1883797E+04  0.7818608E-02  0.8662964E-01
         -1   -1    0    0    0  501 -0.00000000000E+00  0.00000000000E+00  0.28244579828E+04  0.28244579828E+04  0.00000000000E+00 0.  1.
          1   -1    0    0  501    0  0.00000000000E+00 -0.00000000000E+00 -0.31410374941E+03  0.31410374941E+03  0.00000000000E+00 0. -1.
         23    2    1    2    0    0  0.62982791992E+03 -0.73398606384E+02  0.38991876051E+03  0.74989554584E+03  0.90753103248E+02 0.  0.
        254    2    1    2    0    0 -0.62982791992E+03  0.73398606384E+02  0.21204354729E+04  0.23886661863E+04  0.89855939763E+03 0.  0.
         23    2    4    4    0    0 -0.21459192843E+02 -0.18177657330E+03  0.46694427151E+02  0.21084736982E+03  0.93664423746E+02 0.  0.
         23    2    4    4    0    0 -0.60836872707E+03  0.25517517968E+03  0.20737410457E+04  0.21778188165E+04  0.85240791368E+02 0.  0.
          4    1    3    3  502    0  0.11295015824E+03 -0.32154308580E+02  0.10870852480E+03  0.16002868859E+03  0.00000000000E+00 0.  1.
         -4    1    3    3    0  502  0.51687776168E+03 -0.41244297804E+02  0.28121023570E+03  0.58986685725E+03  0.00000000000E+00 0. -1.
         11    1    5    5    0    0 -0.19885434667E+02 -0.13314456721E+03 -0.11358673841E+02  0.13509968823E+03  0.00000000000E+00 0.  1.
        -11    1    5    5    0    0 -0.15737581761E+01 -0.48632006090E+02  0.58053100992E+02  0.75747681588E+02  0.00000000000E+00 0. -1.
          4    1    6    6  503    0 -0.45754728428E+03  0.21915467993E+03  0.14987627411E+04  0.15822983427E+04  0.00000000000E+00 0. -1.
         -4    1    6    6    0  503 -0.15082144280E+03  0.36020499757E+02  0.57497830460E+03  0.59552047384E+03  0.00000000000E+00 0.  1.
<mgrwt>
<rscale>  0 0.18837971E+04</rscale>
<asrwt>0</asrwt>
<pdfrwt beam="1">  1        1 0.48323656E-01 0.18837971E+04</pdfrwt>
<pdfrwt beam="2">  1       -1 0.43453198E+00 0.18837971E+04</pdfrwt>
<totfact> 0.32073289E-01</totfact>
</mgrwt>
</event>
<event>
12    2  0.8147979E-008  0.2792949E+04  0.7818608E-02  0.8305461E-01
          1   -1    0    0  501    0  0.00000000000E+00  0.00000000000E+00  0.19397902518E+04  0.19397902518E+04  0.00000000000E+00 0. -1.
         -1   -1    0    0    0  501 -0.00000000000E+00 -0.00000000000E+00 -0.10053359562E+04  0.10053359562E+04  0.00000000000E+00 0.  1.
         23    2    1    2    0    0  0.41617188407E+03  0.16712090954E+02 -0.82315896074E+03  0.92703424481E+03  0.91233137198E+02 0.  0.
        254    2    1    2    0    0 -0.41617188407E+03 -0.16712090954E+02  0.17576132564E+04  0.20180919632E+04  0.90000693419E+03 0.  0.
         23    2    4    4    0    0 -0.39729633881E+03 -0.34001783689E+03  0.55069732040E+03  0.76509566546E+03  0.92991012303E+02 0.  0.
         23    2    4    4    0    0 -0.18875545258E+02  0.32330574594E+03  0.12069159360E+04  0.12529962977E+04  0.92036698630E+02 0.  0.
          3    1    3    3  502    0  0.10784690831E+03 -0.27728344509E+02 -0.16750989022E+03  0.20114517156E+03  0.00000000000E+00 0. -1.
         -3    1    3    3    0  502  0.30832497576E+03  0.44440435463E+02 -0.65564907052E+03  0.72588907325E+03  0.00000000000E+00 0.  1.
         11    1    5    5    0    0 -0.15022736503E+02 -0.30138535227E+02  0.12708581370E+02  0.35993359917E+02  0.00000000000E+00 0.  1.
        -11    1    5    5    0    0 -0.38227360231E+03 -0.30987930166E+03  0.53798873903E+03  0.72910230554E+03  0.00000000000E+00 0. -1.
          1    1    6    6  503    0  0.25943551382E+02  0.24060789145E+03  0.90215624524E+03  0.93405091730E+03  0.00000000000E+00 0. -1.
         -1    1    6    6    0  503 -0.44819096640E+02  0.82697854483E+02  0.30475969077E+03  0.31894538040E+03  0.00000000000E+00 0.  1.
<mgrwt>
<rscale>  0 0.27929489E+04</rscale>
<asrwt>0</asrwt>
<pdfrwt beam="1">  1        1 0.29842927E+00 0.27929489E+04</pdfrwt>
<pdfrwt beam="2">  1       -1 0.15466707E+00 0.27929489E+04</pdfrwt>
<totfact> 0.91037496E-01</totfact>
</mgrwt>
</event>
<event>
12    2  0.8147979E-008  0.2564079E+04  0.7818608E-02  0.8380506E-01
         -1   -1    0    0    0  501 -0.00000000000E+00  0.00000000000E+00  0.61825352898E+03  0.61825352898E+03  0.00000000000E+00 0.  1.
          1   -1    0    0  501    0  0.00000000000E+00 -0.00000000000E+00 -0.26584963519E+04  0.26584963519E+04  0.00000000000E+00 0. -1.
         23    2    1    2    0    0 -0.32981642233E+03 -0.41170893559E+03 -0.21625144648E+04  0.22278202668E+04  0.91821624230E+02 0.  0.
        254    2    1    2    0    0  0.32981642233E+03  0.41170893559E+03  0.12227164190E+03  0.10489296140E+04  0.89834284141E+03 0.  0.
         23    2    4    4    0    0  0.27215437773E+03  0.26193315601E+03 -0.36162737983E+03  0.53089582662E+03  0.91646240223E+02 0.  0.
         23    2    4    4    0    0  0.57662044604E+02  0.14977577959E+03  0.48389902174E+03  0.51803378742E+03  0.91886049735E+02 0.  0.
          1    1    3    3  502    0 -0.27284975090E+03 -0.33388530165E+03 -0.18953854352E+04  0.19438138618E+04  0.00000000000E+00 0. -1.
         -1    1    3    3    0  502 -0.56966671436E+02 -0.77823633947E+02 -0.26712902962E+03  0.28400640507E+03  0.00000000000E+00 0.  1.
         11    1    5    5    0    0  0.23807572546E+03  0.21419269984E+03 -0.25567363323E+03  0.40978966610E+03  0.00000000000E+00 0. -1.
        -11    1    5    5    0    0  0.34078652267E+02  0.47740456171E+02 -0.10595374661E+03  0.12110616052E+03  0.00000000000E+00 0.  1.
          2    1    6    6  503    0 -0.18968654686E+01  0.14447671292E+02  0.17465194361E+03  0.17525876501E+03  0.00000000000E+00 0. -1.
         -2    1    6    6    0  503  0.59558910073E+02  0.13532810830E+03  0.30924707812E+03  0.34277502241E+03  0.00000000000E+00 0.  1.
<mgrwt>
<rscale>  0 0.25640786E+04</rscale>
<asrwt>0</asrwt>
<pdfrwt beam="1">  1        1 0.40899945E+00 0.25640786E+04</pdfrwt>
<pdfrwt beam="2">  1       -1 0.95115925E-01 0.25640786E+04</pdfrwt>
<totfact> 0.99001667E-01</totfact>
</mgrwt>
</event>
<event>
12    2  0.8147979E-008  0.1248761E+04  0.7818608E-02  0.9071215E-01
         -2   -1    0    0    0  501 -0.00000000000E+00  0.00000000000E+00  0.16282693284E+03  0.16282693284E+03  0.00000000000E+00 0.  1.
          2   -1    0    0  501    0  0.00000000000E+00 -0.00000000000E+00 -0.23942647214E+04  0.23942647214E+04  0.00000000000E+00 0. -1.
         23    2    1    2    0    0  0.23417859276E+03  0.18250149807E+03 -0.59615460338E+03  0.66979175830E+03  0.71233968366E+02 0.  0.
        254    2    1    2    0    0 -0.23417859276E+03 -0.18250149807E+03 -0.16352831852E+04  0.18872998960E+04  0.89420545258E+03 0.  0.
         23    2    4    4    0    0 -0.11037329101E+03 -0.14317613341E+03  0.38514828483E+02  0.20595500360E+03  0.90842737453E+02 0.  0.
         23    2    4    4    0    0 -0.12380530175E+03 -0.39325364660E+02 -0.16737980137E+04  0.16813448924E+04  0.91905491866E+02 0.  0.
          1    1    3    3  502    0  0.17583910387E+03  0.11938686599E+03 -0.48302008059E+03  0.52771300200E+03  0.00000000000E+00 0. -1.
         -1    1    3    3    0  502  0.58339488887E+02  0.63114632072E+02 -0.11313452279E+03  0.14207875630E+03  0.00000000000E+00 0.  1.
         11    1    5    5    0    0 -0.10756472846E+03 -0.82519904737E+02  0.29888225022E+01  0.13560471433E+03  0.00000000000E+00 0.  1.
        -11    1    5    5    0    0 -0.28085625502E+01 -0.60656228670E+02  0.35526005980E+02  0.70350289274E+02  0.00000000000E+00 0. -1.
          4    1    6    6  503    0  0.37096713307E+01 -0.29404584197E+02 -0.41841818006E+03  0.41946652386E+03  0.00000000000E+00 0.  1.
         -4    1    6    6    0  503 -0.12751497308E+03 -0.99207804632E+01 -0.12553798336E+04  0.12618783685E+04  0.00000000000E+00 0. -1.
<mgrwt>
<rscale>  0 0.12487606E+04</rscale>
<asrwt>0</asrwt>
<pdfrwt beam="1">  1        2 0.36834839E+00 0.12487606E+04</pdfrwt>
<pdfrwt beam="2">  1       -2 0.25050300E-01 0.12487606E+04</pdfrwt>
<totfact> 0.56561425E+01</totfact>
</mgrwt>
</event>
<event>
12    2  0.8147979E-008  0.3963817E+04  0.7818608E-02  0.8011886E-01
          1   -1    0    0  501    0  0.00000000000E+00  0.00000000000E+00  0.12426380732E+04  0.12426380732E+04  0.00000000000E+00 0. -1.
         -1   -1    0    0    0  501 -0.00000000000E+00 -0.00000000000E+00 -0.31609858382E+04  0.31609858382E+04  0.00000000000E+00 0.  1.
         23    2    1    2    0    0  0.22551521318E+03  0.18434795296E+04 -0.12267646556E+04  0.22275844976E+04  0.88922923761E+02 0.  0.
        254    2    1    2    0    0 -0.22551521318E+03 -0.18434795296E+04 -0.69158310938E+03  0.21760394139E+04  0.89865813647E+03 0.  0.
         23    2    4    4    0    0 -0.42272557084E+03 -0.56343792459E+03 -0.11427654795E+02  0.71030896693E+03  0.90824193335E+02 0.  0.
         23    2    4    4    0    0  0.19721035766E+03 -0.12800416050E+04 -0.68015545459E+03  0.14657304469E+04  0.91410420995E+02 0.  0.
          4    1    3    3  502    0  0.15862382622E+03  0.94112040158E+03 -0.61708212325E+03  0.11365119776E+04  0.00000000000E+00 0. -1.
         -4    1    3    3    0  502  0.66891386964E+02  0.90235912799E+03 -0.60968253236E+03  0.10910725199E+04  0.00000000000E+00 0.  1.
         11    1    5    5    0    0 -0.26001550978E+03 -0.38487902198E+03  0.28970395752E+02  0.46538071589E+03  0.00000000000E+00 0. -1.
        -11    1    5    5    0    0 -0.16271006105E+03 -0.17855890261E+03 -0.40398050548E+02  0.24492825104E+03  0.00000000000E+00 0.  1.
          3    1    6    6  503    0  0.56718902257E+01 -0.90554080939E+02 -0.73715389174E+02  0.11690239739E+03  0.00000000000E+00 0. -1.
         -3    1    6    6    0  503  0.19153846743E+03 -0.11894875240E+04 -0.60644006541E+03  0.13488280496E+04  0.00000000000E+00 0.  1.
<mgrwt>
<rscale>  0 0.39638170E+04</rscale>
<asrwt>0</asrwt>
<pdfrwt beam="1">  1        1 0.19117509E+00 0.39638170E+04</pdfrwt>
<pdfrwt beam="2">  1       -1 0.48630551E+00 0.39638170E+04</pdfrwt>
<totfact> 0.14321280E-02</totfact>
</mgrwt>
</event>
<event>
12    2  0.8147979E-008  0.2256815E+04  0.7818608E-02  0.8495146E-01
          1   -1    0    0  501    0  0.00000000000E+00  0.00000000000E+00  0.88035894542E+03  0.88035894542E+03  0.00000000000E+00 0. -1.
         -1   -1    0    0    0  501 -0.00000000000E+00 -0.00000000000E+00 -0.14463452660E+04  0.14463452660E+04  0.00000000000E+00 0.  1.
         23    2    1    2    0    0  0.58970131899E+02  0.62477907398E+03  0.49183142578E+03  0.80258924419E+03  0.91787666697E+02 0.  0.
        254    2    1    2    0    0 -0.58970131899E+02 -0.62477907398E+03 -0.10578177464E+04  0.15241149672E+04  0.90006759806E+03 0.  0.
         23    2    4    4    0    0  0.19796599867E+03  0.18344783400E+02 -0.70877713058E+03  0.74330480808E+03  0.10300460751E+03 0.  0.
         23    2    4    4    0    0 -0.25693613057E+03 -0.64312385738E+03 -0.34904061578E+03  0.78081015915E+03  0.90612813930E+02 0.  0.
          1    1    3    3  502    0  0.22707509010E+02  0.11083287868E+03  0.13359384789E+03  0.17506248643E+03  0.00000000000E+00 0. -1.
         -1    1    3    3    0  502  0.36262622889E+02  0.51394619530E+03  0.35823757789E+03  0.62752675775E+03  0.00000000000E+00 0.  1.
         11    1    5    5    0    0 -0.15136201117E+01 -0.96822181246E+01 -0.44957517174E+01  0.10781844794E+02  0.00000000000E+00 0. -1.
        -11    1    5    5    0    0  0.19947961878E+03  0.28027001525E+02 -0.70428137887E+03  0.73252296329E+03  0.00000000000E+00 0.  1.
          4    1    6    6  503    0 -0.51825772774E+02 -0.14303801746E+03 -0.36553526544E+02  0.15646707470E+03  0.00000000000E+00 0. -1.
         -4    1    6    6    0  503 -0.20511035779E+03 -0.50008583992E+03 -0.31248708924E+03  0.62434308445E+03  0.00000000000E+00 0.  1.
<mgrwt>
<rscale>  0 0.22568146E+04</rscale>
<asrwt>0</asrwt>
<pdfrwt beam="1">  1        1 0.13543984E+00 0.22568146E+04</pdfrwt>
<pdfrwt beam="2">  1       -1 0.22251466E+00 0.22568146E+04</pdfrwt>
<totfact> 0.18141060E+00</totfact>
</mgrwt>
</event>
<event>
12    2  0.8147979E-008  0.1112966E+04  0.7818608E-02  0.9192645E-01
          2   -1    0    0  501    0  0.00000000000E+00  0.00000000000E+00  0.41116748747E+04  0.41116748747E+04  0.00000000000E+00 0. -1.
         -2   -1    0    0    0  501 -0.00000000000E+00 -0.00000000000E+00 -0.75315659491E+02  0.75315659491E+02  0.00000000000E+00 0.  1.
         23    2    1    2    0    0 -0.11866568139E+03  0.64813937424E+02  0.30755423146E+03  0.34811641274E+03  0.91175880078E+02 0.  0.
        254    2    1    2    0    0  0.11866568139E+03 -0.64813937424E+02  0.37288049838E+04  0.38388741215E+04  0.90259931479E+03 0.  0.
         23    2    4    4    0    0  0.20942414460E+03  0.22804669618E+03  0.32335021136E+04  0.32495282609E+04  0.89633876688E+02 0.  0.
         23    2    4    4    0    0 -0.90758463211E+02 -0.29286063360E+03  0.49530287017E+03  0.58934586056E+03  0.89438027686E+02 0.  0.
          3    1    3    3  502    0 -0.11453261363E+03  0.22730237499E+02  0.18806857607E+03  0.22136886092E+03  0.00000000000E+00 0. -1.
         -3    1    3    3    0  502 -0.41330677631E+01  0.42083699925E+02  0.11948565539E+03  0.12674755182E+03  0.00000000000E+00 0.  1.
         11    1    5    5    0    0  0.74130534833E+01  0.88112169856E-01  0.15918852941E+02  0.17560495570E+02  0.00000000000E+00 0. -1.
        -11    1    5    5    0    0  0.20201109112E+03  0.22795858401E+03  0.32175832606E+04  0.32319677653E+04  0.00000000000E+00 0.  1.
          1    1    6    6  503    0 -0.29631498392E+02 -0.82052783028E+02  0.74423975279E+02  0.11467176198E+03  0.00000000000E+00 0. -1.
         -1    1    6    6    0  503 -0.61126964819E+02 -0.21080785057E+03  0.42087889489E+03  0.47467409857E+03  0.00000000000E+00 0.  1.
<mgrwt>
<rscale>  0 0.11129663E+04</rscale>
<asrwt>0</asrwt>
<pdfrwt beam="1">  1        2 0.63256519E+00 0.11129663E+04</pdfrwt>
<pdfrwt beam="2">  1       -2 0.11587028E-01 0.11129663E+04</pdfrwt>
<totfact> 0.15613797E+01</totfact>
</mgrwt>
</event>
<event>
12    2  0.8147979E-008  0.1289721E+04  0.7818608E-02  0.9037756E-01
         -2   -1    0    0    0  501 -0.00000000000E+00  0.00000000000E+00  0.58258530161E+03  0.58258530161E+03  0.00000000000E+00 0.  1.
          2   -1    0    0  501    0  0.00000000000E+00 -0.00000000000E+00 -0.71379297900E+03  0.71379297900E+03  0.00000000000E+00 0. -1.
         23    2    1    2    0    0  0.12599044683E+03  0.58478220576E+02 -0.32823742752E+03  0.36773273356E+03  0.90522149430E+02 0.  0.
        254    2    1    2    0    0 -0.12599044683E+03 -0.58478220576E+02  0.19702975012E+03  0.92864554705E+03  0.89681019990E+03 0.  0.
         23    2    4    4    0    0 -0.31170556959E+03  0.21418541811E+03  0.37730650709E+03  0.54201111547E+03  0.91542850963E+02 0.  0.
         23    2    4    4    0    0  0.18571512276E+03 -0.27266363868E+03 -0.18027675696E+03  0.38663443158E+03  0.90282378688E+02 0.  0.
          4    1    3    3  502    0  0.12528271162E+03  0.65733711873E+02 -0.33097478452E+03  0.35994581078E+03  0.00000000000E+00 0. -1.
         -4    1    3    3    0  502  0.70773520913E+00 -0.72554912966E+01  0.27373570058E+01  0.77869227849E+01  0.00000000000E+00 0.  1.
         11    1    5    5    0    0 -0.29527076401E+03  0.16917906854E+03  0.34227036751E+03  0.48265452012E+03  0.00000000000E+00 0. -1.
        -11    1    5    5    0    0 -0.16434805577E+02  0.45006349569E+02  0.35036139573E+02  0.59356595355E+02  0.00000000000E+00 0.  1.
          1    1    6    6  503    0  0.13198464768E+03 -0.13136309038E+03 -0.67660810140E+02  0.19812671190E+03  0.00000000000E+00 0. -1.
         -1    1    6    6    0  503  0.53730475081E+02 -0.14130054830E+03 -0.11261594682E+03  0.18850771968E+03  0.00000000000E+00 0.  1.
<mgrwt>
<rscale>  0 0.12897214E+04</rscale>
<asrwt>0</asrwt>
<pdfrwt beam="1">  1        2 0.10981431E+00 0.12897214E+04</pdfrwt>
<pdfrwt beam="2">  1       -2 0.89628507E-01 0.12897214E+04</pdfrwt>
<totfact> 0.41844205E+01</totfact>
</mgrwt>
</event>
<event>
12    2  0.8147979E-008  0.3355183E+04  0.7818608E-02  0.8148994E-01
         -3   -1    0    0    0  501 -0.00000000000E+00  0.00000000000E+00  0.25641873540E+04  0.25641873540E+04  0.00000000000E+00 0.  1.
          3   -1    0    0  501    0  0.00000000000E+00 -0.00000000000E+00 -0.10975459897E+04  0.10975459897E+04  0.00000000000E+00 0. -1.
         23    2    1    2    0    0  0.61931487347E+03 -0.14001151414E+04  0.38621633290E+03  0.15815610362E+04  0.91098483122E+02 0.  0.
        254    2    1    2    0    0 -0.61931487347E+03  0.14001151414E+04  0.10804250314E+04  0.20801723076E+04  0.90328581253E+03 0.  0.
         23    2    4    4    0    0 -0.37902573931E+03  0.13860086011E+04  0.65404216826E+03  0.15813350078E+04  0.90381943979E+02 0.  0.
         23    2    4    4    0    0 -0.24028913416E+03  0.14106540359E+02  0.42638286312E+03  0.49883729978E+03  0.95385760046E+02 0.  0.
          1    1    3    3  502    0  0.44056565595E+03 -0.94184893644E+03  0.22440259316E+03  0.10637358883E+04  0.00000000000E+00 0. -1.
         -1    1    3    3    0  502  0.17874921753E+03 -0.45826620498E+03  0.16181373974E+03  0.51782514786E+03  0.00000000000E+00 0.  1.
         11    1    5    5    0    0 -0.33204702294E+03  0.12274770292E+04  0.54627267336E+03  0.13839685388E+04  0.00000000000E+00 0.  1.
        -11    1    5    5    0    0 -0.46978716377E+02  0.15853157182E+03  0.10776949490E+03  0.19736646901E+03  0.00000000000E+00 0. -1.
          1    1    6    6  503    0 -0.11665166302E+03 -0.34130743536E+02  0.15710727792E+03  0.19863336808E+03  0.00000000000E+00 0. -1.
         -1    1    6    6    0  503 -0.12363747114E+03  0.48237283895E+02  0.26927558519E+03  0.30020393170E+03  0.00000000000E+00 0.  1.
<mgrwt>
<rscale>  0 0.33551832E+04</rscale>
<asrwt>0</asrwt>
<pdfrwt beam="1">  1        3 0.16885323E+00 0.33551832E+04</pdfrwt>
<pdfrwt beam="2">  1       -3 0.39449036E+00 0.33551832E+04</pdfrwt>
<totfact> 0.57720696E-03</totfact>
</mgrwt>
</event>
<event>
12    2  0.8147979E-008  0.1476682E+04  0.7818608E-02  0.8900109E-01
         -1   -1    0    0    0  501 -0.00000000000E+00  0.00000000000E+00  0.71239760596E+03  0.71239760596E+03  0.00000000000E+00 0.  1.
          1   -1    0    0  501    0  0.00000000000E+00 -0.00000000000E+00 -0.76522878645E+03  0.76522878645E+03  0.00000000000E+00 0. -1.
         23    2    1    2    0    0 -0.19818951727E+03  0.38637077959E+03  0.12572929069E+03  0.46133940183E+03  0.92003940481E+02 0.  0.
        254    2    1    2    0    0  0.19818951727E+03 -0.38637077959E+03 -0.17856047119E+03  0.10162869906E+04  0.90132898615E+03 0.  0.
         23    2    4    4    0    0  0.50415666197E+03 -0.79501154378E+02 -0.23866775029E+03  0.56988842429E+03  0.85534482797E+02 0.  0.
         23    2    4    4    0    0 -0.30596714470E+03 -0.30686962521E+03  0.60107279103E+02  0.44639856629E+03  0.88735192989E+02 0.  0.
          1    1    3    3  502    0 -0.11018415992E+03  0.12118757945E+03  0.34174461147E+02  0.16731668268E+03  0.00000000000E+00 0. -1.
         -1    1    3    3    0  502 -0.88005357351E+02  0.26518320014E+03  0.91554829547E+02  0.29402271914E+03  0.00000000000E+00 0.  1.
         11    1    5    5    0    0  0.23435835785E+03 -0.20540244415E+02 -0.66591594727E+02  0.24449986099E+03  0.00000000000E+00 0. -1.
        -11    1    5    5    0    0  0.26979830412E+03 -0.58960909963E+02 -0.17207615557E+03  0.32538856330E+03  0.00000000000E+00 0.  1.
          4    1    6    6  503    0 -0.25281391904E+03 -0.21049911684E+03  0.21166355450E+02  0.32965553303E+03  0.00000000000E+00 0. -1.
         -4    1    6    6    0  503 -0.53153225657E+02 -0.96370508367E+02  0.38940923653E+02  0.11674303326E+03  0.00000000000E+00 0.  1.
<mgrwt>
<rscale>  0 0.14766816E+04</rscale>
<asrwt>0</asrwt>
<pdfrwt beam="1">  1        1 0.11772751E+00 0.14766816E+04</pdfrwt>
<pdfrwt beam="2">  1       -1 0.10959963E+00 0.14766816E+04</pdfrwt>
<totfact> 0.17711723E+01</totfact>
</mgrwt>
</event>
<event>
12    2  0.8147979E-008  0.2189331E+04  0.7818608E-02  0.8522882E-01
         -1   -1    0    0    0  501 -0.00000000000E+00  0.00000000000E+00  0.76726140617E+03  0.76726140617E+03  0.00000000000E+00 0.  1.
          1   -1    0    0  501    0  0.00000000000E+00 -0.00000000000E+00 -0.15617784468E+04  0.15617784468E+04  0.00000000000E+00 0. -1.
         23    2    1    2    0    0  0.64941426622E+03 -0.27029651734E+03  0.27442634152E+03  0.76043518086E+03  0.90292585031E+02 0.  0.
        254    2    1    2    0    0 -0.64941426622E+03  0.27029651734E+03 -0.10689433821E+04  0.15686046721E+04  0.90723842878E+03 0.  0.
         23    2    4    4    0    0 -0.81936214949E+03  0.38639449851E+03 -0.75588760208E+03  0.11835075615E+04  0.93107682870E+02 0.  0.
         23    2    4    4    0    0  0.16994788327E+03 -0.11609798117E+03 -0.31305578004E+03  0.38509711060E+03  0.89077712810E+02 0.  0.
          3    1    3    3  502    0  0.16014842815E+03 -0.62483460981E+02  0.26671453954E+02  0.17396283623E+03  0.00000000000E+00 0.  1.
         -3    1    3    3    0  502  0.48926583807E+03 -0.20781305636E+03  0.24775488756E+03  0.58647234462E+03  0.00000000000E+00 0. -1.
         11    1    5    5    0    0 -0.66853862351E+03  0.27431535411E+03 -0.60807893638E+03  0.94443252670E+03  0.00000000000E+00 0. -1.
        -11    1    5    5    0    0 -0.15082352598E+03  0.11207914440E+03 -0.14780866570E+03  0.23907503478E+03  0.00000000000E+00 0.  1.
          3    1    6    6  503    0  0.10806238225E+03 -0.28965338476E+02 -0.20236974541E+03  0.23123577393E+03  0.00000000000E+00 0. -1.
         -3    1    6    6    0  503  0.61885501019E+02 -0.87132642691E+02 -0.11068603463E+03  0.15386133667E+03  0.00000000000E+00 0.  1.
<mgrwt>
<rscale>  0 0.21893308E+04</rscale>
<asrwt>0</asrwt>
<pdfrwt beam="1">  1        1 0.24027360E+00 0.21893308E+04</pdfrwt>
<pdfrwt beam="2">  1       -1 0.11804022E+00 0.21893308E+04</pdfrwt>
<totfact> 0.34868887E+00</totfact>
</mgrwt>
</event>
<event>
12    2  0.8147979E-008  0.4367203E+04  0.7818608E-02  0.7934307E-01
         -1   -1    0    0    0  501 -0.00000000000E+00  0.00000000000E+00  0.23826669956E+04  0.23826669956E+04  0.00000000000E+00 0.  1.
          1   -1    0    0  501    0  0.00000000000E+00 -0.00000000000E+00 -0.20011672162E+04  0.20011672162E+04  0.00000000000E+00 0. -1.
         23    2    1    2    0    0  0.15046942183E+02  0.17721844071E+04 -0.92860692686E+03  0.20027466852E+04  0.88427806822E+02 0.  0.
        254    2    1    2    0    0 -0.15046942183E+02 -0.17721844071E+04  0.13101067063E+04  0.23810875266E+04  0.90129586940E+03 0.  0.
         23    2    4    4    0    0  0.12222003516E+03  0.48622587381E+02  0.10302697563E+03  0.19013606809E+03  0.90748408710E+02 0.  0.
         23    2    4    4    0    0 -0.13726697735E+03 -0.18208069945E+04  0.12070797307E+04  0.21909514585E+04  0.95113001811E+02 0.  0.
          3    1    3    3  502    0  0.33751011966E+01  0.14089810321E+04 -0.69843879162E+03  0.15725952073E+04  0.00000000000E+00 0. -1.
         -3    1    3    3    0  502  0.11671840987E+02  0.36320337496E+03 -0.23016813523E+03  0.43015147789E+03  0.00000000000E+00 0.  1.
         11    1    5    5    0    0  0.17904714586E+02 -0.18094267050E+02  0.48628288141E+02  0.54887992421E+02  0.00000000000E+00 0.  1.
        -11    1    5    5    0    0  0.10431532058E+03  0.66716854431E+02  0.54398687491E+02  0.13524807567E+03  0.00000000000E+00 0. -1.
          1    1    6    6  503    0 -0.15032816363E+03 -0.16630202342E+04  0.11139330056E+04  0.20072572324E+04  0.00000000000E+00 0. -1.
         -1    1    6    6    0  503  0.13061186283E+02 -0.15778676024E+03  0.93146725115E+02  0.18369422608E+03  0.00000000000E+00 0.  1.
<mgrwt>
<rscale>  0 0.43672028E+04</rscale>
<asrwt>0</asrwt>
<pdfrwt beam="1">  1        1 0.30787188E+00 0.43672028E+04</pdfrwt>
<pdfrwt beam="2">  1       -1 0.36656415E+00 0.43672028E+04</pdfrwt>
<totfact> 0.27216923E-02</totfact>
</mgrwt>
</event>
<event>
12    2  0.8147979E-008  0.2631976E+04  0.7818608E-02  0.8357420E-01
         -2   -1    0    0    0  501 -0.00000000000E+00  0.00000000000E+00  0.21942142982E+04  0.21942142982E+04  0.00000000000E+00 0.  1.
          2   -1    0    0  501    0  0.00000000000E+00 -0.00000000000E+00 -0.78926855135E+03  0.78926855135E+03  0.00000000000E+00 0. -1.
         23    2    1    2    0    0  0.54348130063E+03  0.53028422539E+03 -0.37247959605E+03  0.85115627995E+03  0.95669637697E+02 0.  0.
        254    2    1    2    0    0 -0.54348130063E+03 -0.53028422539E+03  0.17774253429E+04  0.21323265696E+04  0.90055675335E+03 0.  0.
         23    2    4    4    0    0 -0.18531349000E+03  0.74953982853E+02  0.22854353616E+01  0.22081608950E+03  0.93783436949E+02 0.  0.
         23    2    4    4    0    0 -0.35816781063E+03 -0.60523820825E+03  0.17751399075E+04  0.19115104801E+04  0.90294822092E+02 0.  0.
          4    1    3    3  502    0  0.31210305912E+03  0.25923421170E+03 -0.23716664559E+03  0.46995607647E+03  0.00000000000E+00 0. -1.
         -4    1    3    3    0  502  0.23137824151E+03  0.27105001370E+03 -0.13531295046E+03  0.38120020348E+03  0.00000000000E+00 0.  1.
         11    1    5    5    0    0 -0.19560236909E+03  0.68346728063E+02 -0.36334159483E+01  0.20723118429E+03  0.00000000000E+00 0. -1.
        -11    1    5    5    0    0  0.10288879089E+02  0.66072547906E+01  0.59188513099E+01  0.13584905212E+02  0.00000000000E+00 0.  1.
          3    1    6    6  503    0 -0.28314559008E+03 -0.50896286649E+03  0.13777016919E+04  0.14957528460E+04  0.00000000000E+00 0. -1.
         -3    1    6    6    0  503 -0.75022220556E+02 -0.96275341760E+02  0.39743821566E+03  0.41575763406E+03  0.00000000000E+00 0.  1.
<mgrwt>
<rscale>  0 0.26319759E+04</rscale>
<asrwt>0</asrwt>
<pdfrwt beam="1">  1        2 0.12142593E+00 0.26319759E+04</pdfrwt>
<pdfrwt beam="2">  1       -2 0.33757143E+00 0.26319759E+04</pdfrwt>
<totfact> 0.57624938E-01</totfact>
</mgrwt>
</event>
<event>
12    2  0.8147979E-008  0.2042675E+04  0.7818608E-02  0.8586925E-01
         -1   -1    0    0    0  501 -0.00000000000E+00  0.00000000000E+00  0.15310645940E+04  0.15310645940E+04  0.00000000000E+00 0.  1.
          1   -1    0    0  501    0  0.00000000000E+00 -0.00000000000E+00 -0.68131057179E+03  0.68131057179E+03  0.00000000000E+00 0. -1.
         23    2    1    2    0    0 -0.60018609448E+03  0.25756947852E+03 -0.19478157018E+03  0.68739315534E+03  0.89465667465E+02 0.  0.
        254    2    1    2    0    0  0.60018609448E+03 -0.25756947852E+03  0.10445355924E+04  0.15249820105E+04  0.89886046980E+03 0.  0.
         23    2    4    4    0    0  0.67359544243E+03 -0.16928352214E+03  0.29378764116E+03  0.75972703355E+03  0.92120879734E+02 0.  0.
         23    2    4    4    0    0 -0.73409347946E+02 -0.88285956379E+02  0.75074795122E+03  0.76525497690E+03  0.93858142683E+02 0.  0.
          1    1    3    3  502    0 -0.36885364967E+03  0.14467594485E+03 -0.16141336111E+03  0.42782989264E+03  0.00000000000E+00 0. -1.
         -1    1    3    3    0  502 -0.23133244481E+03  0.11289353367E+03 -0.33368209070E+02  0.25956326270E+03  0.00000000000E+00 0.  1.
         11    1    5    5    0    0  0.11944541410E+03 -0.48498555018E+02  0.89319650993E+02  0.15683531758E+03  0.00000000000E+00 0.  1.
        -11    1    5    5    0    0  0.55415002833E+03 -0.12078496713E+03  0.20446799017E+03  0.60289171597E+03  0.00000000000E+00 0. -1.
          3    1    6    6  503    0 -0.56318385032E+02 -0.10167825963E+03  0.70615055246E+03  0.71565273123E+03  0.00000000000E+00 0. -1.
         -3    1    6    6    0  503 -0.17090962913E+02  0.13392303247E+02  0.44597398765E+02  0.49602245676E+02  0.00000000000E+00 0.  1.
<mgrwt>
<rscale>  0 0.20426752E+04</rscale>
<asrwt>0</asrwt>
<pdfrwt beam="1">  1        1 0.10481701E+00 0.20426752E+04</pdfrwt>
<pdfrwt beam="2">  1       -1 0.23554840E+00 0.20426752E+04</pdfrwt>
<totfact> 0.22753502E+00</totfact>
</mgrwt>
</event>
<event>
12    2  0.8147979E-008  0.2292581E+04  0.7818608E-02  0.8480852E-01
         -2   -1    0    0    0  501 -0.00000000000E+00  0.00000000000E+00  0.11715156578E+04  0.11715156578E+04  0.00000000000E+00 0.  1.
          2   -1    0    0  501    0  0.00000000000E+00 -0.00000000000E+00 -0.11216087976E+04  0.11216087976E+04  0.00000000000E+00 0. -1.
         23    2    1    2    0    0 -0.25272434825E+03 -0.81199552536E+03  0.48199300516E+03  0.98185561372E+03  0.92286834224E+02 0.  0.
        254    2    1    2    0    0  0.25272434825E+03  0.81199552536E+03 -0.43208614498E+03  0.13112688417E+04  0.89973396572E+03 0.  0.
         23    2    4    4    0    0 -0.27208877371E+03  0.11538247441E+03  0.45271038682E+02  0.31272955985E+03  0.91678211598E+02 0.  0.
         23    2    4    4    0    0  0.52481312196E+03  0.69661305095E+03 -0.47735718366E+03  0.99853928183E+03  0.92261914239E+02 0.  0.
          3    1    3    3  502    0 -0.82306863680E+02 -0.15032492487E+03  0.80320553450E+02  0.18927069016E+03  0.00000000000E+00 0. -1.
         -3    1    3    3    0  502 -0.17041748457E+03 -0.66167060049E+03  0.40167245171E+03  0.79258492356E+03  0.00000000000E+00 0.  1.
         11    1    5    5    0    0 -0.19332907760E+02 -0.15521575836E+02  0.35472050140E+01  0.25045225140E+02  0.00000000000E+00 0.  1.
        -11    1    5    5    0    0 -0.25275586595E+03  0.13090405025E+03  0.41723833668E+02  0.28768433471E+03  0.00000000000E+00 0. -1.
          2    1    6    6  503    0  0.45051621259E+03  0.63458015396E+03 -0.44501036278E+03  0.89648817761E+03  0.00000000000E+00 0. -1.
         -2    1    6    6    0  503  0.74296909371E+02  0.62032896987E+02 -0.32346820880E+02  0.10205110422E+03  0.00000000000E+00 0.  1.
<mgrwt>
<rscale>  0 0.22925813E+04</rscale>
<asrwt>0</asrwt>
<pdfrwt beam="1">  1        2 0.17255520E+00 0.22925813E+04</pdfrwt>
<pdfrwt beam="2">  1       -2 0.18023318E+00 0.22925813E+04</pdfrwt>
<totfact> 0.34624635E+00</totfact>
</mgrwt>
</event>
<event>
12    2  0.8147979E-008  0.2160163E+04  0.7818608E-02  0.8535194E-01
          2   -1    0    0  501    0  0.00000000000E+00  0.00000000000E+00  0.25358759952E+04  0.25358759952E+04  0.00000000000E+00 0. -1.
         -2   -1    0    0    0  501 -0.00000000000E+00 -0.00000000000E+00 -0.46002888851E+03  0.46002888851E+03  0.00000000000E+00 0.  1.
         23    2    1    2    0    0  0.28835271504E+03 -0.80369117346E+03  0.12160815915E+04  0.14886866972E+04  0.90922244575E+02 0.  0.
        254    2    1    2    0    0 -0.28835271504E+03  0.80369117346E+03  0.85976551520E+03  0.15072181866E+04  0.89634989273E+03 0.  0.
         23    2    4    4    0    0  0.47343137304E+02  0.68725993163E+03  0.15443050746E+03  0.71224211088E+03  0.94193718525E+02 0.  0.
         23    2    4    4    0    0 -0.33569585235E+03  0.11643124184E+03  0.70533500775E+03  0.79497607568E+03  0.90782974149E+02 0.  0.
          4    1    3    3  502    0  0.18449419525E+03 -0.56667071844E+03  0.91133848445E+03  0.10888946893E+04  0.00000000000E+00 0. -1.
         -4    1    3    3    0  502  0.10385851980E+03 -0.23702045502E+03  0.30474310706E+03  0.39979200783E+03  0.00000000000E+00 0.  1.
         11    1    5    5    0    0  0.66974550150E+02  0.64725604830E+03  0.14601895042E+03  0.66689393182E+03  0.00000000000E+00 0.  1.
        -11    1    5    5    0    0 -0.19631412847E+02  0.40003883329E+02  0.84115570431E+01  0.45348179056E+02  0.00000000000E+00 0. -1.
          2    1    6    6  503    0 -0.10557611044E+03  0.66547758456E+02  0.31896016189E+03  0.34250621034E+03  0.00000000000E+00 0. -1.
         -2    1    6    6    0  503 -0.23011974190E+03  0.49883483380E+02  0.38637484586E+03  0.45246986534E+03  0.00000000000E+00 0.  1.
<mgrwt>
<rscale>  0 0.21601632E+04</rscale>
<asrwt>0</asrwt>
<pdfrwt beam="1">  1        2 0.39013476E+00 0.21601632E+04</pdfrwt>
<pdfrwt beam="2">  1       -2 0.70773677E-01 0.21601632E+04</pdfrwt>
<totfact> 0.55227456E+00</totfact>
</mgrwt>
</event>
<event>
12    2  0.8147979E-008  0.1149252E+04  0.7818608E-02  0.9158473E-01
          2   -1    0    0  501    0  0.00000000000E+00  0.00000000000E+00  0.88170656343E+03  0.88170656343E+03  0.00000000000E+00 0. -1.
         -2   -1    0    0    0  501 -0.00000000000E+00 -0.00000000000E+00 -0.37449564981E+03  0.37449564981E+03  0.00000000000E+00 0.  1.
         23    2    1    2    0    0  0.64635467335E+02 -0.20167735878E+03  0.11231043955E+03  0.25575272671E+03  0.89130924530E+02 0.  0.
        254    2    1    2    0    0 -0.64635467335E+02  0.20167735878E+03  0.39490047407E+03  0.10004494865E+04  0.89448381204E+03 0.  0.
         23    2    4    4    0    0  0.40005844080E+02  0.98146149229E+02  0.66426235854E+03  0.68026200307E+03  0.10138430683E+03 0.  0.
         23    2    4    4    0    0 -0.10464131142E+03  0.10353120955E+03 -0.26936188447E+03  0.32018748346E+03  0.91080647540E+02 0.  0.
          3    1    3    3  502    0 -0.12606952463E+02 -0.12273028577E+02  0.30980262713E+02  0.35627786327E+02  0.00000000000E+00 0. -1.
         -3    1    3    3    0  502  0.77242419798E+02 -0.18940433020E+03  0.81330176836E+02  0.22012494038E+03  0.00000000000E+00 0.  1.
         11    1    5    5    0    0 -0.25735983565E+02  0.64997139821E+02  0.25394998080E+03  0.26339620685E+03  0.00000000000E+00 0.  1.
        -11    1    5    5    0    0  0.65741827645E+02  0.33149009408E+02  0.41031237774E+03  0.41686579622E+03  0.00000000000E+00 0. -1.
          3    1    6    6  503    0 -0.96830836141E+02  0.10252361403E+03 -0.27596545089E+03  0.30991003912E+03  0.00000000000E+00 0. -1.
         -3    1    6    6    0  503 -0.78104752744E+01  0.10075955129E+01  0.66035664212E+01  0.10277444342E+02  0.00000000000E+00 0.  1.
<mgrwt>
<rscale>  0 0.11492524E+04</rscale>
<asrwt>0</asrwt>
<pdfrwt beam="1">  1        2 0.13564716E+00 0.11492524E+04</pdfrwt>
<pdfrwt beam="2">  1       -2 0.57614716E-01 0.11492524E+04</pdfrwt>
<totfact> 0.84288077E+01</totfact>
</mgrwt>
</event>
<event>
12    2  0.8147979E-008  0.1568959E+04  0.7818608E-02  0.8839848E-01
         -2   -1    0    0    0  501 -0.00000000000E+00  0.00000000000E+00  0.30259659688E+03  0.30259659688E+03  0.00000000000E+00 0.  1.
          2   -1    0    0  501    0  0.00000000000E+00 -0.00000000000E+00 -0.20337573292E+04  0.20337573292E+04  0.00000000000E+00 0. -1.
         23    2    1    2    0    0  0.27542564812E+03  0.33760041137E+03 -0.10495388389E+04  0.11400606093E+04  0.91504607323E+02 0.  0.
        254    2    1    2    0    0 -0.27542564812E+03 -0.33760041137E+03 -0.68162189350E+03  0.11962933168E+04  0.88129221534E+03 0.  0.
         23    2    4    4    0    0 -0.45903435995E+02 -0.22379272100E+03  0.17213786640E+03  0.30015807837E+03  0.90956690540E+02 0.  0.
         23    2    4    4    0    0 -0.22952221212E+03 -0.11380769037E+03 -0.85375975990E+03  0.89613523846E+03  0.92303855491E+02 0.  0.
          1    1    3    3  502    0  0.26677682876E+03  0.33072679330E+03 -0.10450588990E+04  0.11281392602E+04  0.00000000000E+00 0. -1.
         -1    1    3    3    0  502  0.86488193611E+01  0.68736180703E+01 -0.44799398941E+01  0.11921349050E+02  0.00000000000E+00 0.  1.
         11    1    5    5    0    0 -0.72810267494E+02 -0.15059826500E+03  0.10720782281E+03  0.19868238408E+03  0.00000000000E+00 0.  1.
        -11    1    5    5    0    0  0.26906831499E+02 -0.73194456005E+02  0.64930043598E+02  0.10147569430E+03  0.00000000000E+00 0. -1.
          1    1    6    6  503    0 -0.13671018561E+03 -0.73382670374E+02 -0.35852544698E+03  0.39065993817E+03  0.00000000000E+00 0. -1.
         -1    1    6    6    0  503 -0.92812026519E+02 -0.40425019993E+02 -0.49523431292E+03  0.50547530029E+03  0.00000000000E+00 0.  1.
<mgrwt>
<rscale>  0 0.15689590E+04</rscale>
<asrwt>0</asrwt>
<pdfrwt beam="1">  1        2 0.31288572E+00 0.15689590E+04</pdfrwt>
<pdfrwt beam="2">  1       -2 0.46553326E-01 0.15689590E+04</pdfrwt>
<totfact> 0.26911887E+01</totfact>
</mgrwt>
</event>
<event>
12    2  0.8147979E-008  0.1577098E+04  0.7818608E-02  0.8834742E-01
         -1   -1    0    0    0  501 -0.00000000000E+00  0.00000000000E+00  0.26242117224E+04  0.26242117224E+04  0.00000000000E+00 0.  1.
          1   -1    0    0  501    0  0.00000000000E+00 -0.00000000000E+00 -0.23695095960E+03  0.23695095960E+03  0.00000000000E+00 0. -1.
         23    2    1    2    0    0 -0.35202526111E+02  0.32432906584E+03  0.15587557049E+04  0.15951766155E+04  0.91872336735E+02 0.  0.
        254    2    1    2    0    0  0.35202526111E+02 -0.32432906584E+03  0.82850505785E+03  0.12659860665E+04  0.89992862427E+03 0.  0.
         23    2    4    4    0    0  0.18105991908E+03 -0.50934876956E+03  0.85056438619E+03  0.10126406680E+04  0.98805283445E+02 0.  0.
         23    2    4    4    0    0 -0.14585739297E+03  0.18501970371E+03 -0.22059328340E+02  0.25334539848E+03  0.90501973013E+02 0.  0.
          2    1    3    3  502    0  0.25041411622E+02  0.18764983922E+03  0.90115527740E+03  0.92082591646E+03  0.00000000000E+00 0. -1.
         -2    1    3    3    0  502 -0.60243937733E+02  0.13667922663E+03  0.65760042754E+03  0.67435069906E+03  0.00000000000E+00 0.  1.
         11    1    5    5    0    0  0.12252275162E+02  0.68885365934E+00  0.19894015074E+02  0.23374443346E+02  0.00000000000E+00 0.  1.
        -11    1    5    5    0    0  0.16880764392E+03 -0.51003762321E+03  0.83067037112E+03  0.98926622463E+03  0.00000000000E+00 0. -1.
          2    1    6    6  503    0 -0.12634985564E+03  0.19268518396E+03 -0.26453137624E+02  0.23193023655E+03  0.00000000000E+00 0. -1.
         -2    1    6    6    0  503 -0.19507537333E+02 -0.76654802518E+01  0.43938092842E+01  0.21415161926E+02  0.00000000000E+00 0.  1.
<mgrwt>
<rscale>  0 0.15770979E+04</rscale>
<asrwt>0</asrwt>
<pdfrwt beam="1">  1        1 0.36453996E-01 0.15770979E+04</pdfrwt>
<pdfrwt beam="2">  1       -1 0.40372486E+00 0.15770979E+04</pdfrwt>
<totfact> 0.77777068E-01</totfact>
</mgrwt>
</event>
<event>
12    2  0.8147979E-008  0.1436977E+04  0.7818608E-02  0.8927479E-01
         -1   -1    0    0    0  501 -0.00000000000E+00  0.00000000000E+00  0.32848927424E+03  0.32848927424E+03  0.00000000000E+00 0.  1.
          1   -1    0    0  501    0  0.00000000000E+00 -0.00000000000E+00 -0.15715150043E+04  0.15715150043E+04  0.00000000000E+00 0. -1.
         23    2    1    2    0    0 -0.42634444568E+03 -0.16349520916E+02 -0.45576343082E+03  0.63085249626E+03  0.90651386998E+02 0.  0.
        254    2    1    2    0    0  0.42634444568E+03  0.16349520916E+02 -0.78726229921E+03  0.12691517823E+04  0.89940392786E+03 0.  0.
         23    2    4    4    0    0  0.57432084348E+03  0.62789635590E+02 -0.14580080873E+03  0.60292097188E+03  0.92026370778E+02 0.  0.
         23    2    4    4    0    0 -0.14797639779E+03 -0.46440114674E+02 -0.64146149048E+03  0.66623081037E+03  0.91306902080E+02 0.  0.
          1    1    3    3  502    0 -0.18023134133E+03 -0.70902843837E+01 -0.25899725123E+03  0.31561556469E+03  0.00000000000E+00 0. -1.
         -1    1    3    3    0  502 -0.24611310435E+03 -0.92592365327E+01 -0.19676617960E+03  0.31523693157E+03  0.00000000000E+00 0.  1.
         11    1    5    5    0    0  0.60693513514E+02 -0.19552957575E+02 -0.47024269320E+01  0.63938513837E+02  0.00000000000E+00 0.  1.
        -11    1    5    5    0    0  0.51362732996E+03  0.82342593165E+02 -0.14109838180E+03  0.53898245804E+03  0.00000000000E+00 0. -1.
          4    1    6    6  503    0 -0.11384853852E+03 -0.71384171188E+02 -0.42708075751E+03  0.44772219406E+03  0.00000000000E+00 0. -1.
         -4    1    6    6    0  503 -0.34127859270E+02  0.24944056515E+02 -0.21438073297E+03  0.21850861631E+03  0.00000000000E+00 0.  1.
<mgrwt>
<rscale>  0 0.14369771E+04</rscale>
<asrwt>0</asrwt>
<pdfrwt beam="1">  1        1 0.24177154E+00 0.14369771E+04</pdfrwt>
<pdfrwt beam="2">  1       -1 0.50536811E-01 0.14369771E+04</pdfrwt>
<totfact> 0.22321105E+01</totfact>
</mgrwt>
</event>
<event>
12    2  0.8147979E-008  0.1321265E+04  0.7818608E-02  0.9012870E-01
         -1   -1    0    0    0  501 -0.00000000000E+00  0.00000000000E+00  0.14320383529E+03  0.14320383529E+03  0.00000000000E+00 0.  1.
          1   -1    0    0  501    0  0.00000000000E+00 -0.00000000000E+00 -0.30476521136E+04  0.30476521136E+04  0.00000000000E+00 0. -1.
         23    2    1    2    0    0 -0.14206311039E+03  0.29622020572E+03 -0.52030033172E+03  0.62211479972E+03  0.91575385510E+02 0.  0.
        254    2    1    2    0    0  0.14206311039E+03 -0.29622020572E+03 -0.23841479466E+04  0.25687411491E+04  0.89796510101E+03 0.  0.
         23    2    4    4    0    0  0.20571210783E+03 -0.40446850676E+03 -0.51303848725E+03  0.69087594762E+03  0.90492217016E+02 0.  0.
         23    2    4    4    0    0 -0.63648997438E+02  0.10824830103E+03 -0.18711094593E+04  0.18778652015E+04  0.97766133329E+02 0.  0.
          2    1    3    3  502    0 -0.43131802914E+02  0.50729589939E+02 -0.17360863399E+03  0.18594031707E+03  0.00000000000E+00 0. -1.
         -2    1    3    3    0  502 -0.98931307475E+02  0.24549061578E+03 -0.34669169773E+03  0.43617448265E+03  0.00000000000E+00 0.  1.
         11    1    5    5    0    0  0.55211398341E+02 -0.14921871570E+03 -0.23997877162E+03  0.28793112796E+03  0.00000000000E+00 0. -1.
        -11    1    5    5    0    0  0.15050070949E+03 -0.25524979106E+03 -0.27305971563E+03  0.40294481966E+03  0.00000000000E+00 0.  1.
          3    1    6    6  503    0 -0.88956165557E+02  0.73841403043E+02 -0.12771165331E+04  0.12823386415E+04  0.00000000000E+00 0. -1.
         -3    1    6    6    0  503  0.25307168119E+02  0.34406897991E+02 -0.59399292618E+03  0.59552656006E+03  0.00000000000E+00 0.  1.
<mgrwt>
<rscale>  0 0.13212653E+04</rscale>
<asrwt>0</asrwt>
<pdfrwt beam="1">  1        1 0.46886954E+00 0.13212653E+04</pdfrwt>
<pdfrwt beam="2">  1       -1 0.22031360E-01 0.13212653E+04</pdfrwt>
<totfact> 0.94991888E+00</totfact>
</mgrwt>
</event>
<event>
12    2  0.8147979E-008  0.1090250E+04  0.7818608E-02  0.9214748E-01
          1   -1    0    0  501    0  0.00000000000E+00  0.00000000000E+00  0.69810504814E+03  0.69810504814E+03  0.00000000000E+00 0. -1.
         -1   -1    0    0    0  501 -0.00000000000E+00 -0.00000000000E+00 -0.42566820605E+03  0.42566820605E+03  0.00000000000E+00 0.  1.
         23    2    1    2    0    0  0.78477497591E+02 -0.13279628836E+02  0.14429790464E+03  0.20595703598E+03  0.12353683343E+03 0.  0.
        254    2    1    2    0    0 -0.78477497591E+02  0.13279628836E+02  0.12813893744E+03  0.91781621821E+03  0.90533527323E+03 0.  0.
         23    2    4    4    0    0  0.22980604410E+03  0.35154093094E+03 -0.12803187698E+02  0.43016249300E+03  0.92108657235E+02 0.  0.
         23    2    4    4    0    0 -0.30828354169E+03 -0.33826130211E+03  0.14094212514E+03  0.48765372521E+03  0.92097896242E+02 0.  0.
          1    1    3    3  502    0  0.79007444511E+02 -0.60258937139E+02  0.10651907920E+03  0.14566959198E+03  0.00000000000E+00 0. -1.
         -1    1    3    3    0  502 -0.52994692001E+00  0.46979308303E+02  0.37778825438E+02  0.60287443999E+02  0.00000000000E+00 0.  1.
         11    1    5    5    0    0  0.80715769244E+02  0.20742136825E+03 -0.95097687269E+01  0.22277588539E+03  0.00000000000E+00 0. -1.
        -11    1    5    5    0    0  0.14909027485E+03  0.14411956269E+03 -0.32934189713E+01  0.20738660761E+03  0.00000000000E+00 0.  1.
          3    1    6    6  503    0 -0.55895099529E+02 -0.27861800502E+02  0.42859037425E+02  0.75745885482E+02  0.00000000000E+00 0. -1.
         -3    1    6    6    0  503 -0.25238844216E+03 -0.31039950161E+03  0.98083087716E+02  0.41190783973E+03  0.00000000000E+00 0.  1.
<mgrwt>
<rscale>  0 0.10902497E+04</rscale>
<asrwt>0</asrwt>
<pdfrwt beam="1">  1        1 0.10740078E+00 0.10902497E+04</pdfrwt>
<pdfrwt beam="2">  1       -1 0.65487417E-01 0.10902497E+04</pdfrwt>
<totfact> 0.64494917E+01</totfact>
</mgrwt>
</event>
<event>
12    2  0.8147979E-008  0.3327256E+04  0.7818608E-02  0.8155994E-01
         -2   -1    0    0    0  501 -0.00000000000E+00  0.00000000000E+00  0.86734412487E+03  0.86734412487E+03  0.00000000000E+00 0.  1.
          2   -1    0    0  501    0  0.00000000000E+00 -0.00000000000E+00 -0.31909579956E+04  0.31909579956E+04  0.00000000000E+00 0. -1.
         23    2    1    2    0    0  0.74183012139E+03  0.13427675546E+04 -0.90493227038E+03  0.17834143832E+04  0.91256854500E+02 0.  0.
        254    2    1    2    0    0 -0.74183012139E+03 -0.13427675546E+04 -0.14186816003E+04  0.22748877372E+04  0.89951103329E+03 0.  0.
         23    2    4    4    0    0 -0.74155796534E+03 -0.52773660247E+03 -0.49756437288E+03  0.10412905578E+04  0.91113023791E+02 0.  0.
         23    2    4    4    0    0 -0.27215605151E+00 -0.81503095218E+03 -0.92111722744E+03  0.12335971794E+04  0.95023824547E+02 0.  0.
          3    1    3    3  502    0  0.47522252339E+03  0.82908250807E+03 -0.61152899772E+03  0.11345404210E+04  0.00000000000E+00 0. -1.
         -3    1    3    3    0  502  0.26660759800E+03  0.51368504658E+03 -0.29340327266E+03  0.64887396218E+03  0.00000000000E+00 0.  1.
         11    1    5    5    0    0 -0.10399938675E+03 -0.72962614456E+02 -0.10735038690E+03  0.16632354349E+03  0.00000000000E+00 0. -1.
        -11    1    5    5    0    0 -0.63755857859E+03 -0.45477398801E+03 -0.39021398598E+03  0.87496701432E+03  0.00000000000E+00 0.  1.
          2    1    6    6  503    0  0.62228612538E+01 -0.44426931670E+03 -0.57203032118E+03  0.72431528916E+03  0.00000000000E+00 0. -1.
         -2    1    6    6    0  503 -0.64950173053E+01 -0.37076163548E+03 -0.34908690626E+03  0.50928189023E+03  0.00000000000E+00 0.  1.
<mgrwt>
<rscale>  0 0.33272563E+04</rscale>
<asrwt>0</asrwt>
<pdfrwt beam="1">  1        2 0.49091662E+00 0.33272563E+04</pdfrwt>
<pdfrwt beam="2">  1       -2 0.13343756E+00 0.33272563E+04</pdfrwt>
<totfact> 0.44476936E-01</totfact>
</mgrwt>
</event>
<event>
12    2  0.8147979E-008  0.3157596E+04  0.7818608E-02  0.8200107E-01
         -1   -1    0    0    0  501 -0.00000000000E+00  0.00000000000E+00  0.33652610345E+04  0.33652610345E+04  0.00000000000E+00 0.  1.
          1   -1    0    0  501    0  0.00000000000E+00 -0.00000000000E+00 -0.74068652808E+03  0.74068652808E+03  0.00000000000E+00 0. -1.
         23    2    1    2    0    0 -0.34461780338E+03 -0.13605300724E+04  0.74645042827E+03  0.15924420024E+04  0.94232589536E+02 0.  0.
        254    2    1    2    0    0  0.34461780338E+03  0.13605300724E+04  0.18781240782E+04  0.25135055602E+04  0.90584581458E+03 0.  0.
         23    2    4    4    0    0  0.56411536400E+03  0.80251413868E+03  0.15137336022E+04  0.18061125498E+04  0.91640806957E+02 0.  0.
         23    2    4    4    0    0 -0.21949756062E+03  0.55801593371E+03  0.36439047595E+03  0.70739301035E+03  0.89796941671E+02 0.  0.
          2    1    3    3  502    0 -0.75177809716E+02 -0.46798705219E+03  0.23499044565E+03  0.52904072966E+03  0.00000000000E+00 0. -1.
         -2    1    3    3    0  502 -0.26943999367E+03 -0.89254302020E+03  0.51145998262E+03  0.10634012728E+04  0.00000000000E+00 0.  1.
         11    1    5    5    0    0  0.60883537466E+02  0.44710312438E+02  0.11763773386E+03  0.13980147925E+03  0.00000000000E+00 0.  1.
        -11    1    5    5    0    0  0.50323182654E+03  0.75780382624E+03  0.13960958684E+04  0.16663110706E+04  0.00000000000E+00 0. -1.
          1    1    6    6  503    0 -0.18636414015E+03  0.36761128954E+03  0.22988671039E+03  0.47192960550E+03  0.00000000000E+00 0. -1.
         -1    1    6    6    0  503 -0.33133420471E+02  0.19040464417E+03  0.13450376557E+03  0.23546340485E+03  0.00000000000E+00 0.  1.
<mgrwt>
<rscale>  0 0.31575962E+04</rscale>
<asrwt>0</asrwt>
<pdfrwt beam="1">  1        1 0.11395178E+00 0.31575962E+04</pdfrwt>
<pdfrwt beam="2">  1       -1 0.51773246E+00 0.31575962E+04</pdfrwt>
<totfact> 0.24075352E-02</totfact>
</mgrwt>
</event>
<event>
12    2  0.8147979E-008  0.3082882E+04  0.7818608E-02  0.8220451E-01
          1   -1    0    0  501    0  0.00000000000E+00  0.00000000000E+00  0.17343452594E+04  0.17343452594E+04  0.00000000000E+00 0. -1.
         -1   -1    0    0    0  501 -0.00000000000E+00 -0.00000000000E+00 -0.13699930782E+04  0.13699930782E+04  0.00000000000E+00 0.  1.
         23    2    1    2    0    0  0.33410137825E+03 -0.12197662986E+04  0.78903024411E+03  0.14939804026E+04  0.99775564001E+02 0.  0.
        254    2    1    2    0    0 -0.33410137825E+03  0.12197662986E+04 -0.42467806293E+03  0.16103579350E+04  0.90191333716E+03 0.  0.
         23    2    4    4    0    0 -0.14132110433E+03 -0.10778947040E+03 -0.11834679926E+03  0.23142841450E+03  0.89235204283E+02 0.  0.
         23    2    4    4    0    0 -0.19278027392E+03  0.13275557690E+04 -0.30633126367E+03  0.13789295205E+04  0.89661729844E+02 0.  0.
          2    1    3    3  502    0  0.12710207198E+03 -0.45451905439E+03  0.35182659111E+03  0.58866328042E+03  0.00000000000E+00 0.  1.
         -2    1    3    3    0  502  0.20699930627E+03 -0.76524724417E+03  0.43720365300E+03  0.90531712218E+03  0.00000000000E+00 0. -1.
         11    1    5    5    0    0 -0.75095336764E+02 -0.10822746987E+03 -0.68054128566E+02  0.14826954931E+03  0.00000000000E+00 0.  1.
        -11    1    5    5    0    0 -0.66225767565E+02  0.43799947113E+00 -0.50292670696E+02  0.83158865185E+02  0.00000000000E+00 0. -1.
          1    1    6    6  503    0 -0.17064203068E+02  0.31501404662E+03 -0.46186510396E+02  0.31883887833E+03  0.00000000000E+00 0. -1.
         -1    1    6    6    0  503 -0.17571607085E+03  0.10125417223E+04 -0.26014475327E+03  0.10600906422E+04  0.00000000000E+00 0.  1.
<mgrwt>
<rscale>  0 0.30828824E+04</rscale>
<asrwt>0</asrwt>
<pdfrwt beam="1">  1        1 0.26682235E+00 0.30828824E+04</pdfrwt>
<pdfrwt beam="2">  1       -1 0.21076817E+00 0.30828824E+04</pdfrwt>
<totfact> 0.48475523E-01</totfact>
</mgrwt>
</event>
<event>
12    2  0.8147979E-008  0.1777965E+04  0.7818608E-02  0.8718106E-01
         -2   -1    0    0    0  501 -0.00000000000E+00  0.00000000000E+00  0.29152685110E+03  0.29152685110E+03  0.00000000000E+00 0.  1.
          2   -1    0    0  501    0  0.00000000000E+00 -0.00000000000E+00 -0.27108656241E+04  0.27108656241E+04  0.00000000000E+00 0. -1.
         23    2    1    2    0    0 -0.62805346523E+03 -0.15084664042E+03 -0.69961879574E+03  0.95657980567E+03  0.91501918756E+02 0.  0.
        254    2    1    2    0    0  0.62805346523E+03  0.15084664042E+03 -0.17197199772E+04  0.20458126695E+04  0.90039258910E+03 0.  0.
         23    2    4    4    0    0  0.44704822307E+03 -0.34459842827E+03 -0.93983014044E+03  0.10999273585E+04  0.89214968729E+02 0.  0.
         23    2    4    4    0    0  0.18100524216E+03  0.49544506869E+03 -0.77988983677E+03  0.94588531096E+03  0.90786288672E+02 0.  0.
          3    1    3    3  502    0 -0.51188118640E+03 -0.98690014421E+02 -0.60047100410E+03  0.79519022548E+03  0.00000000000E+00 0. -1.
         -3    1    3    3    0  502 -0.11617227883E+03 -0.52156626003E+02 -0.99147791648E+02  0.16138958019E+03  0.00000000000E+00 0.  1.
         11    1    5    5    0    0  0.11981376022E+01  0.29862276154E+01 -0.56895456785E-01  0.32181246368E+01  0.00000000000E+00 0.  1.
        -11    1    5    5    0    0  0.44585008547E+03 -0.34758465588E+03 -0.93977324499E+03  0.10967092339E+04  0.00000000000E+00 0. -1.
          3    1    6    6  503    0  0.11586728233E+03  0.22616588125E+03 -0.43149719176E+03  0.50076547350E+03  0.00000000000E+00 0. -1.
         -3    1    6    6    0  503  0.65137959832E+02  0.26927918744E+03 -0.34839264501E+03  0.44511983746E+03  0.00000000000E+00 0.  1.
<mgrwt>
<rscale>  0 0.17779653E+04</rscale>
<asrwt>0</asrwt>
<pdfrwt beam="1">  1        2 0.41705625E+00 0.17779653E+04</pdfrwt>
<pdfrwt beam="2">  1       -2 0.44850285E-01 0.17779653E+04</pdfrwt>
<totfact> 0.11690930E+01</totfact>
</mgrwt>
</event>
<event>
12    2  0.8147979E-008  0.2808224E+04  0.7818608E-02  0.8300720E-01
          2   -1    0    0  501    0  0.00000000000E+00  0.00000000000E+00  0.12051808498E+04  0.12051808498E+04  0.00000000000E+00 0. -1.
         -2   -1    0    0    0  501 -0.00000000000E+00 -0.00000000000E+00 -0.16358790220E+04  0.16358790220E+04  0.00000000000E+00 0.  1.
         23    2    1    2    0    0  0.44705886978E+03  0.92832683764E+03 -0.92508635733E+03  0.13875054562E+04  0.87944709055E+02 0.  0.
        254    2    1    2    0    0 -0.44705886978E+03 -0.92832683764E+03  0.49438818512E+03  0.14535544157E+04  0.89819174521E+03 0.  0.
         23    2    4    4    0    0 -0.20338775340E+03 -0.83804284313E+03  0.69725576675E+03  0.11127295309E+04  0.91208659671E+02 0.  0.
         23    2    4    4    0    0 -0.24367111639E+03 -0.90283994510E+02 -0.20286758163E+03  0.34082488472E+03  0.86484297677E+02 0.  0.
          1    1    3    3  502    0  0.27838336328E+02  0.38139352507E+02 -0.22625436137E+02  0.52359273673E+02  0.00000000000E+00 0. -1.
         -1    1    3    3    0  502  0.41922053346E+03  0.89018748513E+03 -0.90246092120E+03  0.13351461825E+04  0.00000000000E+00 0.  1.
         11    1    5    5    0    0 -0.96404463523E+02 -0.57277678346E+03  0.48131555687E+03  0.75434191819E+03  0.00000000000E+00 0. -1.
        -11    1    5    5    0    0 -0.10698328987E+03 -0.26526605966E+03  0.21594020989E+03  0.35838761274E+03  0.00000000000E+00 0.  1.
          3    1    6    6  503    0 -0.13787916334E+03 -0.91518671147E+02 -0.14613138452E+03  0.22077298837E+03  0.00000000000E+00 0. -1.
         -3    1    6    6    0  503 -0.10579195304E+03  0.12346766368E+01 -0.56736197106E+02  0.12005189635E+03  0.00000000000E+00 0.  1.
<mgrwt>
<rscale>  0 0.28082237E+04</rscale>
<asrwt>0</asrwt>
<pdfrwt beam="1">  1        2 0.18541244E+00 0.28082237E+04</pdfrwt>
<pdfrwt beam="2">  1       -2 0.25167370E+00 0.28082237E+04</pdfrwt>
<totfact> 0.10262486E+00</totfact>
</mgrwt>
</event>
<event>
12    2  0.8147979E-008  0.2272193E+04  0.7818608E-02  0.8488966E-01
         -1   -1    0    0    0  501 -0.00000000000E+00  0.00000000000E+00  0.17953699166E+04  0.17953699166E+04  0.00000000000E+00 0.  1.
          1   -1    0    0  501    0  0.00000000000E+00 -0.00000000000E+00 -0.71891342344E+03  0.71891342344E+03  0.00000000000E+00 0. -1.
         23    2    1    2    0    0  0.41776175136E+03  0.16469474478E+03  0.13883225935E+04  0.14626776446E+04  0.10167117760E+03 0.  0.
        254    2    1    2    0    0 -0.41776175136E+03 -0.16469474478E+03 -0.31186610037E+03  0.10516056955E+04  0.89831221428E+03 0.  0.
         23    2    4    4    0    0 -0.28467579808E+03 -0.19944832907E+02  0.28768241694E+03  0.41443541072E+03  0.86933481860E+02 0.  0.
         23    2    4    4    0    0 -0.13308595328E+03 -0.14474991187E+03 -0.59954851731E+03  0.63717028475E+03  0.88674343599E+02 0.  0.
          3    1    3    3  502    0  0.12211560885E+03  0.24123584731E+01  0.41364274661E+03  0.43129846188E+03  0.00000000000E+00 0. -1.
         -3    1    3    3    0  502  0.29564614251E+03  0.16228238631E+03  0.97467984693E+03  0.10313791827E+04  0.00000000000E+00 0.  1.
         11    1    5    5    0    0 -0.13851337794E+03  0.30259857214E+02  0.11381534711E+03  0.18181184797E+03  0.00000000000E+00 0. -1.
        -11    1    5    5    0    0 -0.14616242015E+03 -0.50204690121E+02  0.17386706983E+03  0.23262356274E+03  0.00000000000E+00 0.  1.
          1    1    6    6  503    0 -0.51103620297E+02 -0.93867623596E+02 -0.41945838674E+03  0.43286031116E+03  0.00000000000E+00 0. -1.
         -1    1    6    6    0  503 -0.81982332982E+02 -0.50882288277E+02 -0.18009013056E+03  0.20430997359E+03  0.00000000000E+00 0.  1.
<mgrwt>
<rscale>  0 0.22721932E+04</rscale>
<asrwt>0</asrwt>
<pdfrwt beam="1">  1        1 0.11060207E+00 0.22721932E+04</pdfrwt>
<pdfrwt beam="2">  1       -1 0.27621075E+00 0.22721932E+04</pdfrwt>
<totfact> 0.11161053E+00</totfact>
</mgrwt>
</event>
<event>
12    2  0.8147979E-008  0.1887078E+04  0.7818608E-02  0.8661315E-01
         -1   -1    0    0    0  501 -0.00000000000E+00  0.00000000000E+00  0.53478866930E+03  0.53478866930E+03  0.00000000000E+00 0.  1.
          1   -1    0    0  501    0  0.00000000000E+00 -0.00000000000E+00 -0.16647059207E+04  0.16647059207E+04  0.00000000000E+00 0. -1.
         23    2    1    2    0    0  0.72199949855E+03 -0.19319378665E+02 -0.38637842020E+03  0.82426368297E+03  0.92009897156E+02 0.  0.
        254    2    1    2    0    0 -0.72199949855E+03  0.19319378665E+02 -0.74353883118E+03  0.13752309070E+04  0.90374417831E+03 0.  0.
         23    2    4    4    0    0 -0.51529829153E+03 -0.37460986554E+03 -0.21440864322E+03  0.67823089707E+03  0.90339375921E+02 0.  0.
         23    2    4    4    0    0 -0.20670120702E+03  0.39392924421E+03 -0.52913018796E+03  0.69700000994E+03  0.89020332589E+02 0.  0.
          1    1    3    3  502    0  0.32852728956E+03  0.14351303606E+02 -0.13099535339E+03  0.35397164083E+03  0.00000000000E+00 0. -1.
         -1    1    3    3    0  502  0.39347220898E+03 -0.33670682270E+02 -0.25538306681E+03  0.47029204214E+03  0.00000000000E+00 0.  1.
         11    1    5    5    0    0 -0.27869829164E+03 -0.23026587206E+03 -0.16204101649E+03  0.39617218558E+03  0.00000000000E+00 0.  1.
        -11    1    5    5    0    0 -0.23659999989E+03 -0.14434399348E+03 -0.52367626727E+02  0.28205871149E+03  0.00000000000E+00 0. -1.
          1    1    6    6  503    0 -0.16102139321E+03  0.23059417552E+03 -0.29157776317E+03  0.40511622385E+03  0.00000000000E+00 0. -1.
         -1    1    6    6    0  503 -0.45679813807E+02  0.16333506869E+03 -0.23755242479E+03  0.29188378608E+03  0.00000000000E+00 0.  1.
<mgrwt>
<rscale>  0 0.18870780E+04</rscale>
<asrwt>0</asrwt>
<pdfrwt beam="1">  1        1 0.25610860E+00 0.18870780E+04</pdfrwt>
<pdfrwt beam="2">  1       -1 0.82275181E-01 0.18870780E+04</pdfrwt>
<totfact> 0.69314834E+00</totfact>
</mgrwt>
</event>
<event>
12    2  0.8147979E-008  0.3415106E+04  0.7818608E-02  0.8134209E-01
         -2   -1    0    0    0  501 -0.00000000000E+00  0.00000000000E+00  0.12758878742E+04  0.12758878742E+04  0.00000000000E+00 0.  1.
          2   -1    0    0  501    0  0.00000000000E+00 -0.00000000000E+00 -0.22852609654E+04  0.22852609654E+04  0.00000000000E+00 0. -1.
         23    2    1    2    0    0  0.13583969469E+04  0.56889657200E+02  0.38369239106E+03  0.14163334301E+04  0.10149795950E+03 0.  0.
        254    2    1    2    0    0 -0.13583969469E+04 -0.56889657200E+02 -0.13930654823E+04  0.21448154096E+04  0.90062367561E+03 0.  0.
         23    2    4    4    0    0 -0.13965087108E+04 -0.16957495224E+03 -0.10109256182E+04  0.17346841000E+04  0.90366351857E+02 0.  0.
         23    2    4    4    0    0  0.38111763890E+02  0.11268529504E+03 -0.38213986401E+03  0.41013130959E+03  0.89589805091E+02 0.  0.
          1    1    3    3  502    0  0.99721024258E+03 -0.23450394308E+01  0.27146076929E+03  0.10335011932E+04  0.00000000000E+00 0. -1.
         -1    1    3    3    0  502  0.36118670431E+03  0.59234696631E+02  0.11223162177E+03  0.38283223686E+03  0.00000000000E+00 0.  1.
         11    1    5    5    0    0 -0.23572883847E+03  0.49248884728E+01 -0.16300891935E+03  0.28664306655E+03  0.00000000000E+00 0.  1.
        -11    1    5    5    0    0 -0.11607798723E+04 -0.17449984072E+03 -0.84791669890E+03  0.14480410335E+04  0.00000000000E+00 0. -1.
          3    1    6    6  503    0  0.57300818720E+02  0.11556450051E+03 -0.34282310616E+03  0.36628707283E+03  0.00000000000E+00 0. -1.
         -3    1    6    6    0  503 -0.19189054830E+02 -0.28792054703E+01 -0.39316757846E+02  0.43844236758E+02  0.00000000000E+00 0.  1.
<mgrwt>
<rscale>  0 0.34151057E+04</rscale>
<asrwt>0</asrwt>
<pdfrwt beam="1">  1        2 0.35157861E+00 0.34151057E+04</pdfrwt>
<pdfrwt beam="2">  1       -2 0.19629044E+00 0.34151057E+04</pdfrwt>
<totfact> 0.53810208E-01</totfact>
</mgrwt>
</event>
<event>
12    2  0.8147979E-008  0.1771385E+04  0.7818608E-02  0.8721667E-01
          1   -1    0    0  501    0  0.00000000000E+00  0.00000000000E+00  0.92632739040E+03  0.92632739040E+03  0.00000000000E+00 0. -1.
         -1   -1    0    0    0  501 -0.00000000000E+00 -0.00000000000E+00 -0.84683966750E+03  0.84683966750E+03  0.00000000000E+00 0.  1.
         23    2    1    2    0    0  0.44279866048E+03  0.46784065428E+03 -0.74512819603E+02  0.65494909077E+03  0.91981626994E+02 0.  0.
        254    2    1    2    0    0 -0.44279866048E+03 -0.46784065428E+03  0.15400054250E+03  0.11182179671E+04  0.90097154417E+03 0.  0.
         23    2    4    4    0    0  0.14322356190E+03 -0.12117716496E+03  0.34798549045E+03  0.40525070094E+03  0.89091722757E+02 0.  0.
         23    2    4    4    0    0 -0.58602222238E+03 -0.34666348932E+03 -0.19398494794E+03  0.71296726618E+03  0.84229108252E+02 0.  0.
          4    1    3    3  502    0  0.39180014564E+03  0.36424775630E+03 -0.54061684440E+02  0.53768619828E+03  0.00000000000E+00 0. -1.
         -4    1    3    3    0  502  0.50998514836E+02  0.10359289798E+03 -0.20451135164E+02  0.11726289250E+03  0.00000000000E+00 0.  1.
         11    1    5    5    0    0  0.14148885569E+03 -0.83608331887E+02  0.23977890743E+03  0.29069464029E+03  0.00000000000E+00 0.  1.
        -11    1    5    5    0    0  0.17347062047E+01 -0.37568833069E+02  0.10820658301E+03  0.11455606065E+03  0.00000000000E+00 0. -1.
          1    1    6    6  503    0 -0.27195447887E+03 -0.13028349296E+03 -0.11952995287E+03  0.32437699787E+03  0.00000000000E+00 0. -1.
         -1    1    6    6    0  503 -0.31406774350E+03 -0.21637999637E+03 -0.74454995072E+02  0.38859026831E+03  0.00000000000E+00 0.  1.
<mgrwt>
<rscale>  0 0.17713845E+04</rscale>
<asrwt>0</asrwt>
<pdfrwt beam="1">  1        1 0.14251191E+00 0.17713845E+04</pdfrwt>
<pdfrwt beam="2">  1       -1 0.13028303E+00 0.17713845E+04</pdfrwt>
<totfact> 0.82637105E+00</totfact>
</mgrwt>
</event>
<event>
12    2  0.8147979E-008  0.2043415E+04  0.7818608E-02  0.8586587E-01
          1   -1    0    0  501    0  0.00000000000E+00  0.00000000000E+00  0.99313597529E+03  0.99313597529E+03  0.00000000000E+00 0. -1.
         -1   -1    0    0    0  501 -0.00000000000E+00 -0.00000000000E+00 -0.10511013147E+04  0.10511013147E+04  0.00000000000E+00 0.  1.
         23    2    1    2    0    0 -0.60342120005E+03 -0.55609264525E+03  0.82780984029E+01  0.82581056220E+03  0.92403370976E+02 0.  0.
        254    2    1    2    0    0  0.60342120005E+03  0.55609264525E+03 -0.66243437830E+02  0.12184267278E+04  0.89823121924E+03 0.  0.
         23    2    4    4    0    0 -0.17068171079E+01  0.59254813642E+03 -0.82680528717E+02  0.60511144421E+03  0.90595711234E+02 0.  0.
         23    2    4    4    0    0  0.60512801715E+03 -0.36455491167E+02  0.16437090887E+02  0.61331528359E+03  0.91523434990E+02 0.  0.
          4    1    3    3  502    0 -0.37246527142E+02 -0.12773626169E+02  0.11798718084E+02  0.41105705907E+02  0.00000000000E+00 0. -1.
         -4    1    3    3    0  502 -0.56617467290E+03 -0.54331901908E+03 -0.35206196813E+01  0.78470485630E+03  0.00000000000E+00 0.  1.
         11    1    5    5    0    0 -0.29351653423E+02  0.52193728414E+03 -0.61419697694E+02  0.52635769910E+03  0.00000000000E+00 0.  1.
        -11    1    5    5    0    0  0.27644836315E+02  0.70610852279E+02 -0.21260831023E+02  0.78753745118E+02  0.00000000000E+00 0. -1.
          2    1    6    6  503    0  0.24368351144E+02 -0.18286924640E+02 -0.88354827486E+01  0.31722135894E+02  0.00000000000E+00 0. -1.
         -2    1    6    6    0  503  0.58075966601E+03 -0.18168566527E+02  0.25272573635E+02  0.58159314770E+03  0.00000000000E+00 0.  1.
<mgrwt>
<rscale>  0 0.20434153E+04</rscale>
<asrwt>0</asrwt>
<pdfrwt beam="1">  1        1 0.15279015E+00 0.20434153E+04</pdfrwt>
<pdfrwt beam="2">  1       -1 0.16170790E+00 0.20434153E+04</pdfrwt>
<totfact> 0.40165436E+00</totfact>
</mgrwt>
</event>
<event>
12    2  0.8147979E-008  0.2544908E+04  0.7818608E-02  0.8387159E-01
         -3   -1    0    0    0  501 -0.00000000000E+00  0.00000000000E+00  0.20320774404E+04  0.20320774404E+04  0.00000000000E+00 0.  1.
          3   -1    0    0  501    0  0.00000000000E+00 -0.00000000000E+00 -0.79679019269E+03  0.79679019269E+03  0.00000000000E+00 0. -1.
         23    2    1    2    0    0  0.51790002545E+03 -0.87010716880E+03  0.10499226763E+04  0.14615133130E+04  0.91523857052E+02 0.  0.
        254    2    1    2    0    0 -0.51790002545E+03  0.87010716880E+03  0.18536457144E+03  0.13673543201E+04  0.89999493927E+03 0.  0.
         23    2    4    4    0    0 -0.17303128786E+03 -0.15322481396E+03 -0.61728630364E+02  0.25602511914E+03  0.91218241787E+02 0.  0.
         23    2    4    4    0    0 -0.34486873760E+03  0.10233319828E+04  0.24709320180E+03  0.11113292009E+04  0.88627023872E+02 0.  0.
          4    1    3    3  502    0  0.31765629740E+03 -0.60054913355E+03  0.73970400577E+03  0.10043539223E+04  0.00000000000E+00 0.  1.
         -4    1    3    3    0  502  0.20024372805E+03 -0.26955803526E+03  0.31021867051E+03  0.45715939072E+03  0.00000000000E+00 0. -1.
         11    1    5    5    0    0  0.81281882800E+01  0.27122120856E+01 -0.63477711593E+01  0.10663851921E+02  0.00000000000E+00 0.  1.
        -11    1    5    5    0    0 -0.18115947614E+03 -0.15593702604E+03 -0.55380859205E+02  0.24536126722E+03  0.00000000000E+00 0. -1.
          4    1    6    6  503    0 -0.24351518208E+03  0.73921037145E+03  0.13726312578E+03  0.79029917301E+03  0.00000000000E+00 0. -1.
         -4    1    6    6    0  503 -0.10135355552E+03  0.28412161131E+03  0.10983007602E+03  0.32103002792E+03  0.00000000000E+00 0.  1.
<mgrwt>
<rscale>  0 0.25449082E+04</rscale>
<asrwt>0</asrwt>
<pdfrwt beam="1">  1        3 0.12258311E+00 0.25449082E+04</pdfrwt>
<pdfrwt beam="2">  1       -3 0.31262730E+00 0.25449082E+04</pdfrwt>
<totfact> 0.40183584E-02</totfact>
</mgrwt>
</event>
<event>
12    2  0.8147979E-008  0.1613582E+04  0.7818608E-02  0.8812248E-01
          1   -1    0    0  501    0  0.00000000000E+00  0.00000000000E+00  0.91856517245E+03  0.91856517245E+03  0.00000000000E+00 0. -1.
         -1   -1    0    0    0  501 -0.00000000000E+00 -0.00000000000E+00 -0.70861751365E+03  0.70861751365E+03  0.00000000000E+00 0.  1.
         23    2    1    2    0    0  0.34619101861E+03  0.17882286566E+03 -0.32011136417E+03  0.51238507576E+03  0.90781835929E+02 0.  0.
        254    2    1    2    0    0 -0.34619101861E+03 -0.17882286566E+03  0.53005902297E+03  0.11147976103E+04  0.89999183637E+03 0.  0.
         23    2    4    4    0    0 -0.58407601882E+03  0.28979264871E+02  0.14742927992E+03  0.61007561584E+03  0.92044939667E+02 0.  0.
         23    2    4    4    0    0  0.23788500020E+03 -0.20780213053E+03  0.38262974305E+03  0.50472199450E+03  0.92562263851E+02 0.  0.
          3    1    3    3  502    0  0.10144635037E+03  0.34657835994E+02 -0.42848991616E+02  0.11544939879E+03  0.00000000000E+00 0. -1.
         -3    1    3    3    0  502  0.24474466825E+03  0.14416502967E+03 -0.27726237256E+03  0.39693567697E+03  0.00000000000E+00 0.  1.
         11    1    5    5    0    0 -0.39761974083E+03 -0.14288987300E+02  0.71998791252E+02  0.40433829821E+03  0.00000000000E+00 0. -1.
        -11    1    5    5    0    0 -0.18645627798E+03  0.43268252171E+02  0.75430488669E+02  0.20573731763E+03  0.00000000000E+00 0.  1.
          3    1    6    6  503    0  0.16866417998E+03 -0.19000526060E+03  0.26526808565E+03  0.36731017128E+03  0.00000000000E+00 0.  1.
         -3    1    6    6    0  503  0.69220820224E+02 -0.17796869934E+02  0.11736165740E+03  0.13741182322E+03  0.00000000000E+00 0. -1.
<mgrwt>
<rscale>  0 0.16135816E+04</rscale>
<asrwt>0</asrwt>
<pdfrwt beam="1">  1        1 0.14131772E+00 0.16135816E+04</pdfrwt>
<pdfrwt beam="2">  1       -1 0.10901808E+00 0.16135816E+04</pdfrwt>
<totfact> 0.13132283E+01</totfact>
</mgrwt>
</event>
<event>
12    2  0.8147979E-008  0.3141650E+04  0.7818608E-02  0.8204400E-01
          2   -1    0    0  501    0  0.00000000000E+00  0.00000000000E+00  0.44469806282E+04  0.44469806282E+04  0.00000000000E+00 0. -1.
         -2   -1    0    0    0  501 -0.00000000000E+00 -0.00000000000E+00 -0.55486880599E+03  0.55486880599E+03  0.00000000000E+00 0.  1.
         23    2    1    2    0    0 -0.10824187183E+04 -0.80863407764E+03  0.99419264592E+03  0.16799616701E+04  0.91284405687E+02 0.  0.
        254    2    1    2    0    0  0.10824187183E+04  0.80863407764E+03  0.28979191763E+04  0.33218877640E+04  0.90082374044E+03 0.  0.
         23    2    4    4    0    0  0.61302453272E+03  0.29946166294E+03  0.23032561894E+04  0.24037487968E+04  0.86849520221E+02 0.  0.
         23    2    4    4    0    0  0.46939418558E+03  0.50917241469E+03  0.59466298693E+03  0.91813896721E+03  0.98831400583E+02 0.  0.
          3    1    3    3  502    0 -0.64228712031E+03 -0.43132097324E+03  0.59681322840E+03  0.97711644980E+03  0.00000000000E+00 0. -1.
         -3    1    3    3    0  502 -0.44013159799E+03 -0.37731310440E+03  0.39737941752E+03  0.70284522035E+03  0.00000000000E+00 0.  1.
         11    1    5    5    0    0  0.54996476270E+03  0.29433723967E+03  0.20573055360E+04  0.21497910874E+04  0.00000000000E+00 0. -1.
        -11    1    5    5    0    0  0.63059770027E+02  0.51244232701E+01  0.24595065334E+03  0.25395770944E+03  0.00000000000E+00 0.  1.
          3    1    6    6  503    0  0.23997592643E+03  0.32887055847E+03  0.36554820727E+03  0.54714694675E+03  0.00000000000E+00 0. -1.
         -3    1    6    6    0  503  0.22941825915E+03  0.18030185622E+03  0.22911477967E+03  0.37099202046E+03  0.00000000000E+00 0.  1.
<mgrwt>
<rscale>  0 0.31416498E+04</rscale>
<asrwt>0</asrwt>
<pdfrwt beam="1">  1        2 0.68415084E+00 0.31416498E+04</pdfrwt>
<pdfrwt beam="2">  1       -2 0.85364435E-01 0.31416498E+04</pdfrwt>
<totfact> 0.13955705E-01</totfact>
</mgrwt>
</event>
<event>
12    2  0.8147979E-008  0.1407756E+04  0.7818608E-02  0.8948224E-01
         -2   -1    0    0    0  501 -0.00000000000E+00  0.00000000000E+00  0.26308430614E+03  0.26308430614E+03  0.00000000000E+00 0.  1.
          2   -1    0    0  501    0  0.00000000000E+00 -0.00000000000E+00 -0.18832137215E+04  0.18832137215E+04  0.00000000000E+00 0. -1.
         23    2    1    2    0    0  0.38826092460E+02  0.21892066249E+03 -0.10154247304E+04  0.10436328241E+04  0.92996593713E+02 0.  0.
        254    2    1    2    0    0 -0.38826092460E+02 -0.21892066249E+03 -0.60470468500E+03  0.11026652036E+04  0.89485701276E+03 0.  0.
         23    2    4    4    0    0 -0.44597689497E+03 -0.22421182058E+02 -0.24414184331E+03  0.51715132940E+03  0.91881214581E+02 0.  0.
         23    2    4    4    0    0  0.40715080251E+03 -0.19649948043E+03 -0.36056284169E+03  0.58551387422E+03  0.91853754923E+02 0.  0.
          3    1    3    3  502    0  0.37623558010E+02  0.15790909920E+03 -0.88335693160E+03  0.89814825298E+03  0.00000000000E+00 0. -1.
         -3    1    3    3    0  502  0.12025344503E+01  0.61011563291E+02 -0.13206779880E+03  0.14548457109E+03  0.00000000000E+00 0.  1.
         11    1    5    5    0    0 -0.25899560569E+03 -0.55565352057E+02 -0.15988785519E+03  0.30940322939E+03  0.00000000000E+00 0. -1.
        -11    1    5    5    0    0 -0.18698128928E+03  0.33144169999E+02 -0.84253988114E+02  0.20774810001E+03  0.00000000000E+00 0.  1.
          3    1    6    6  503    0  0.10870234106E+03 -0.96169078154E+01 -0.89565874615E+02  0.14117623654E+03  0.00000000000E+00 0. -1.
         -3    1    6    6    0  503  0.29844846146E+03 -0.18688257262E+03 -0.27099696708E+03  0.44433763768E+03  0.00000000000E+00 0.  1.
<mgrwt>
<rscale>  0 0.14077556E+04</rscale>
<asrwt>0</asrwt>
<pdfrwt beam="1">  1        2 0.28972519E+00 0.14077556E+04</pdfrwt>
<pdfrwt beam="2">  1       -2 0.40474508E-01 0.14077556E+04</pdfrwt>
<totfact> 0.43622596E+01</totfact>
</mgrwt>
</event>
<event>
12    2  0.8147979E-008  0.2669589E+04  0.7818608E-02  0.8344940E-01
          1   -1    0    0  501    0  0.00000000000E+00  0.00000000000E+00  0.16498389572E+04  0.16498389572E+04  0.00000000000E+00 0. -1.
         -1   -1    0    0    0  501 -0.00000000000E+00 -0.00000000000E+00 -0.10799092189E+04  0.10799092189E+04  0.00000000000E+00 0.  1.
         23    2    1    2    0    0 -0.19932846179E+03  0.46353374769E+03  0.13448881085E+04  0.14393193090E+04  0.91217750978E+02 0.  0.
        254    2    1    2    0    0  0.19932846179E+03 -0.46353374769E+03 -0.77495837017E+03  0.12904288670E+04  0.90002822974E+03 0.  0.
         23    2    4    4    0    0 -0.22861775322E+03  0.14165320715E+03 -0.24894559062E+03  0.37711348216E+03  0.88932351587E+02 0.  0.
         23    2    4    4    0    0  0.42794621501E+03 -0.60518695484E+03 -0.52601277955E+03  0.91331538483E+03  0.89812775615E+02 0.  0.
          2    1    3    3  502    0 -0.19863336563E+03  0.45052529853E+03  0.13351822645E+04  0.14230741154E+04  0.00000000000E+00 0. -1.
         -2    1    3    3    0  502 -0.69509616106E+00  0.13008449167E+02  0.97058440126E+01  0.16245193640E+02  0.00000000000E+00 0.  1.
         11    1    5    5    0    0 -0.15921729405E+03  0.77585816764E+02 -0.10799569542E+03  0.20744342824E+03  0.00000000000E+00 0.  1.
        -11    1    5    5    0    0 -0.69400459161E+02  0.64067390383E+02 -0.14094989520E+03  0.16967005393E+03  0.00000000000E+00 0. -1.
          3    1    6    6  503    0  0.23388494464E+03 -0.27013518243E+03 -0.21816312798E+03  0.41865300014E+03  0.00000000000E+00 0. -1.
         -3    1    6    6    0  503  0.19406127036E+03 -0.33505177241E+03 -0.30784965157E+03  0.49466238469E+03  0.00000000000E+00 0.  1.
<mgrwt>
<rscale>  0 0.26695890E+04</rscale>
<asrwt>0</asrwt>
<pdfrwt beam="1">  1        1 0.25382138E+00 0.26695890E+04</pdfrwt>
<pdfrwt beam="2">  1       -1 0.16613988E+00 0.26695890E+04</pdfrwt>
<totfact> 0.11866078E+00</totfact>
</mgrwt>
</event>
<event>
12    2  0.8147979E-008  0.1580899E+04  0.7818608E-02  0.8832369E-01
          1   -1    0    0  501    0  0.00000000000E+00  0.00000000000E+00  0.96997056703E+03  0.96997056703E+03  0.00000000000E+00 0. -1.
         -1   -1    0    0    0  501 -0.00000000000E+00 -0.00000000000E+00 -0.64415431629E+03  0.64415431629E+03  0.00000000000E+00 0.  1.
         23    2    1    2    0    0  0.31528577681E+03  0.47100809159E+02  0.54238784728E+03  0.63592878305E+03  0.92721264827E+02 0.  0.
        254    2    1    2    0    0 -0.31528577681E+03 -0.47100809159E+02 -0.21657159654E+03  0.97819610028E+03  0.89907772016E+03 0.  0.
         23    2    4    4    0    0 -0.35769170874E+03 -0.57980202049E+02  0.28253519796E+03  0.46904772461E+03  0.94204923185E+02 0.  0.
         23    2    4    4    0    0  0.42405931927E+02  0.10879392890E+02 -0.49910679450E+03  0.50914837567E+03  0.90597195752E+02 0.  0.
          4    1    3    3  502    0  0.13727662540E+03  0.60298514982E+02  0.20183586254E+03  0.25143289005E+03  0.00000000000E+00 0.  1.
         -4    1    3    3    0  502  0.17800915141E+03 -0.13197705824E+02  0.34055198474E+03  0.38449589300E+03  0.00000000000E+00 0. -1.
         11    1    5    5    0    0 -0.28895907663E+03 -0.45338157139E+02  0.17515428168E+03  0.34092802591E+03  0.00000000000E+00 0. -1.
        -11    1    5    5    0    0 -0.68732632109E+02 -0.12642044910E+02  0.10738091628E+03  0.12811969871E+03  0.00000000000E+00 0.  1.
          3    1    6    6  503    0  0.30784817569E+02  0.33416449696E+02 -0.46186087294E+03  0.46409032532E+03  0.00000000000E+00 0. -1.
         -3    1    6    6    0  503  0.11621114358E+02 -0.22537056806E+02 -0.37245921561E+02  0.45058050350E+02  0.00000000000E+00 0.  1.
<mgrwt>
<rscale>  0 0.15808994E+04</rscale>
<asrwt>0</asrwt>
<pdfrwt beam="1">  1        1 0.14922624E+00 0.15808994E+04</pdfrwt>
<pdfrwt beam="2">  1       -1 0.99100664E-01 0.15808994E+04</pdfrwt>
<totfact> 0.14945046E+01</totfact>
</mgrwt>
</event>
<event>
12    2  0.8147979E-008  0.3034228E+04  0.7818608E-02  0.8234024E-01
         -2   -1    0    0    0  501 -0.00000000000E+00  0.00000000000E+00  0.75304782482E+03  0.75304782482E+03  0.00000000000E+00 0.  1.
          2   -1    0    0  501    0  0.00000000000E+00 -0.00000000000E+00 -0.30564256425E+04  0.30564256425E+04  0.00000000000E+00 0. -1.
         23    2    1    2    0    0 -0.53107140415E+03 -0.12366277241E+04 -0.65780431635E+03  0.15007446315E+04  0.90790781288E+02 0.  0.
        254    2    1    2    0    0  0.53107140415E+03  0.12366277241E+04 -0.16455735013E+04  0.23087288358E+04  0.90057299788E+03 0.  0.
         23    2    4    4    0    0  0.68196514334E+03  0.12647094484E+04 -0.14973372529E+04  0.20768930427E+04  0.83062726056E+02 0.  0.
         23    2    4    4    0    0 -0.15089373919E+03 -0.28081724249E+02 -0.14823624841E+03  0.23183579304E+03  0.90644061191E+02 0.  0.
          2    1    3    3  502    0 -0.47603881921E+03 -0.11654187537E+04 -0.61526293042E+03  0.14012003078E+04  0.00000000000E+00 0. -1.
         -2    1    3    3    0  502 -0.55032584936E+02 -0.71208970425E+02 -0.42541385928E+02  0.99544323748E+02  0.00000000000E+00 0.  1.
         11    1    5    5    0    0  0.23377717180E+03  0.37083842797E+03 -0.42211351822E+03  0.60856612457E+03  0.00000000000E+00 0.  1.
        -11    1    5    5    0    0  0.44818797154E+03  0.89387102042E+03 -0.10752237347E+04  0.14683269181E+04  0.00000000000E+00 0. -1.
          3    1    6    6  503    0 -0.73592104891E+02 -0.42419125503E+02 -0.12258226548E+03  0.14913615229E+03  0.00000000000E+00 0. -1.
         -3    1    6    6    0  503 -0.77301634299E+02  0.14337401254E+02 -0.25653982933E+02  0.82699640751E+02  0.00000000000E+00 0.  1.
<mgrwt>
<rscale>  0 0.30342279E+04</rscale>
<asrwt>0</asrwt>
<pdfrwt beam="1">  1        2 0.47021933E+00 0.30342279E+04</pdfrwt>
<pdfrwt beam="2">  1       -2 0.11585351E+00 0.30342279E+04</pdfrwt>
<totfact> 0.79242919E-01</totfact>
</mgrwt>
</event>
<event>
12    2  0.8147979E-008  0.1446953E+04  0.7818608E-02  0.8920516E-01
         -2   -1    0    0    0  501 -0.00000000000E+00  0.00000000000E+00  0.13923427535E+04  0.13923427535E+04  0.00000000000E+00 0.  1.
          2   -1    0    0  501    0  0.00000000000E+00 -0.00000000000E+00 -0.37592606298E+03  0.37592606298E+03  0.00000000000E+00 0. -1.
         23    2    1    2    0    0 -0.24990828925E+03 -0.35631237741E+03  0.28680710629E+03  0.52892931279E+03  0.89973542644E+02 0.  0.
        254    2    1    2    0    0  0.24990828925E+03  0.35631237741E+03  0.72960958422E+03  0.12393395037E+04  0.90234117531E+03 0.  0.
         23    2    4    4    0    0  0.49954667609E+03  0.16191552669E+03  0.11952855448E+03  0.54624781313E+03  0.91302128335E+02 0.  0.
         23    2    4    4    0    0 -0.24963838683E+03  0.19439685072E+03  0.61008102974E+03  0.69309169055E+03  0.89820759912E+02 0.  0.
          1    1    3    3  502    0 -0.23992408525E+03 -0.29524962852E+03  0.22779260556E+03  0.44342460574E+03  0.00000000000E+00 0. -1.
         -1    1    3    3    0  502 -0.99842039999E+01 -0.61062748882E+02  0.59014500731E+02  0.85504707046E+02  0.00000000000E+00 0.  1.
         11    1    5    5    0    0  0.21852479626E+03  0.56778505371E+02  0.95805349552E+02  0.24526628439E+03  0.00000000000E+00 0.  1.
        -11    1    5    5    0    0  0.28102187982E+03  0.10513702132E+03  0.23723204928E+02  0.30098152874E+03  0.00000000000E+00 0. -1.
          1    1    6    6  503    0 -0.10157714728E+03  0.93166459228E+02  0.35881598356E+03  0.38437848019E+03  0.00000000000E+00 0. -1.
         -1    1    6    6    0  503 -0.14806123955E+03  0.10123039149E+03  0.25126504618E+03  0.30871321036E+03  0.00000000000E+00 0.  1.
<mgrwt>
<rscale>  0 0.14469526E+04</rscale>
<asrwt>0</asrwt>
<pdfrwt beam="1">  1        2 0.57834780E-01 0.14469526E+04</pdfrwt>
<pdfrwt beam="2">  1       -2 0.21420657E+00 0.14469526E+04</pdfrwt>
<totfact> 0.88951049E+00</totfact>
</mgrwt>
</event>
<event>
12    2  0.8147979E-008  0.1256480E+04  0.7818608E-02  0.9064807E-01
          1   -1    0    0  501    0  0.00000000000E+00  0.00000000000E+00  0.16427187404E+04  0.16427187404E+04  0.00000000000E+00 0. -1.
         -1   -1    0    0    0  501 -0.00000000000E+00 -0.00000000000E+00 -0.24026359829E+03  0.24026359829E+03  0.00000000000E+00 0.  1.
         23    2    1    2    0    0  0.29299923629E+03  0.17635860179E+02  0.37645396550E+03  0.48579232601E+03  0.90094505035E+02 0.  0.
        254    2    1    2    0    0 -0.29299923629E+03 -0.17635860179E+02  0.10260011766E+04  0.13971900126E+04  0.90183254602E+03 0.  0.
         23    2    4    4    0    0 -0.32231922170E+03 -0.41032628367E+03  0.46206359257E+03  0.70308113667E+03  0.92536378901E+02 0.  0.
         23    2    4    4    0    0  0.29319985409E+02  0.39269042349E+03  0.56393758400E+03  0.69410887596E+03  0.93252897040E+02 0.  0.
          4    1    3    3  502    0  0.24420465577E+03  0.44633304982E+02  0.33157971092E+03  0.41421389464E+03  0.00000000000E+00 0. -1.
         -4    1    3    3    0  502  0.48794580521E+02 -0.26997444803E+02  0.44874254580E+02  0.71578431376E+02  0.00000000000E+00 0.  1.
         11    1    5    5    0    0 -0.11637804002E+03 -0.12125661562E+03  0.97607413112E+02  0.19435591610E+03  0.00000000000E+00 0. -1.
        -11    1    5    5    0    0 -0.20594118168E+03 -0.28906966805E+03  0.36445617946E+03  0.50872522057E+03  0.00000000000E+00 0.  1.
          1    1    6    6  503    0 -0.14189954371E+02  0.29799609240E+03  0.44771182201E+03  0.53800455524E+03  0.00000000000E+00 0. -1.
         -1    1    6    6    0  503  0.43509939779E+02  0.94694331091E+02  0.11622576198E+03  0.15610432073E+03  0.00000000000E+00 0.  1.
<mgrwt>
<rscale>  0 0.12564800E+04</rscale>
<asrwt>0</asrwt>
<pdfrwt beam="1">  1        1 0.25272595E+00 0.12564800E+04</pdfrwt>
<pdfrwt beam="2">  1       -1 0.36963632E-01 0.12564800E+04</pdfrwt>
<totfact> 0.36159600E+01</totfact>
</mgrwt>
</event>
<event>
12    2  0.8147979E-008  0.2666938E+04  0.7818608E-02  0.8345813E-01
         -1   -1    0    0    0  501 -0.00000000000E+00  0.00000000000E+00  0.79529267271E+03  0.79529267271E+03  0.00000000000E+00 0.  1.
          1   -1    0    0  501    0  0.00000000000E+00 -0.00000000000E+00 -0.22358299743E+04  0.22358299743E+04  0.00000000000E+00 0. -1.
         23    2    1    2    0    0 -0.13389589992E+02  0.27191594303E+03  0.66553738188E+03  0.72471084047E+03  0.90267571237E+02 0.  0.
        254    2    1    2    0    0  0.13389589992E+02 -0.27191594303E+03 -0.21060746834E+04  0.23064118065E+04  0.89992626801E+03 0.  0.
         23    2    4    4    0    0 -0.36146202598E+03 -0.38637276383E+03 -0.11357176429E+04  0.12565418910E+04  0.95416197011E+02 0.  0.
         23    2    4    4    0    0  0.37485161597E+03  0.11445682080E+03 -0.97035704058E+03  0.10498699155E+04  0.83785174769E+02 0.  0.
          2    1    3    3  502    0  0.34991379610E+02  0.10433844413E+03  0.30379395388E+03  0.32311247885E+03  0.00000000000E+00 0. -1.
         -2    1    3    3    0  502 -0.48380969601E+02  0.16757749890E+03  0.36174342799E+03  0.40159836162E+03  0.00000000000E+00 0.  1.
         11    1    5    5    0    0 -0.18319864337E+03 -0.25745421230E+03 -0.62053096832E+03  0.69634983809E+03  0.00000000000E+00 0. -1.
        -11    1    5    5    0    0 -0.17826338261E+03 -0.12891855153E+03 -0.51518667453E+03  0.56019205289E+03  0.00000000000E+00 0.  1.
          3    1    6    6  503    0  0.24444382481E+03  0.11384627420E+03 -0.62378799190E+03  0.67957723364E+03  0.00000000000E+00 0. -1.
         -3    1    6    6    0  503  0.13040779116E+03  0.61054659939E+00 -0.34656904868E+03  0.37029268189E+03  0.00000000000E+00 0.  1.
<mgrwt>
<rscale>  0 0.26669377E+04</rscale>
<asrwt>0</asrwt>
<pdfrwt beam="1">  1        1 0.34397384E+00 0.26669377E+04</pdfrwt>
<pdfrwt beam="2">  1       -1 0.12235272E+00 0.26669377E+04</pdfrwt>
<totfact> 0.10638438E+00</totfact>
</mgrwt>
</event>
<event>
12    2  0.8147979E-008  0.3823392E+04  0.7818608E-02  0.8041154E-01
          2   -1    0    0  501    0  0.00000000000E+00  0.00000000000E+00  0.18274098849E+04  0.18274098849E+04  0.00000000000E+00 0. -1.
         -2   -1    0    0    0  501 -0.00000000000E+00 -0.00000000000E+00 -0.19998700059E+04  0.19998700059E+04  0.00000000000E+00 0.  1.
         23    2    1    2    0    0 -0.10387471440E+04 -0.10549014350E+04 -0.11137426355E+04  0.18548409322E+04  0.90551414903E+02 0.  0.
        254    2    1    2    0    0  0.10387471440E+04  0.10549014350E+04  0.94128251441E+03  0.19724389587E+04  0.90149320963E+03 0.  0.
         23    2    4    4    0    0  0.10346095298E+04  0.99261922840E+03  0.10764327904E+04  0.17951743191E+04  0.90738480150E+02 0.  0.
         23    2    4    4    0    0  0.41376141731E+01  0.62282206615E+02 -0.13515027598E+03  0.17726463962E+03  0.96233893459E+02 0.  0.
          3    1    3    3  502    0 -0.24610302179E+03 -0.28497243533E+03 -0.24512933378E+03  0.44929319660E+03  0.00000000000E+00 0. -1.
         -3    1    3    3    0  502 -0.79264412223E+03 -0.76992899969E+03 -0.86861330168E+03  0.14055477356E+04  0.00000000000E+00 0.  1.
         11    1    5    5    0    0  0.67188601882E+01  0.23744903057E+00  0.11003282885E+02  0.12894638363E+02  0.00000000000E+00 0. -1.
        -11    1    5    5    0    0  0.10278906697E+04  0.99238177937E+03  0.10654295075E+04  0.17822796807E+04  0.00000000000E+00 0.  1.
          3    1    6    6  503    0 -0.91004317247E+01  0.85253708707E+02 -0.86103963413E+02  0.12151092635E+03  0.00000000000E+00 0. -1.
         -3    1    6    6    0  503  0.13238045898E+02 -0.22971502091E+02 -0.49046312567E+02  0.55753713275E+02  0.00000000000E+00 0.  1.
<mgrwt>
<rscale>  0 0.38233923E+04</rscale>
<asrwt>0</asrwt>
<pdfrwt beam="1">  1        2 0.28113998E+00 0.38233923E+04</pdfrwt>
<pdfrwt beam="2">  1       -2 0.30767231E+00 0.38233923E+04</pdfrwt>
<totfact> 0.19014924E-01</totfact>
</mgrwt>
</event>
<event>
12    2  0.8147979E-008  0.1772650E+04  0.7818608E-02  0.8720980E-01
         -2   -1    0    0    0  501 -0.00000000000E+00  0.00000000000E+00  0.17379895990E+04  0.17379895990E+04  0.00000000000E+00 0.  1.
          2   -1    0    0  501    0  0.00000000000E+00 -0.00000000000E+00 -0.45200061524E+03  0.45200061524E+03  0.00000000000E+00 0. -1.
         23    2    1    2    0    0 -0.19586855877E+03 -0.57657588655E+03  0.16093361032E+03  0.63654798000E+03  0.92138258308E+02 0.  0.
        254    2    1    2    0    0  0.19586855877E+03  0.57657588655E+03  0.11250553734E+04  0.15534422342E+04  0.88126553124E+03 0.  0.
         23    2    4    4    0    0 -0.33860553624E+03  0.28883527879E+03  0.41244550524E+03  0.61287063394E+03  0.86137051863E+02 0.  0.
         23    2    4    4    0    0  0.53447409501E+03  0.28774060776E+03  0.71260986820E+03  0.94057160031E+03  0.91678216940E+02 0.  0.
          1    1    3    3  502    0 -0.48007205760E+02 -0.14414228181E+03 -0.29853185031E+00  0.15192688482E+03  0.00000000000E+00 0. -1.
         -1    1    3    3    0  502 -0.14786135301E+03 -0.43243360474E+03  0.16123214217E+03  0.48462109518E+03  0.00000000000E+00 0.  1.
         11    1    5    5    0    0 -0.20763416957E+03  0.16170610533E+03  0.18723520525E+03  0.32298271619E+03  0.00000000000E+00 0.  1.
        -11    1    5    5    0    0 -0.13097136667E+03  0.12712917346E+03  0.22521029999E+03  0.28988791774E+03  0.00000000000E+00 0. -1.
          3    1    6    6  503    0  0.32102669974E+03  0.18098443476E+03  0.36310615517E+03  0.51735827769E+03  0.00000000000E+00 0. -1.
         -3    1    6    6    0  503  0.21344739527E+03  0.10675617300E+03  0.34950371303E+03  0.42321332262E+03  0.00000000000E+00 0.  1.
<mgrwt>
<rscale>  0 0.17726504E+04</rscale>
<asrwt>0</asrwt>
<pdfrwt beam="1">  1        2 0.69538557E-01 0.17726504E+04</pdfrwt>
<pdfrwt beam="2">  1       -2 0.26738301E+00 0.17726504E+04</pdfrwt>
<totfact> 0.32937590E+00</totfact>
</mgrwt>
</event>
<event>
12    2  0.8147979E-008  0.1210889E+04  0.7818608E-02  0.9103378E-01
         -1   -1    0    0    0  501 -0.00000000000E+00  0.00000000000E+00  0.67267675193E+03  0.67267675193E+03  0.00000000000E+00 0.  1.
          1   -1    0    0  501    0  0.00000000000E+00 -0.00000000000E+00 -0.54493225120E+03  0.54493225120E+03  0.00000000000E+00 0. -1.
         23    2    1    2    0    0  0.23232082008E+03 -0.15490631854E+02  0.14219515839E+03  0.28820264188E+03  0.92889055335E+02 0.  0.
        254    2    1    2    0    0 -0.23232082008E+03  0.15490631854E+02 -0.14450657660E+02  0.92940636124E+03  0.89965239937E+03 0.  0.
         23    2    4    4    0    0 -0.12414010542E+03  0.38627788469E+03 -0.23114283515E+03  0.47560691192E+03  0.90297034571E+02 0.  0.
         23    2    4    4    0    0 -0.10818071466E+03 -0.37078725284E+03  0.21669217749E+03  0.45379944932E+03  0.98955477479E+02 0.  0.
          3    1    3    3  502    0  0.53291684401E+02  0.26756859978E+02  0.72608032394E+01  0.60072060443E+02  0.00000000000E+00 0. -1.
         -3    1    3    3    0  502  0.17902913568E+03 -0.42247491833E+02  0.13493435516E+03  0.22813058144E+03  0.00000000000E+00 0.  1.
         11    1    5    5    0    0 -0.22075670013E+02  0.21214986393E+03 -0.13076340183E+03  0.25018786388E+03  0.00000000000E+00 0. -1.
        -11    1    5    5    0    0 -0.10206443541E+03  0.17412802076E+03 -0.10037943332E+03  0.22541904805E+03  0.00000000000E+00 0.  1.
          1    1    6    6  503    0 -0.10602601830E+03 -0.33157495869E+03  0.22385872969E+03  0.41387945183E+03  0.00000000000E+00 0. -1.
         -1    1    6    6    0  503 -0.21546963547E+01 -0.39212294148E+02 -0.71665522042E+01  0.39919997485E+02  0.00000000000E+00 0.  1.
<mgrwt>
<rscale>  0 0.12108894E+04</rscale>
<asrwt>0</asrwt>
<pdfrwt beam="1">  1        1 0.83835731E-01 0.12108894E+04</pdfrwt>
<pdfrwt beam="2">  1       -1 0.10348873E+00 0.12108894E+04</pdfrwt>
<totfact> 0.34244428E+01</totfact>
</mgrwt>
</event>
<event>
12    2  0.8147979E-008  0.1537528E+04  0.7818608E-02  0.8859874E-01
          2   -1    0    0  501    0  0.00000000000E+00  0.00000000000E+00  0.14712096844E+04  0.14712096844E+04  0.00000000000E+00 0. -1.
         -2   -1    0    0    0  501 -0.00000000000E+00 -0.00000000000E+00 -0.40170882530E+03  0.40170882530E+03  0.00000000000E+00 0.  1.
         23    2    1    2    0    0 -0.10648849676E+03 -0.14566772599E+03  0.92132851799E+03  0.94310723399E+03  0.89700225238E+02 0.  0.
        254    2    1    2    0    0  0.10648849676E+03  0.14566772599E+03  0.14817234110E+03  0.92981127570E+03  0.90001948835E+03 0.  0.
         23    2    4    4    0    0  0.34929624360E+02  0.79581874883E+02 -0.37210421506E+03  0.39295359932E+03  0.91638588421E+02 0.  0.
         23    2    4    4    0    0  0.71558872405E+02  0.66085851104E+02  0.52027655616E+03  0.53685767638E+03  0.89668600213E+02 0.  0.
          4    1    3    3  502    0 -0.12310395238E+02 -0.77666450867E+01  0.28052276987E+03  0.28090014422E+03  0.00000000000E+00 0. -1.
         -4    1    3    3    0  502 -0.94178101527E+02 -0.13790108090E+03  0.64080574811E+03  0.66220708977E+03  0.00000000000E+00 0.  1.
         11    1    5    5    0    0  0.18654207629E+02  0.86343530137E+02 -0.18485623825E+03  0.20487804538E+03  0.00000000000E+00 0. -1.
        -11    1    5    5    0    0  0.16275416731E+02 -0.67616552543E+01 -0.18724797681E+03  0.18807555394E+03  0.00000000000E+00 0.  1.
          1    1    6    6  503    0  0.59465984105E+02  0.43192735834E+02  0.49583497935E+03  0.50125257350E+03  0.00000000000E+00 0. -1.
         -1    1    6    6    0  503  0.12092888300E+02  0.22893115270E+02  0.24441576810E+02  0.35605102880E+02  0.00000000000E+00 0.  1.
<mgrwt>
<rscale>  0 0.15375278E+04</rscale>
<asrwt>0</asrwt>
<pdfrwt beam="1">  1        2 0.22633995E+00 0.15375278E+04</pdfrwt>
<pdfrwt beam="2">  1       -2 0.61801359E-01 0.15375278E+04</pdfrwt>
<totfact> 0.30881299E+01</totfact>
</mgrwt>
</event>
<event>
12    2  0.8147979E-008  0.1967476E+04  0.7818608E-02  0.8621979E-01
         -2   -1    0    0    0  501 -0.00000000000E+00  0.00000000000E+00  0.16763470136E+04  0.16763470136E+04  0.00000000000E+00 0.  1.
          2   -1    0    0  501    0  0.00000000000E+00 -0.00000000000E+00 -0.57729149039E+03  0.57729149039E+03  0.00000000000E+00 0. -1.
         23    2    1    2    0    0 -0.70371043272E+03  0.32075185264E+03  0.38534001847E+03  0.86889713090E+03  0.91679715101E+02 0.  0.
        254    2    1    2    0    0  0.70371043272E+03 -0.32075185264E+03  0.71371550475E+03  0.13847413731E+04  0.90001595797E+03 0.  0.
         23    2    4    4    0    0 -0.65030650406E+01  0.11023041749E+03  0.50306411710E+03  0.52293665534E+03  0.90532893435E+02 0.  0.
         23    2    4    4    0    0  0.71021349776E+03 -0.43098227013E+03  0.21065138765E+03  0.86180471777E+03  0.90467866569E+02 0.  0.
          2    1    3    3  502    0 -0.23933956075E+03  0.10391997636E+03  0.82742001589E+02  0.27373166725E+03  0.00000000000E+00 0. -1.
         -2    1    3    3    0  502 -0.46437087197E+03  0.21683187627E+03  0.30259801688E+03  0.59516546365E+03  0.00000000000E+00 0.  1.
         11    1    5    5    0    0 -0.32795007104E+02  0.94909752387E+02  0.45575329847E+03  0.46668452156E+03  0.00000000000E+00 0.  1.
        -11    1    5    5    0    0  0.26291942063E+02  0.15320665107E+02  0.47310818621E+02  0.56252133785E+02  0.00000000000E+00 0. -1.
          2    1    6    6  503    0  0.34396398959E+03 -0.25931460496E+03  0.12223480969E+03  0.44776851071E+03  0.00000000000E+00 0. -1.
         -2    1    6    6    0  503  0.36624950817E+03 -0.17166766517E+03  0.88416577966E+02  0.41403620706E+03  0.00000000000E+00 0.  1.
<mgrwt>
<rscale>  0 0.19674764E+04</rscale>
<asrwt>0</asrwt>
<pdfrwt beam="1">  1        2 0.88814076E-01 0.19674764E+04</pdfrwt>
<pdfrwt beam="2">  1       -2 0.25789954E+00 0.19674764E+04</pdfrwt>
<totfact> 0.27815194E+00</totfact>
</mgrwt>
</event>
<event>
12    2  0.8147979E-008  0.1738776E+04  0.7818608E-02  0.8739553E-01
         -1   -1    0    0    0  501 -0.00000000000E+00  0.00000000000E+00  0.12043505260E+04  0.12043505260E+04  0.00000000000E+00 0.  1.
          1   -1    0    0  501    0  0.00000000000E+00 -0.00000000000E+00 -0.62758747413E+03  0.62758747413E+03  0.00000000000E+00 0. -1.
         23    2    1    2    0    0  0.61345647941E+03 -0.14667487645E+03  0.17810571489E+03  0.66165949969E+03  0.90715358918E+02 0.  0.
        254    2    1    2    0    0 -0.61345647941E+03  0.14667487645E+03  0.39865733696E+03  0.11702785004E+04  0.90154407807E+03 0.  0.
         23    2    4    4    0    0 -0.73720957480E+03 -0.44834040307E+02  0.52595349742E+02  0.74608325438E+03  0.91574577758E+02 0.  0.
         23    2    4    4    0    0  0.12375309539E+03  0.19150891676E+03  0.34606198722E+03  0.42419524604E+03  0.90510849872E+02 0.  0.
          4    1    3    3  502    0  0.12460216497E+03 -0.64115182700E+02  0.21725270751E+02  0.14180424379E+03  0.00000000000E+00 0. -1.
         -4    1    3    3    0  502  0.48885431444E+03 -0.82559693752E+02  0.15638044414E+03  0.51985525590E+03  0.00000000000E+00 0.  1.
         11    1    5    5    0    0 -0.23255003193E+03  0.22387253166E+02  0.38464078206E+02  0.23677033549E+03  0.00000000000E+00 0.  1.
        -11    1    5    5    0    0 -0.50465954287E+03 -0.67221293473E+02  0.14131271536E+02  0.50931291888E+03  0.00000000000E+00 0. -1.
          1    1    6    6  503    0  0.73882725080E+02  0.11781235363E+03  0.28240018233E+03  0.31478289457E+03  0.00000000000E+00 0. -1.
         -1    1    6    6    0  503  0.49870370313E+02  0.73696563128E+02  0.63661804890E+02  0.10941235147E+03  0.00000000000E+00 0.  1.
<mgrwt>
<rscale>  0 0.17387758E+04</rscale>
<asrwt>0</asrwt>
<pdfrwt beam="1">  1        1 0.96551919E-01 0.17387758E+04</pdfrwt>
<pdfrwt beam="2">  1       -1 0.18528470E+00 0.17387758E+04</pdfrwt>
<totfact> 0.58035806E+00</totfact>
</mgrwt>
</event>
<event>
12    2  0.8147979E-008  0.2403080E+04  0.7818608E-02  0.8438351E-01
          2   -1    0    0  501    0  0.00000000000E+00  0.00000000000E+00  0.20207324459E+04  0.20207324459E+04  0.00000000000E+00 0. -1.
         -2   -1    0    0    0  501 -0.00000000000E+00 -0.00000000000E+00 -0.71444298208E+03  0.71444298208E+03  0.00000000000E+00 0.  1.
         23    2    1    2    0    0  0.75846948198E+03  0.56419351102E+03  0.10272813705E+04  0.13991961335E+04  0.94087900085E+02 0.  0.
        254    2    1    2    0    0 -0.75846948198E+03 -0.56419351102E+03  0.27900809331E+03  0.13359792944E+04  0.90188961964E+03 0.  0.
         23    2    4    4    0    0 -0.26271208271E+03 -0.69608975475E+03  0.10108301338E+02  0.74960933618E+03  0.90848192428E+02 0.  0.
         23    2    4    4    0    0 -0.49575739928E+03  0.13189624373E+03  0.26889979198E+03  0.58636995824E+03  0.91381681721E+02 0.  0.
          3    1    3    3  502    0  0.71289207905E+03  0.52137758615E+03  0.98861613332E+03  0.13256740032E+04  0.00000000000E+00 0. -1.
         -3    1    3    3    0  502  0.45577402937E+02  0.42815924878E+02  0.38665237144E+02  0.73522130308E+02  0.00000000000E+00 0.  1.
         11    1    5    5    0    0 -0.25304229547E+03 -0.67879563383E+03 -0.54018330808E+01  0.72444675139E+03  0.00000000000E+00 0.  1.
        -11    1    5    5    0    0 -0.96697872415E+01 -0.17294120923E+02  0.15510134419E+02  0.25162584793E+02  0.00000000000E+00 0. -1.
          1    1    6    6  503    0 -0.21295108042E+03  0.25763007702E+02  0.14999051498E+03  0.26174233475E+03  0.00000000000E+00 0. -1.
         -1    1    6    6    0  503 -0.28280631886E+03  0.10613323603E+03  0.11890927699E+03  0.32462762349E+03  0.00000000000E+00 0.  1.
<mgrwt>
<rscale>  0 0.24030798E+04</rscale>
<asrwt>0</asrwt>
<pdfrwt beam="1">  1        2 0.31088191E+00 0.24030798E+04</pdfrwt>
<pdfrwt beam="2">  1       -2 0.10991431E+00 0.24030798E+04</pdfrwt>
<totfact> 0.38499182E+00</totfact>
</mgrwt>
</event>
<event>
12    2  0.8147979E-008  0.2041282E+04  0.7818608E-02  0.8587560E-01
         -1   -1    0    0    0  501 -0.00000000000E+00  0.00000000000E+00  0.11618199123E+04  0.11618199123E+04  0.00000000000E+00 0.  1.
          1   -1    0    0  501    0  0.00000000000E+00 -0.00000000000E+00 -0.89661754672E+03  0.89661754672E+03  0.00000000000E+00 0. -1.
         23    2    1    2    0    0  0.61075276624E+03 -0.42692017464E+03  0.45416594018E+03  0.87721563502E+03  0.89223271240E+02 0.  0.
        254    2    1    2    0    0 -0.61075276624E+03  0.42692017464E+03 -0.18896357462E+03  0.11812218240E+04  0.89682662088E+03 0.  0.
         23    2    4    4    0    0  0.20901243779E+02 -0.78339229445E+02 -0.33295573376E+03  0.35472037823E+03  0.91614023076E+02 0.  0.
         23    2    4    4    0    0 -0.63165401002E+03  0.50525940409E+03  0.14399215914E+03  0.82650144575E+03  0.89983577049E+02 0.  0.
          3    1    3    3  502    0  0.22094482776E+03 -0.14173632219E+03  0.11247983160E+03  0.28558276288E+03  0.00000000000E+00 0. -1.
         -3    1    3    3    0  502  0.38980793848E+03 -0.28518385246E+03  0.34168610857E+03  0.59163287214E+03  0.00000000000E+00 0.  1.
         11    1    5    5    0    0 -0.32906152252E+02 -0.53609539858E+02 -0.16089185422E+03  0.17275122684E+03  0.00000000000E+00 0. -1.
        -11    1    5    5    0    0  0.53807396031E+02 -0.24729689588E+02 -0.17206387954E+03  0.18196915139E+03  0.00000000000E+00 0.  1.
          2    1    6    6  503    0 -0.12888232560E+02  0.32790439333E+02  0.89730205603E+01  0.36357042621E+02  0.00000000000E+00 0. -1.
         -2    1    6    6    0  503 -0.61876577746E+03  0.47246896475E+03  0.13501913858E+03  0.79014440313E+03  0.00000000000E+00 0.  1.
<mgrwt>
<rscale>  0 0.20412821E+04</rscale>
<asrwt>0</asrwt>
<pdfrwt beam="1">  1        1 0.13794116E+00 0.20412821E+04</pdfrwt>
<pdfrwt beam="2">  1       -1 0.17874152E+00 0.20412821E+04</pdfrwt>
<totfact> 0.35971556E+00</totfact>
</mgrwt>
</event>
<event>
12    2  0.8147979E-008  0.1491531E+04  0.7818608E-02  0.8890104E-01
          2   -1    0    0  501    0  0.00000000000E+00  0.00000000000E+00  0.68876500347E+03  0.68876500347E+03  0.00000000000E+00 0. -1.
         -2   -1    0    0    0  501 -0.00000000000E+00 -0.00000000000E+00 -0.80748351958E+03  0.80748351958E+03  0.00000000000E+00 0.  1.
         23    2    1    2    0    0 -0.42078459789E+03 -0.13142315971E+03  0.12297070679E+03  0.46704020317E+03  0.93129114208E+02 0.  0.
        254    2    1    2    0    0  0.42078459789E+03  0.13142315971E+03 -0.24168922290E+03  0.10292083199E+04  0.89806701338E+03 0.  0.
         23    2    4    4    0    0  0.35581892871E+03 -0.37316730446E+02  0.28353005077E+03  0.46541666712E+03  0.90684816491E+02 0.  0.
         23    2    4    4    0    0  0.64965669179E+02  0.16873989016E+03 -0.52521927367E+03  0.56379165276E+03  0.96498982341E+02 0.  0.
          3    1    3    3  502    0 -0.12041786288E+03 -0.66817630022E+02  0.46013801290E+01  0.13779052972E+03  0.00000000000E+00 0. -1.
         -3    1    3    3    0  502 -0.30036673501E+03 -0.64605529693E+02  0.11836932666E+03  0.32924967345E+03  0.00000000000E+00 0.  1.
         11    1    5    5    0    0 -0.37226329080E+01  0.51167256525E+01  0.92795588246E+01  0.11231611156E+02  0.00000000000E+00 0.  1.
        -11    1    5    5    0    0  0.35954156162E+03 -0.42433456098E+02  0.27425049195E+03  0.45418505597E+03  0.00000000000E+00 0. -1.
          1    1    6    6  503    0  0.67381125128E+02  0.12293992927E+03 -0.47729119275E+03  0.49745484710E+03  0.00000000000E+00 0. -1.
         -1    1    6    6    0  503 -0.24154559499E+01  0.45799960886E+02 -0.47928080920E+02  0.66336805661E+02  0.00000000000E+00 0.  1.
<mgrwt>
<rscale>  0 0.14915313E+04</rscale>
<asrwt>0</asrwt>
<pdfrwt beam="1">  1        2 0.10596385E+00 0.14915313E+04</pdfrwt>
<pdfrwt beam="2">  1       -2 0.12422823E+00 0.14915313E+04</pdfrwt>
<totfact> 0.19686118E+01</totfact>
</mgrwt>
</event>
<event>
12    2  0.8147979E-008  0.3551185E+04  0.7818608E-02  0.8101766E-01
         -1   -1    0    0    0  501 -0.00000000000E+00  0.00000000000E+00  0.22221195718E+04  0.22221195718E+04  0.00000000000E+00 0.  1.
          1   -1    0    0  501    0  0.00000000000E+00 -0.00000000000E+00 -0.14187933511E+04  0.14187933511E+04  0.00000000000E+00 0. -1.
         23    2    1    2    0    0  0.15049995844E+04 -0.36706526970E+03 -0.23483984415E+03  0.15693482818E+04  0.89126964362E+02 0.  0.
        254    2    1    2    0    0 -0.15049995844E+04  0.36706526970E+03  0.10381660648E+04  0.20715646412E+04  0.90212561383E+03 0.  0.
         23    2    4    4    0    0 -0.75078078243E+03 -0.26599491868E+03  0.42177409507E+03  0.90622332368E+03  0.94457636396E+02 0.  0.
         23    2    4    4    0    0 -0.75421880197E+03  0.63306018839E+03  0.61639196973E+03  0.11653413175E+04  0.92033268520E+02 0.  0.
          1    1    3    3  502    0  0.46708778490E+03 -0.72697502277E+02 -0.80482642320E+02  0.47951369257E+03  0.00000000000E+00 0.  1.
         -1    1    3    3    0  502  0.10379117995E+04 -0.29436776743E+03 -0.15435720183E+03  0.10898345892E+04  0.00000000000E+00 0. -1.
         11    1    5    5    0    0 -0.15392221350E+03 -0.85182203690E+02  0.63742150777E+02  0.18711257953E+03  0.00000000000E+00 0. -1.
        -11    1    5    5    0    0 -0.59685856894E+03 -0.18081271500E+03  0.35803194429E+03  0.71911074415E+03  0.00000000000E+00 0.  1.
          4    1    6    6  503    0 -0.14725734232E+03  0.96768618317E+02  0.14507303307E+03  0.22824345616E+03  0.00000000000E+00 0. -1.
         -4    1    6    6    0  503 -0.60696145965E+03  0.53629157007E+03  0.47131893667E+03  0.93709786132E+03  0.00000000000E+00 0.  1.
<mgrwt>
<rscale>  0 0.35511849E+04</rscale>
<asrwt>0</asrwt>
<pdfrwt beam="1">  1        1 0.21827590E+00 0.35511849E+04</pdfrwt>
<pdfrwt beam="2">  1       -1 0.34186455E+00 0.35511849E+04</pdfrwt>
<totfact> 0.10644577E-01</totfact>
</mgrwt>
</event>
<event>
12    2  0.8147979E-008  0.1329009E+04  0.7818608E-02  0.9006872E-01
         -2   -1    0    0    0  501 -0.00000000000E+00  0.00000000000E+00  0.90329929388E+03  0.90329929388E+03  0.00000000000E+00 0.  1.
          2   -1    0    0  501    0  0.00000000000E+00 -0.00000000000E+00 -0.48883742628E+03  0.48883742628E+03  0.00000000000E+00 0. -1.
         23    2    1    2    0    0  0.22406874697E+03  0.26020060513E+03  0.73147183603E+02  0.36326489026E+03  0.93272245305E+02 0.  0.
        254    2    1    2    0    0 -0.22406874697E+03 -0.26020060513E+03  0.34131468400E+03  0.10288718299E+04  0.90783829539E+03 0.  0.
         23    2    4    4    0    0  0.23963746431E+03 -0.38854487553E+03  0.75034335422E+02  0.47175416749E+03  0.92350465339E+02 0.  0.
         23    2    4    4    0    0 -0.46370621128E+03  0.12834427040E+03  0.26628034858E+03  0.55711766241E+03  0.89326164194E+02 0.  0.
          3    1    3    3  502    0  0.12985219425E+03  0.13356942949E+03 -0.66489687335E+01  0.18640438201E+03  0.00000000000E+00 0. -1.
         -3    1    3    3    0  502  0.94216552719E+02  0.12663117564E+03  0.79796152336E+02  0.17686050825E+03  0.00000000000E+00 0.  1.
         11    1    5    5    0    0  0.22168083365E+03 -0.32103122676E+03  0.89836550192E+02  0.40034241134E+03  0.00000000000E+00 0. -1.
        -11    1    5    5    0    0  0.17956630663E+02 -0.67513648769E+02 -0.14802214771E+02  0.71411756154E+02  0.00000000000E+00 0.  1.
          3    1    6    6  503    0 -0.31646012576E+03  0.43745780720E+02  0.17845547584E+03  0.36593313786E+03  0.00000000000E+00 0. -1.
         -3    1    6    6    0  503 -0.14724608552E+03  0.84598489681E+02  0.87824872736E+02  0.19118452455E+03  0.00000000000E+00 0.  1.
<mgrwt>
<rscale>  0 0.13290094E+04</rscale>
<asrwt>0</asrwt>
<pdfrwt beam="1">  1        2 0.75205758E-01 0.13290094E+04</pdfrwt>
<pdfrwt beam="2">  1       -2 0.13896912E+00 0.13290094E+04</pdfrwt>
<totfact> 0.22624618E+01</totfact>
</mgrwt>
</event>
<event>
12    2  0.8147979E-008  0.2688934E+04  0.7818608E-02  0.8338605E-01
          1   -1    0    0  501    0  0.00000000000E+00  0.00000000000E+00  0.14055880509E+04  0.14055880509E+04  0.00000000000E+00 0. -1.
         -1   -1    0    0    0  501 -0.00000000000E+00 -0.00000000000E+00 -0.12860035333E+04  0.12860035333E+04  0.00000000000E+00 0.  1.
         23    2    1    2    0    0 -0.47259190799E+03  0.29508177081E+03  0.11102286599E+04  0.12459611972E+04  0.96929174333E+02 0.  0.
        254    2    1    2    0    0  0.47259190799E+03 -0.29508177081E+03 -0.99064414226E+03  0.14456303869E+04  0.89333926140E+03 0.  0.
         23    2    4    4    0    0  0.14738626405E+03 -0.42631031151E+03 -0.98047937473E+03  0.10830969192E+04  0.91082048837E+02 0.  0.
         23    2    4    4    0    0  0.32520564394E+03  0.13122854070E+03 -0.10164767526E+02  0.36253346767E+03  0.91364938234E+02 0.  0.
          1    1    3    3  502    0 -0.27478025283E+03  0.11525631486E+03  0.60224961742E+03  0.67193214475E+03  0.00000000000E+00 0. -1.
         -1    1    3    3    0  502 -0.19781165516E+03  0.17982545595E+03  0.50797904246E+03  0.57402905250E+03  0.00000000000E+00 0.  1.
         11    1    5    5    0    0  0.30603921412E+02 -0.20690684093E+03 -0.50429889198E+03  0.54595275738E+03  0.00000000000E+00 0. -1.
        -11    1    5    5    0    0  0.11678234264E+03 -0.21940347058E+03 -0.47618048275E+03  0.53714416184E+03  0.00000000000E+00 0.  1.
          2    1    6    6  503    0  0.30878522734E+03  0.12450749001E+03 -0.31910541160E+02  0.33446780761E+03  0.00000000000E+00 0. -1.
         -2    1    6    6    0  503  0.16420416607E+02  0.67210506851E+01  0.21745773634E+02  0.28065660064E+02  0.00000000000E+00 0.  1.
<mgrwt>
<rscale>  0 0.26889338E+04</rscale>
<asrwt>0</asrwt>
<pdfrwt beam="1">  1        1 0.21624432E+00 0.26889338E+04</pdfrwt>
<pdfrwt beam="2">  1       -1 0.19784670E+00 0.26889338E+04</pdfrwt>
<totfact> 0.10364874E+00</totfact>
</mgrwt>
</event>
<event>
12    2  0.8147979E-008  0.1616522E+04  0.7818608E-02  0.8810462E-01
          1   -1    0    0  501    0  0.00000000000E+00  0.00000000000E+00  0.13315309300E+04  0.13315309300E+04  0.00000000000E+00 0. -1.
         -1   -1    0    0    0  501 -0.00000000000E+00 -0.00000000000E+00 -0.49062766148E+03  0.49062766148E+03  0.00000000000E+00 0.  1.
         23    2    1    2    0    0  0.51351348604E+03 -0.88508720392E+02  0.81048262467E+02  0.53512790824E+03  0.90901943877E+02 0.  0.
        254    2    1    2    0    0 -0.51351348604E+03  0.88508720392E+02  0.75985500602E+03  0.12870306832E+04  0.89863143470E+03 0.  0.
         23    2    4    4    0    0  0.17819645139E+03 -0.19406525434E+03  0.14248437329E+03  0.31345360201E+03  0.92390831554E+02 0.  0.
         23    2    4    4    0    0 -0.69170993743E+03  0.28257397473E+03  0.61737063273E+03  0.97357708120E+03  0.91625030158E+02 0.  0.
          3    1    3    3  502    0  0.47092252832E+03 -0.10128328575E+03  0.89312210838E+02  0.48990101312E+03  0.00000000000E+00 0. -1.
         -3    1    3    3    0  502  0.42590957719E+02  0.12774565361E+02 -0.82639483707E+01  0.45226895121E+02  0.00000000000E+00 0.  1.
         11    1    5    5    0    0  0.14189688362E+03 -0.18854252944E+03  0.14446593808E+03  0.27668288392E+03  0.00000000000E+00 0.  1.
        -11    1    5    5    0    0  0.36299567764E+02 -0.55227248978E+01 -0.19815647869E+01  0.36770718094E+02  0.00000000000E+00 0. -1.
          4    1    6    6  503    0 -0.35197290072E+03  0.10010997286E+03  0.32843376128E+03  0.49170688937E+03  0.00000000000E+00 0. -1.
         -4    1    6    6    0  503 -0.33973703671E+03  0.18246400187E+03  0.28893687145E+03  0.48187019183E+03  0.00000000000E+00 0.  1.
<mgrwt>
<rscale>  0 0.16165221E+04</rscale>
<asrwt>0</asrwt>
<pdfrwt beam="1">  1        1 0.20485091E+00 0.16165221E+04</pdfrwt>
<pdfrwt beam="2">  1       -1 0.75481179E-01 0.16165221E+04</pdfrwt>
<totfact> 0.14519002E+01</totfact>
</mgrwt>
</event>
<event>
12    2  0.8147979E-008  0.1681073E+04  0.7818608E-02  0.8772234E-01
          3   -1    0    0  501    0  0.00000000000E+00  0.00000000000E+00  0.14307863797E+04  0.14307863797E+04  0.00000000000E+00 0. -1.
         -3   -1    0    0    0  501 -0.00000000000E+00 -0.00000000000E+00 -0.49378532998E+03  0.49378532998E+03  0.00000000000E+00 0.  1.
         23    2    1    2    0    0 -0.52271868346E+02 -0.34933083330E+03  0.88930877718E+03  0.96066562580E+03  0.85111480385E+02 0.  0.
        254    2    1    2    0    0  0.52271868346E+02  0.34933083330E+03  0.47692272579E+02  0.96390608394E+03  0.89558696198E+03 0.  0.
         23    2    4    4    0    0  0.26603579628E+03  0.11961060540E+03 -0.34051618655E+03  0.45648774299E+03  0.85720734823E+02 0.  0.
         23    2    4    4    0    0 -0.21376392793E+03  0.22972022791E+03  0.38820845913E+03  0.50741834094E+03  0.91110729289E+02 0.  0.
          3    1    3    3  502    0  0.98530925861E+01 -0.42153550423E+01  0.48392574607E+02  0.49565047450E+02  0.00000000000E+00 0. -1.
         -3    1    3    3    0  502 -0.62124960932E+02 -0.34511547826E+03  0.84091620258E+03  0.91110057835E+03  0.00000000000E+00 0.  1.
         11    1    5    5    0    0  0.13023936331E+03  0.89504996334E+02 -0.22887686167E+03  0.27813315863E+03  0.00000000000E+00 0. -1.
        -11    1    5    5    0    0  0.13579643296E+03  0.30105609066E+02 -0.11163932488E+03  0.17835458436E+03  0.00000000000E+00 0.  1.
          2    1    6    6  503    0 -0.18219498036E+03  0.16606652743E+03  0.34578444448E+03  0.42466455520E+03  0.00000000000E+00 0. -1.
         -2    1    6    6    0  503 -0.31568947565E+02  0.63653700478E+02  0.42424014647E+02  0.82753785736E+02  0.00000000000E+00 0.  1.
<mgrwt>
<rscale>  0 0.16810727E+04</rscale>
<asrwt>0</asrwt>
<pdfrwt beam="1">  1        3 0.22012098E+00 0.16810727E+04</pdfrwt>
<pdfrwt beam="2">  1       -3 0.75966974E-01 0.16810727E+04</pdfrwt>
<totfact> 0.45063977E-01</totfact>
</mgrwt>
</event>
<event>
12    2  0.8147979E-008  0.1606136E+04  0.7818608E-02  0.8816787E-01
          2   -1    0    0  501    0  0.00000000000E+00  0.00000000000E+00  0.29192750107E+04  0.29192750107E+04  0.00000000000E+00 0. -1.
         -2   -1    0    0    0  501 -0.00000000000E+00 -0.00000000000E+00 -0.22091738631E+03  0.22091738631E+03  0.00000000000E+00 0.  1.
         23    2    1    2    0    0 -0.43562414102E+03  0.27574039969E+03  0.57814448896E+03  0.78001187792E+03  0.91467586127E+02 0.  0.
        254    2    1    2    0    0  0.43562414102E+03 -0.27574039969E+03  0.21202131354E+04  0.23601805191E+04  0.89963725065E+03 0.  0.
         23    2    4    4    0    0  0.38763139182E+03 -0.56701048313E+03  0.11558095363E+04  0.13475741173E+04  0.91111654330E+02 0.  0.
         23    2    4    4    0    0  0.47992749201E+02  0.29127008344E+03  0.96440359915E+03  0.10126064018E+04  0.90309785780E+02 0.  0.
          3    1    3    3  502    0 -0.41213352756E+03  0.23165093201E+03  0.53542618509E+03  0.71428103610E+03  0.00000000000E+00 0. -1.
         -3    1    3    3    0  502 -0.23490613461E+02  0.44089467682E+02  0.42718303866E+02  0.65730841821E+02  0.00000000000E+00 0.  1.
         11    1    5    5    0    0  0.46704087686E+02 -0.63258002815E+02  0.83091965020E+02  0.11439895707E+03  0.00000000000E+00 0. -1.
        -11    1    5    5    0    0  0.34092730414E+03 -0.50375248032E+03  0.10727175713E+04  0.12331751602E+04  0.00000000000E+00 0.  1.
          4    1    6    6  503    0  0.11501175669E+02  0.13870434346E+02  0.15840496128E+03  0.15942646502E+03  0.00000000000E+00 0. -1.
         -4    1    6    6    0  503  0.36491573533E+02  0.27739964909E+03  0.80599863786E+03  0.85317993676E+03  0.00000000000E+00 0.  1.
<mgrwt>
<rscale>  0 0.16061365E+04</rscale>
<asrwt>0</asrwt>
<pdfrwt beam="1">  1        2 0.44911921E+00 0.16061365E+04</pdfrwt>
<pdfrwt beam="2">  1       -2 0.33987292E-01 0.16061365E+04</pdfrwt>
<totfact> 0.15260427E+01</totfact>
</mgrwt>
</event>
<event>
12    2  0.8147979E-008  0.1423870E+04  0.7818608E-02  0.8936719E-01
          1   -1    0    0  501    0  0.00000000000E+00  0.00000000000E+00  0.11822384078E+04  0.11822384078E+04  0.00000000000E+00 0. -1.
         -1   -1    0    0    0  501 -0.00000000000E+00 -0.00000000000E+00 -0.42872164728E+03  0.42872164728E+03  0.00000000000E+00 0.  1.
         23    2    1    2    0    0 -0.35962741750E+03  0.21287446633E+03  0.16940622106E+03  0.45980274035E+03  0.89848063236E+02 0.  0.
        254    2    1    2    0    0  0.35962741750E+03 -0.21287446633E+03  0.58411053945E+03  0.11511573147E+04  0.89962804709E+03 0.  0.
         23    2    4    4    0    0  0.49087739722E+02  0.33572662089E+03  0.16193277108E+03  0.38699457184E+03  0.91763860662E+02 0.  0.
         23    2    4    4    0    0  0.31053967777E+03 -0.54860108721E+03  0.42217776838E+03  0.76416274288E+03  0.91173379509E+02 0.  0.
          2    1    3    3  502    0 -0.34270653498E+03  0.20427501857E+03  0.18041029001E+03  0.43786290671E+03  0.00000000000E+00 0. -1.
         -2    1    3    3    0  502 -0.16920882521E+02  0.85994477527E+01 -0.11004068943E+02  0.21939833642E+02  0.00000000000E+00 0.  1.
         11    1    5    5    0    0  0.83021894484E+01  0.10288668979E+03  0.97491827457E+02  0.14198328671E+03  0.00000000000E+00 0. -1.
        -11    1    5    5    0    0  0.40785550274E+02  0.23283993110E+03  0.64440943618E+02  0.24501128513E+03  0.00000000000E+00 0.  1.
          1    1    6    6  503    0  0.20392295323E+03 -0.36871990565E+03  0.22939070425E+03  0.47974892899E+03  0.00000000000E+00 0. -1.
         -1    1    6    6    0  503  0.10661672454E+03 -0.17988118156E+03  0.19278706413E+03  0.28441381389E+03  0.00000000000E+00 0.  1.
<mgrwt>
<rscale>  0 0.14238697E+04</rscale>
<asrwt>0</asrwt>
<pdfrwt beam="1">  1        1 0.18188283E+00 0.14238697E+04</pdfrwt>
<pdfrwt beam="2">  1       -1 0.65957177E-01 0.14238697E+04</pdfrwt>
<totfact> 0.24967771E+01</totfact>
</mgrwt>
</event>
<event>
12    2  0.8147979E-008  0.2263710E+04  0.7818608E-02  0.8492369E-01
          2   -1    0    0  501    0  0.00000000000E+00  0.00000000000E+00  0.28757542848E+04  0.28757542848E+04  0.00000000000E+00 0.  1.
         -2   -1    0    0    0  501 -0.00000000000E+00 -0.00000000000E+00 -0.44548169137E+03  0.44548169137E+03  0.00000000000E+00 0. -1.
         23    2    1    2    0    0 -0.38968459464E+03 -0.74426927087E+03  0.16761964060E+04  0.18770383592E+04  0.88587694400E+02 0.  0.
        254    2    1    2    0    0  0.38968459464E+03  0.74426927087E+03  0.75407618739E+03  0.14441976169E+04  0.90071362235E+03 0.  0.
         23    2    4    4    0    0 -0.23879379250E+03  0.22870598876E+02  0.24982749263E+03  0.35830639894E+03  0.91783221894E+02 0.  0.
         23    2    4    4    0    0  0.62847838714E+03  0.72139867200E+03  0.50424869476E+03  0.10858912180E+04  0.97426198067E+02 0.  0.
          4    1    3    3  502    0 -0.22125609176E+03 -0.37570206784E+03  0.95417734083E+03  0.10490761172E+04  0.00000000000E+00 0. -1.
         -4    1    3    3    0  502 -0.16842850288E+03 -0.36856720303E+03  0.72201906519E+03  0.82796224203E+03  0.00000000000E+00 0.  1.
         11    1    5    5    0    0 -0.12922788869E+03 -0.18394090351E+02  0.17876693759E+03  0.22134996669E+03  0.00000000000E+00 0.  1.
        -11    1    5    5    0    0 -0.10956590381E+03  0.41264689227E+02  0.71060555032E+02  0.13695643226E+03  0.00000000000E+00 0. -1.
          1    1    6    6  503    0  0.47598195377E+03  0.47955084094E+03  0.36255572963E+03  0.76679494420E+03  0.00000000000E+00 0. -1.
         -1    1    6    6    0  503  0.15249643337E+03  0.24184783105E+03  0.14169296512E+03  0.31909627378E+03  0.00000000000E+00 0.  1.
<mgrwt>
<rscale>  0 0.22637101E+04</rscale>
<asrwt>0</asrwt>
<pdfrwt beam="1">  1        2 0.44242372E+00 0.22637101E+04</pdfrwt>
<pdfrwt beam="2">  1       -2 0.68535647E-01 0.22637101E+04</pdfrwt>
<totfact> 0.36827070E+00</totfact>
</mgrwt>
</event>
<event>
12    2  0.8147979E-008  0.2073194E+04  0.7818608E-02  0.8573145E-01
          1   -1    0    0  501    0  0.00000000000E+00  0.00000000000E+00  0.50935394811E+03  0.50935394811E+03  0.00000000000E+00 0. -1.
         -1   -1    0    0    0  501 -0.00000000000E+00 -0.00000000000E+00 -0.21095999766E+04  0.21095999766E+04  0.00000000000E+00 0.  1.
         23    2    1    2    0    0  0.15024016137E+03  0.77094404253E+03 -0.28174726600E+03  0.83936996908E+03  0.90739188353E+02 0.  0.
        254    2    1    2    0    0 -0.15024016137E+03 -0.77094404253E+03 -0.13184987625E+04  0.17795839557E+04  0.90086250100E+03 0.  0.
         23    2    4    4    0    0 -0.29594682019E+03 -0.69557481682E+02 -0.87833345045E+03  0.93393427428E+03  0.91328061747E+02 0.  0.
         23    2    4    4    0    0  0.14570665882E+03 -0.70138656084E+03 -0.44016531207E+03  0.84564968138E+03  0.90577831260E+02 0.  0.
          3    1    3    3  502    0  0.87244286885E+02  0.51878426898E+03 -0.14502408392E+03  0.54569283324E+03  0.00000000000E+00 0. -1.
         -3    1    3    3    0  502  0.62995874483E+02  0.25215977355E+03 -0.13672318208E+03  0.29367713584E+03  0.00000000000E+00 0.  1.
         11    1    5    5    0    0 -0.21245463390E+03 -0.64143736363E+02 -0.73704001633E+03  0.76972681911E+03  0.00000000000E+00 0.  1.
        -11    1    5    5    0    0 -0.83492186292E+02 -0.54137453195E+01 -0.14129343412E+03  0.16420745517E+03  0.00000000000E+00 0. -1.
          4    1    6    6  503    0  0.56220530769E+02 -0.10602735801E+03 -0.74605260328E+02  0.14130992037E+03  0.00000000000E+00 0. -1.
         -4    1    6    6    0  503  0.89486128056E+02 -0.59535920284E+03 -0.36556005174E+03  0.70433976102E+03  0.00000000000E+00 0.  1.
<mgrwt>
<rscale>  0 0.20731937E+04</rscale>
<asrwt>0</asrwt>
<pdfrwt beam="1">  1        1 0.78362146E-01 0.20731937E+04</pdfrwt>
<pdfrwt beam="2">  1       -1 0.32455384E+00 0.20731937E+04</pdfrwt>
<totfact> 0.91091266E-01</totfact>
</mgrwt>
</event>
<event>
12    2  0.8147979E-008  0.2039189E+04  0.7818608E-02  0.8588515E-01
          2   -1    0    0  501    0  0.00000000000E+00  0.00000000000E+00  0.83479158014E+03  0.83479158014E+03  0.00000000000E+00 0. -1.
         -2   -1    0    0    0  501 -0.00000000000E+00 -0.00000000000E+00 -0.12453080479E+04  0.12453080479E+04  0.00000000000E+00 0.  1.
         23    2    1    2    0    0 -0.66815673911E+03  0.43660510539E+03  0.18422344651E+02  0.80344033574E+03  0.90108513762E+02 0.  0.
        254    2    1    2    0    0  0.66815673911E+03 -0.43660510539E+03 -0.42893881242E+03  0.12766592923E+04  0.89934031253E+03 0.  0.
         23    2    4    4    0    0  0.24932422136E+02 -0.34241486967E+03  0.16488287319E+03  0.39157216475E+03  0.90955097095E+02 0.  0.
         23    2    4    4    0    0  0.64322431697E+03 -0.94190235716E+02 -0.59382168561E+03  0.88508712755E+03  0.90253568358E+02 0.  0.
          1    1    3    3  502    0 -0.51600466280E+03  0.29268901845E+03  0.26800912198E+02  0.59384001418E+03  0.00000000000E+00 0. -1.
         -1    1    3    3    0  502 -0.15215207631E+03  0.14391608693E+03 -0.83785675465E+01  0.20960032156E+03  0.00000000000E+00 0.  1.
         11    1    5    5    0    0  0.58404518265E+02 -0.21251453206E+03  0.91138928583E+02  0.23849490224E+03  0.00000000000E+00 0. -1.
        -11    1    5    5    0    0 -0.33472096129E+02 -0.12990033761E+03  0.73743944609E+02  0.15307726251E+03  0.00000000000E+00 0.  1.
          4    1    6    6  503    0  0.42545691654E+03 -0.97884721923E+02 -0.42771542797E+03  0.61117550175E+03  0.00000000000E+00 0.  1.
         -4    1    6    6    0  503  0.21776740043E+03  0.36944862077E+01 -0.16610625764E+03  0.27391162580E+03  0.00000000000E+00 0. -1.
<mgrwt>
<rscale>  0 0.20391887E+04</rscale>
<asrwt>0</asrwt>
<pdfrwt beam="1">  1        2 0.12842947E+00 0.20391887E+04</pdfrwt>
<pdfrwt beam="2">  1       -2 0.19158585E+00 0.20391887E+04</pdfrwt>
<totfact> 0.45545117E+00</totfact>
</mgrwt>
</event>
<event>
12    2  0.8147979E-008  0.1503525E+04  0.7818608E-02  0.8882112E-01
          2   -1    0    0  501    0  0.00000000000E+00  0.00000000000E+00  0.89786804886E+03  0.89786804886E+03  0.00000000000E+00 0. -1.
         -2   -1    0    0    0  501 -0.00000000000E+00 -0.00000000000E+00 -0.62943228247E+03  0.62943228247E+03  0.00000000000E+00 0.  1.
         23    2    1    2    0    0 -0.25351625916E+03  0.29369204468E+03 -0.19300520958E+03  0.44340881801E+03  0.93993926349E+02 0.  0.
        254    2    1    2    0    0  0.25351625916E+03 -0.29369204468E+03  0.46144097597E+03  0.10838915133E+04  0.90075941716E+03 0.  0.
         23    2    4    4    0    0 -0.14018976296E+03 -0.48774392308E+03  0.34546954641E+03  0.62055925540E+03  0.90538819415E+02 0.  0.
         23    2    4    4    0    0  0.39370602213E+03  0.19405187840E+03  0.11597142955E+03  0.46333225793E+03  0.92557254687E+02 0.  0.
          4    1    3    3  502    0 -0.26163036198E+03  0.28129431587E+03 -0.18856256243E+03  0.42794015750E+03  0.00000000000E+00 0.  1.
         -4    1    3    3    0  502  0.81141028142E+01  0.12397728814E+02 -0.44426471461E+01  0.15468660507E+02  0.00000000000E+00 0. -1.
         11    1    5    5    0    0  0.51187584826E+00 -0.37526291122E+02  0.55067864611E+02  0.66640485105E+02  0.00000000000E+00 0.  1.
        -11    1    5    5    0    0 -0.14070163881E+03 -0.45021763196E+03  0.29040168180E+03  0.55391877030E+03  0.00000000000E+00 0. -1.
          4    1    6    6  503    0  0.37984209675E+03  0.18405424842E+03  0.12953176560E+03  0.44151383118E+03  0.00000000000E+00 0. -1.
         -4    1    6    6    0  503  0.13863925374E+02  0.99976299793E+01 -0.13560336045E+02  0.21818426745E+02  0.00000000000E+00 0.  1.
<mgrwt>
<rscale>  0 0.15035254E+04</rscale>
<asrwt>0</asrwt>
<pdfrwt beam="1">  1        2 0.13813355E+00 0.15035254E+04</pdfrwt>
<pdfrwt beam="2">  1       -2 0.96835736E-01 0.15035254E+04</pdfrwt>
<totfact> 0.25328883E+01</totfact>
</mgrwt>
</event>
<event>
12    2  0.8147979E-008  0.2888932E+04  0.7818608E-02  0.8276178E-01
         -1   -1    0    0    0  501 -0.00000000000E+00  0.00000000000E+00  0.87078663189E+03  0.87078663189E+03  0.00000000000E+00 0.  1.
          1   -1    0    0  501    0  0.00000000000E+00 -0.00000000000E+00 -0.23960889320E+04  0.23960889320E+04  0.00000000000E+00 0. -1.
         23    2    1    2    0    0  0.15539506669E+03 -0.12385845010E+04 -0.26448071775E+03  0.12793339908E+04  0.92229155074E+02 0.  0.
        254    2    1    2    0    0 -0.15539506669E+03  0.12385845010E+04 -0.12608215824E+04  0.19875415732E+04  0.89577410635E+03 0.  0.
         23    2    4    4    0    0 -0.28997517245E+02  0.99053312747E+02  0.12632975426E+03  0.18561526120E+03  0.88551700196E+02 0.  0.
         23    2    4    4    0    0 -0.12639754944E+03  0.11395311882E+04 -0.13871513366E+04  0.18019263120E+04  0.90785095163E+02 0.  0.
          4    1    3    3  502    0  0.68986681537E+02 -0.86880736119E+03 -0.19935055329E+03  0.89405035439E+03  0.00000000000E+00 0. -1.
         -4    1    3    3    0  502  0.86408385151E+02 -0.36977713979E+03 -0.65130164459E+02  0.38528363637E+03  0.00000000000E+00 0.  1.
         11    1    5    5    0    0  0.29979036757E+02  0.47292952411E+02  0.66529181017E+02  0.86956873906E+02  0.00000000000E+00 0. -1.
        -11    1    5    5    0    0 -0.58976554002E+02  0.51760360336E+02  0.59800573244E+02  0.98658387298E+02  0.00000000000E+00 0.  1.
          4    1    6    6  503    0 -0.11357066414E+03  0.97423117326E+03 -0.11341592773E+04  0.14994472118E+04  0.00000000000E+00 0. -1.
         -4    1    6    6    0  503 -0.12826885300E+02  0.16530001497E+03 -0.25299205934E+03  0.30247910015E+03  0.00000000000E+00 0.  1.
<mgrwt>
<rscale>  0 0.28889321E+04</rscale>
<asrwt>0</asrwt>
<pdfrwt beam="1">  1        1 0.36862906E+00 0.28889321E+04</pdfrwt>
<pdfrwt beam="2">  1       -1 0.13396718E+00 0.28889321E+04</pdfrwt>
<totfact> 0.64503184E-01</totfact>
</mgrwt>
</event>
<event>
12    2  0.8147979E-008  0.2045560E+04  0.7818608E-02  0.8585611E-01
         -2   -1    0    0    0  501 -0.00000000000E+00  0.00000000000E+00  0.71458513418E+03  0.71458513418E+03  0.00000000000E+00 0.  1.
          2   -1    0    0  501    0  0.00000000000E+00 -0.00000000000E+00 -0.14638965296E+04  0.14638965296E+04  0.00000000000E+00 0. -1.
         23    2    1    2    0    0 -0.28714308186E+03  0.62408720774E+02  0.51257973922E+03  0.59794038490E+03  0.91916902420E+02 0.  0.
        254    2    1    2    0    0  0.28714308186E+03 -0.62408720774E+02 -0.12618911346E+04  0.15805412788E+04  0.90520467335E+03 0.  0.
         23    2    4    4    0    0  0.32507231871E+00 -0.34131345608E+03 -0.10713690386E+04  0.11279833007E+04  0.89552939119E+02 0.  0.
         23    2    4    4    0    0  0.28681800954E+03  0.27890473531E+03 -0.19052209599E+03  0.45255797809E+03  0.91965387510E+02 0.  0.
          1    1    3    3  502    0 -0.29743743960E+02  0.12356648464E+02  0.15076506569E+02  0.35562313147E+02  0.00000000000E+00 0. -1.
         -1    1    3    3    0  502 -0.25739933789E+03  0.50052072311E+02  0.49750323265E+03  0.56237807175E+03  0.00000000000E+00 0.  1.
         11    1    5    5    0    0 -0.31251864835E+02 -0.56467861019E+02 -0.24368406019E+03  0.25208573854E+03  0.00000000000E+00 0. -1.
        -11    1    5    5    0    0  0.31576937154E+02 -0.28484559507E+03 -0.82768497842E+03  0.87589756221E+03  0.00000000000E+00 0.  1.
          2    1    6    6  503    0  0.18246874962E+02  0.15201451934E+02 -0.41349933911E+02  0.47684899299E+02  0.00000000000E+00 0. -1.
         -2    1    6    6    0  503  0.26857113457E+03  0.26370328338E+03 -0.14917216208E+03  0.40487307879E+03  0.00000000000E+00 0.  1.
<mgrwt>
<rscale>  0 0.20455598E+04</rscale>
<asrwt>0</asrwt>
<pdfrwt beam="1">  1        2 0.22521485E+00 0.20455598E+04</pdfrwt>
<pdfrwt beam="2">  1       -2 0.10993617E+00 0.20455598E+04</pdfrwt>
<totfact> 0.81047760E+00</totfact>
</mgrwt>
</event>
<event>
12    2  0.8147979E-008  0.1458863E+04  0.7818608E-02  0.8912279E-01
          1   -1    0    0  501    0  0.00000000000E+00  0.00000000000E+00  0.13589809675E+04  0.13589809675E+04  0.00000000000E+00 0. -1.
         -1   -1    0    0    0  501 -0.00000000000E+00 -0.00000000000E+00 -0.39152149629E+03  0.39152149629E+03  0.00000000000E+00 0.  1.
         23    2    1    2    0    0  0.27468345579E+03  0.32032081530E+03  0.33031735095E+03  0.54390999624E+03  0.93124143329E+02 0.  0.
        254    2    1    2    0    0 -0.27468345579E+03 -0.32032081530E+03  0.63714212024E+03  0.12065924675E+04  0.93373383558E+03 0.  0.
         23    2    4    4    0    0 -0.25109214371E+03  0.20246532068E+03 -0.49718791066E+02  0.33804080666E+03  0.88091759366E+02 0.  0.
         23    2    4    4    0    0 -0.23591312079E+02 -0.52278613598E+03  0.68686091130E+03  0.86855166086E+03  0.93499637085E+02 0.  0.
          4    1    3    3  502    0  0.37064981472E+02  0.10467318007E+03  0.77845603376E+02  0.13561056538E+03  0.00000000000E+00 0. -1.
         -4    1    3    3    0  502  0.23761847432E+03  0.21564763523E+03  0.25247174758E+03  0.40829943086E+03  0.00000000000E+00 0.  1.
         11    1    5    5    0    0 -0.74073552254E+02  0.11326918538E+03 -0.31700845621E+02  0.13900267304E+03  0.00000000000E+00 0. -1.
        -11    1    5    5    0    0 -0.17701859146E+03  0.89196135301E+02 -0.18017945445E+02  0.19903813361E+03  0.00000000000E+00 0.  1.
          2    1    6    6  503    0 -0.33000290340E+02 -0.46445234129E+03  0.55773703245E+03  0.72655047578E+03  0.00000000000E+00 0. -1.
         -2    1    6    6    0  503  0.94089782608E+01 -0.58333794690E+02  0.12912387885E+03  0.14200118508E+03  0.00000000000E+00 0.  1.
<mgrwt>
<rscale>  0 0.14588629E+04</rscale>
<asrwt>0</asrwt>
<pdfrwt beam="1">  1        1 0.20907399E+00 0.14588629E+04</pdfrwt>
<pdfrwt beam="2">  1       -1 0.60234077E-01 0.14588629E+04</pdfrwt>
<totfact> 0.22274775E+01</totfact>
</mgrwt>
</event>
<event>
12    2  0.8147979E-008  0.2071216E+04  0.7818608E-02  0.8574030E-01
          1   -1    0    0  501    0  0.00000000000E+00  0.00000000000E+00  0.77024075962E+03  0.77024075962E+03  0.00000000000E+00 0. -1.
         -1   -1    0    0    0  501 -0.00000000000E+00 -0.00000000000E+00 -0.13924002868E+04  0.13924002868E+04  0.00000000000E+00 0.  1.
         23    2    1    2    0    0 -0.58202128924E+03 -0.58526192924E+03 -0.39818401104E+03  0.92070013305E+03  0.88644917581E+02 0.  0.
        254    2    1    2    0    0  0.58202128924E+03  0.58526192924E+03 -0.22397551610E+03  0.12419409133E+04  0.90053977893E+03 0.  0.
         23    2    4    4    0    0 -0.26404307713E+02 -0.13682809312E+03 -0.23987242986E+03  0.29322322932E+03  0.94984025359E+02 0.  0.
         23    2    4    4    0    0  0.60842559695E+03  0.72209002236E+03  0.15896913763E+02  0.94871768400E+03  0.90646702330E+02 0.  0.
          1    1    3    3  502    0 -0.31879424936E+02 -0.64287727162E+02 -0.45463012956E+02  0.84947602350E+02  0.00000000000E+00 0. -1.
         -1    1    3    3    0  502 -0.55014186430E+03 -0.52097420207E+03 -0.35272099809E+03  0.83575253070E+03  0.00000000000E+00 0.  1.
         11    1    5    5    0    0  0.76485004697E+01  0.38667640772E+01 -0.67889346700E+02  0.68428172701E+02  0.00000000000E+00 0. -1.
        -11    1    5    5    0    0 -0.34052808183E+02 -0.14069485720E+03 -0.17198308316E+03  0.22479505662E+03  0.00000000000E+00 0.  1.
          2    1    6    6  503    0  0.16001680893E+03  0.14399259243E+03  0.27438359021E+02  0.21700716431E+03  0.00000000000E+00 0. -1.
         -2    1    6    6    0  503  0.44840878802E+03  0.57809742993E+03 -0.11541445258E+02  0.73171051969E+03  0.00000000000E+00 0.  1.
<mgrwt>
<rscale>  0 0.20712155E+04</rscale>
<asrwt>0</asrwt>
<pdfrwt beam="1">  1        1 0.11849858E+00 0.20712155E+04</pdfrwt>
<pdfrwt beam="2">  1       -1 0.21421543E+00 0.20712155E+04</pdfrwt>
<totfact> 0.26064256E+00</totfact>
</mgrwt>
</event>
<event>
12    2  0.8147979E-008  0.2949411E+04  0.7818608E-02  0.8258326E-01
         -2   -1    0    0    0  501 -0.00000000000E+00  0.00000000000E+00  0.83218194132E+03  0.83218194132E+03  0.00000000000E+00 0. -1.
          2   -1    0    0  501    0  0.00000000000E+00 -0.00000000000E+00 -0.26133191864E+04  0.26133191864E+04  0.00000000000E+00 0.  1.
         23    2    1    2    0    0 -0.66409660073E+01 -0.59641176961E+03  0.58687099201E+03  0.84234500563E+03  0.96832049842E+02 0.  0.
        254    2    1    2    0    0  0.66409660073E+01  0.59641176961E+03 -0.23680082371E+04  0.26031561221E+04  0.90178028571E+03 0.  0.
         23    2    4    4    0    0  0.36162820357E+03  0.15010953685E+02 -0.60861231395E+03  0.71422575473E+03  0.93323060878E+02 0.  0.
         23    2    4    4    0    0 -0.35498723756E+03  0.58140081593E+03 -0.17593959232E+04  0.18889303674E+04  0.92417913608E+02 0.  0.
          4    1    3    3  502    0 -0.11272936403E+02 -0.53184557858E+03  0.55960752306E+03  0.77210580778E+03  0.00000000000E+00 0. -1.
         -4    1    3    3    0  502  0.46319703959E+01 -0.64566191036E+02  0.27263468958E+02  0.70239197848E+02  0.00000000000E+00 0.  1.
         11    1    5    5    0    0  0.17458459465E+03  0.51920601895E+02 -0.32330216054E+03  0.37107925919E+03  0.00000000000E+00 0. -1.
        -11    1    5    5    0    0  0.18704360892E+03 -0.36909648210E+02 -0.28531015340E+03  0.34314649554E+03  0.00000000000E+00 0.  1.
          1    1    6    6  503    0 -0.34123771656E+02  0.17621610320E+02 -0.85247598422E+02  0.93499229831E+02  0.00000000000E+00 0. -1.
         -1    1    6    6    0  503 -0.32086346591E+03  0.56377920561E+03 -0.16741483248E+04  0.17954311376E+04  0.00000000000E+00 0.  1.
<mgrwt>
<rscale>  0 0.29494115E+04</rscale>
<asrwt>0</asrwt>
<pdfrwt beam="1">  1        2 0.40204910E+00 0.29494115E+04</pdfrwt>
<pdfrwt beam="2">  1       -2 0.12802799E+00 0.29494115E+04</pdfrwt>
<totfact> 0.11594210E+00</totfact>
</mgrwt>
</event>
<event>
12    2  0.8147979E-008  0.2082456E+04  0.7818608E-02  0.8569011E-01
         -1   -1    0    0    0  501 -0.00000000000E+00  0.00000000000E+00  0.11045172788E+04  0.11045172788E+04  0.00000000000E+00 0.  1.
          1   -1    0    0  501    0  0.00000000000E+00 -0.00000000000E+00 -0.98156514471E+03  0.98156514471E+03  0.00000000000E+00 0. -1.
         23    2    1    2    0    0  0.44445398342E+03  0.32051916525E+03 -0.59030404649E+03  0.81067131746E+03  0.91963248014E+02 0.  0.
        254    2    1    2    0    0 -0.44445398342E+03 -0.32051916525E+03  0.71325618057E+03  0.12754111060E+04  0.90424954057E+03 0.  0.
         23    2    4    4    0    0 -0.61505979077E+03 -0.39502610710E+03  0.26953658496E+03  0.78455526697E+03  0.92373290437E+02 0.  0.
         23    2    4    4    0    0  0.17060580736E+03  0.74506941846E+02  0.44371959561E+03  0.49085583907E+03  0.96926515137E+02 0.  0.
          3    1    3    3  502    0  0.40405308584E+03  0.26206764222E+03 -0.54030973929E+03  0.72379068773E+03  0.00000000000E+00 0. -1.
         -3    1    3    3    0  502  0.40400897574E+02  0.58451523036E+02 -0.49994307200E+02  0.86880629731E+02  0.00000000000E+00 0.  1.
         11    1    5    5    0    0 -0.49977343567E+03 -0.30691437288E+03  0.17764363641E+03  0.61280272588E+03  0.00000000000E+00 0.  1.
        -11    1    5    5    0    0 -0.11528635510E+03 -0.88111734216E+02  0.91892948553E+02  0.17175254109E+03  0.00000000000E+00 0. -1.
          3    1    6    6  503    0 -0.46785858595E+01  0.51284513709E+01  0.87980375639E+02  0.88253819615E+02  0.00000000000E+00 0. -1.
         -3    1    6    6    0  503  0.17528439322E+03  0.69378490475E+02  0.35573921997E+03  0.40260201945E+03  0.00000000000E+00 0.  1.
<mgrwt>
<rscale>  0 0.20824559E+04</rscale>
<asrwt>0</asrwt>
<pdfrwt beam="1">  1        1 0.15101002E+00 0.20824559E+04</pdfrwt>
<pdfrwt beam="2">  1       -1 0.16992573E+00 0.20824559E+04</pdfrwt>
<totfact> 0.35502427E+00</totfact>
</mgrwt>
</event>
<event>
12    2  0.8147979E-008  0.2106489E+04  0.7818608E-02  0.8558390E-01
          1   -1    0    0  501    0  0.00000000000E+00  0.00000000000E+00  0.19501429791E+04  0.19501429791E+04  0.00000000000E+00 0.  1.
         -1   -1    0    0    0  501 -0.00000000000E+00 -0.00000000000E+00 -0.56884233714E+03  0.56884233714E+03  0.00000000000E+00 0. -1.
         23    2    1    2    0    0 -0.62747441019E+03 -0.56741667982E+03  0.39625499851E+03  0.93733568966E+03  0.76774652582E+02 0.  0.
        254    2    1    2    0    0  0.62747441019E+03  0.56741667982E+03  0.98504564341E+03  0.15816496265E+04  0.90311394493E+03 0.  0.
         23    2    4    4    0    0  0.71108628786E+03  0.71473220865E+03  0.67471835208E+03  0.12169468747E+04  0.96067696068E+02 0.  0.
         23    2    4    4    0    0 -0.83611877671E+02 -0.14731552884E+03  0.31032729133E+03  0.36470275188E+03  0.89511219178E+02 0.  0.
          2    1    3    3  502    0 -0.15363445052E+03 -0.16432056832E+03  0.74626985796E+02  0.23701050729E+03  0.00000000000E+00 0. -1.
         -2    1    3    3    0  502 -0.47383995968E+03 -0.40309611150E+03  0.32162801271E+03  0.70032518236E+03  0.00000000000E+00 0.  1.
         11    1    5    5    0    0  0.30267290955E+03  0.30200319069E+03  0.22957670473E+03  0.48530637820E+03  0.00000000000E+00 0.  1.
        -11    1    5    5    0    0  0.40841337831E+03  0.41272901796E+03  0.44514164736E+03  0.73164049646E+03  0.00000000000E+00 0. -1.
          3    1    6    6  503    0 -0.58854847237E+02 -0.11672469758E+03  0.29464083388E+03  0.32233797335E+03  0.00000000000E+00 0.  1.
         -3    1    6    6    0  503 -0.24757030434E+02 -0.30590831256E+02  0.15686457446E+02  0.42364778532E+02  0.00000000000E+00 0. -1.
<mgrwt>
<rscale>  0 0.21064889E+04</rscale>
<asrwt>0</asrwt>
<pdfrwt beam="1">  1        1 0.30002199E+00 0.21064889E+04</pdfrwt>
<pdfrwt beam="2">  1       -1 0.87514207E-01 0.21064889E+04</pdfrwt>
<totfact> 0.38036923E+00</totfact>
</mgrwt>
</event>
<event>
12    2  0.8147979E-008  0.1242712E+04  0.7818608E-02  0.9076271E-01
         -3   -1    0    0    0  501 -0.00000000000E+00  0.00000000000E+00  0.70120294573E+03  0.70120294573E+03  0.00000000000E+00 0.  1.
          3   -1    0    0  501    0  0.00000000000E+00 -0.00000000000E+00 -0.55060162141E+03  0.55060162141E+03  0.00000000000E+00 0. -1.
         23    2    1    2    0    0  0.17192687880E+03  0.16406297448E+03  0.19390440219E+03  0.31960646573E+03  0.89854685446E+02 0.  0.
        254    2    1    2    0    0 -0.17192687880E+03 -0.16406297448E+03 -0.43303077875E+02  0.93219810141E+03  0.90035694726E+03 0.  0.
         23    2    4    4    0    0  0.35289800233E+03  0.21243094215E+02  0.12590531625E+02  0.36528702478E+03  0.91037464212E+02 0.  0.
         23    2    4    4    0    0 -0.52482488112E+03 -0.18530606869E+03 -0.55893609500E+02  0.56691107663E+03  0.92111770612E+02 0.  0.
          2    1    3    3  502    0  0.45056408734E+02  0.20034106290E+01  0.55815723716E+02  0.71759937543E+02  0.00000000000E+00 0.  1.
         -2    1    3    3    0  502  0.12687047006E+03  0.16205956385E+03  0.13808867848E+03  0.24784652818E+03  0.00000000000E+00 0. -1.
         11    1    5    5    0    0  0.33824415318E+03  0.39118285062E+02  0.19802466445E+02  0.34107401699E+03  0.00000000000E+00 0.  1.
        -11    1    5    5    0    0  0.14653849144E+02 -0.17875190846E+02 -0.72119348201E+01  0.24213007793E+02  0.00000000000E+00 0. -1.
          1    1    6    6  503    0 -0.39805002438E+03 -0.10440078948E+03 -0.63220657915E+02  0.41634144442E+03  0.00000000000E+00 0. -1.
         -1    1    6    6    0  503 -0.12677485674E+03 -0.80905279212E+02  0.73270484155E+01  0.15056963221E+03  0.00000000000E+00 0.  1.
<mgrwt>
<rscale>  0 0.12427123E+04</rscale>
<asrwt>0</asrwt>
<pdfrwt beam="1">  1        3 0.84707942E-01 0.12427123E+04</pdfrwt>
<pdfrwt beam="2">  1       -3 0.10787738E+00 0.12427123E+04</pdfrwt>
<totfact> 0.24115182E+00</totfact>
</mgrwt>
</event>
<event>
12    2  0.8147979E-008  0.1432806E+04  0.7818608E-02  0.8930408E-01
          2   -1    0    0  501    0  0.00000000000E+00  0.00000000000E+00  0.28606734701E+04  0.28606734701E+04  0.00000000000E+00 0.  1.
         -2   -1    0    0    0  501 -0.00000000000E+00 -0.00000000000E+00 -0.17940990043E+03  0.17940990043E+03  0.00000000000E+00 0. -1.
         23    2    1    2    0    0  0.35871558275E+03 -0.86869205840E+02  0.37078290182E+03  0.53268791885E+03  0.10026629729E+03 0.  0.
        254    2    1    2    0    0 -0.35871558275E+03  0.86869205840E+02  0.23104806678E+04  0.25073954516E+04  0.90138111046E+03 0.  0.
         23    2    4    4    0    0  0.72341915104E+02 -0.33295788880E+03  0.66405200863E+03  0.75216581089E+03  0.93241774508E+02 0.  0.
         23    2    4    4    0    0 -0.43105749786E+03  0.41982709464E+03  0.16464286592E+04  0.17552296407E+04  0.89657158726E+02 0.  0.
          2    1    3    3  502    0  0.54958044633E+02 -0.23234271157E+02  0.16939728187E+02  0.62025578732E+02  0.00000000000E+00 0. -1.
         -2    1    3    3    0  502  0.30375753812E+03 -0.63634934683E+02  0.35384317363E+03  0.47066234011E+03  0.00000000000E+00 0.  1.
         11    1    5    5    0    0  0.21624528864E+02 -0.27592246951E+03  0.51096841584E+03  0.58111061892E+03  0.00000000000E+00 0. -1.
        -11    1    5    5    0    0  0.50717386240E+02 -0.57035419284E+02  0.15308359279E+03  0.17105519197E+03  0.00000000000E+00 0.  1.
          4    1    6    6  503    0 -0.21139832030E+03  0.26254438799E+03  0.96660602441E+03  0.10236923424E+04  0.00000000000E+00 0. -1.
         -4    1    6    6    0  503 -0.21965917756E+03  0.15728270664E+03  0.67982263477E+03  0.73153729833E+03  0.00000000000E+00 0.  1.
<mgrwt>
<rscale>  0 0.14328058E+04</rscale>
<asrwt>0</asrwt>
<pdfrwt beam="1">  1        2 0.44010358E+00 0.14328058E+04</pdfrwt>
<pdfrwt beam="2">  1       -2 0.27601525E-01 0.14328058E+04</pdfrwt>
<totfact> 0.24854629E+01</totfact>
</mgrwt>
</event>
<event>
12    2  0.8147979E-008  0.1243533E+04  0.7818608E-02  0.9075583E-01
         -1   -1    0    0    0  501 -0.00000000000E+00  0.00000000000E+00  0.33429520119E+03  0.33429520119E+03  0.00000000000E+00 0.  1.
          1   -1    0    0  501    0  0.00000000000E+00 -0.00000000000E+00 -0.11564436364E+04  0.11564436364E+04  0.00000000000E+00 0. -1.
         23    2    1    2    0    0 -0.22981149425E+03  0.15919601470E+03 -0.27155996442E+03  0.39912794547E+03  0.86032601948E+02 0.  0.
        254    2    1    2    0    0  0.22981149425E+03 -0.15919601470E+03 -0.55058847078E+03  0.10916108921E+04  0.90017219556E+03 0.  0.
         23    2    4    4    0    0 -0.26332395492E+03 -0.56534542984E+02 -0.50226144266E+03  0.57702572994E+03  0.90313213022E+02 0.  0.
         23    2    4    4    0    0  0.49313544917E+03 -0.10266147171E+03 -0.48327028124E+02  0.51458516218E+03  0.93490312230E+02 0.  0.
          2    1    3    3  502    0 -0.14218585689E+03  0.48041375081E+02 -0.15520204408E+03  0.21589920358E+03  0.00000000000E+00 0. -1.
         -2    1    3    3    0  502 -0.87625637360E+02  0.11115463962E+03 -0.11635792034E+03  0.18322874190E+03  0.00000000000E+00 0.  1.
         11    1    5    5    0    0 -0.59883024429E+02  0.42773226225E+01 -0.52875530348E+02  0.80000586330E+02  0.00000000000E+00 0.  1.
        -11    1    5    5    0    0 -0.20344093050E+03 -0.60811865607E+02 -0.44938591231E+03  0.49702514361E+03  0.00000000000E+00 0. -1.
          2    1    6    6  503    0  0.35600043969E+03 -0.10928949420E+03 -0.12117215707E+02  0.37259540190E+03  0.00000000000E+00 0. -1.
         -2    1    6    6    0  503  0.13713500948E+03  0.66280224863E+01 -0.36209812416E+02  0.14198976028E+03  0.00000000000E+00 0.  1.
<mgrwt>
<rscale>  0 0.12435330E+04</rscale>
<asrwt>0</asrwt>
<pdfrwt beam="1">  1        1 0.17791440E+00 0.12435330E+04</pdfrwt>
<pdfrwt beam="2">  1       -1 0.51430032E-01 0.12435330E+04</pdfrwt>
<totfact> 0.43160461E+01</totfact>
</mgrwt>
</event>
<event>
12    2  0.8147979E-008  0.2592628E+04  0.7818608E-02  0.8370710E-01
         -2   -1    0    0    0  501 -0.00000000000E+00  0.00000000000E+00  0.50254596770E+03  0.50254596770E+03  0.00000000000E+00 0.  1.
          2   -1    0    0  501    0  0.00000000000E+00 -0.00000000000E+00 -0.33438323907E+04  0.33438323907E+04  0.00000000000E+00 0. -1.
         23    2    1    2    0    0 -0.12947996511E+02  0.42516848078E+03 -0.28170932106E+04  0.28504487875E+04  0.90045795809E+02 0.  0.
        254    2    1    2    0    0  0.12947996511E+02 -0.42516848078E+03 -0.24193212380E+02  0.99592957087E+03  0.90019692898E+03 0.  0.
         23    2    4    4    0    0 -0.13553108496E+03  0.17119007796E+03 -0.24095555656E+03  0.33751812206E+03  0.90466483868E+02 0.  0.
         23    2    4    4    0    0  0.14847908147E+03 -0.59635855874E+03  0.21676234418E+03  0.65841144881E+03  0.93968898323E+02 0.  0.
          1    1    3    3  502    0 -0.22233717674E+02  0.32103121259E+02 -0.35781635606E+03  0.35994095802E+03  0.00000000000E+00 0. -1.
         -1    1    3    3    0  502  0.92857211626E+01  0.39306535952E+03 -0.24592768545E+04  0.24905078295E+04  0.00000000000E+00 0.  1.
         11    1    5    5    0    0 -0.49552236806E+02  0.83725519305E+02 -0.47024797878E+02  0.10805886530E+03  0.00000000000E+00 0. -1.
        -11    1    5    5    0    0 -0.85978848152E+02  0.87464558652E+02 -0.19393075868E+03  0.22945925676E+03  0.00000000000E+00 0.  1.
          4    1    6    6  503    0  0.10146875949E+03 -0.29656054027E+03  0.69255243706E+02  0.32099899062E+03  0.00000000000E+00 0. -1.
         -4    1    6    6    0  503  0.47010321976E+02 -0.29979801846E+03  0.14750710047E+03  0.33741245818E+03  0.00000000000E+00 0.  1.
<mgrwt>
<rscale>  0 0.25926276E+04</rscale>
<asrwt>0</asrwt>
<pdfrwt beam="1">  1        2 0.51443576E+00 0.25926276E+04</pdfrwt>
<pdfrwt beam="2">  1       -2 0.77314763E-01 0.25926276E+04</pdfrwt>
<totfact> 0.13754336E+00</totfact>
</mgrwt>
</event>
<event>
12    2  0.8147979E-008  0.3516309E+04  0.7818608E-02  0.8109936E-01
         -2   -1    0    0    0  501 -0.00000000000E+00  0.00000000000E+00  0.19933799194E+04  0.19933799194E+04  0.00000000000E+00 0. -1.
          2   -1    0    0  501    0  0.00000000000E+00 -0.00000000000E+00 -0.15506867432E+04  0.15506867432E+04  0.00000000000E+00 0.  1.
         23    2    1    2    0    0  0.16280186184E+04  0.63755217066E+02  0.41301259350E+03  0.16831144241E+04  0.88234984721E+02 0.  0.
        254    2    1    2    0    0 -0.16280186184E+04 -0.63755217066E+02  0.29680582675E+02  0.18609522385E+04  0.89875077042E+03 0.  0.
         23    2    4    4    0    0 -0.62582399183E+03  0.13290561260E+02 -0.41665540486E+03  0.75742936932E+03  0.90913229786E+02 0.  0.
         23    2    4    4    0    0 -0.10021946266E+04 -0.77045778326E+02  0.44633598753E+03  0.11035228692E+04  0.90646497369E+02 0.  0.
          4    1    3    3  502    0  0.85043920935E+03  0.12372683724E+02  0.25553439955E+03  0.88808657318E+03  0.00000000000E+00 0. -1.
         -4    1    3    3    0  502  0.77757940908E+03  0.51382533342E+02  0.15747819395E+03  0.79502785091E+03  0.00000000000E+00 0.  1.
         11    1    5    5    0    0 -0.52961538093E+03  0.36975862890E+02 -0.37478616996E+03  0.64986486237E+03  0.00000000000E+00 0.  1.
        -11    1    5    5    0    0 -0.96208610905E+02 -0.23685301631E+02 -0.41869234895E+02  0.10756450695E+03  0.00000000000E+00 0. -1.
          3    1    6    6  503    0 -0.82188777989E+03 -0.35232475388E+02  0.38722361899E+03  0.90922108486E+03  0.00000000000E+00 0. -1.
         -3    1    6    6    0  503 -0.18030684671E+03 -0.41813302938E+02  0.59112368545E+02  0.19430178432E+03  0.00000000000E+00 0.  1.
<mgrwt>
<rscale>  0 0.35163093E+04</rscale>
<asrwt>0</asrwt>
<pdfrwt beam="1">  1        2 0.23856719E+00 0.35163093E+04</pdfrwt>
<pdfrwt beam="2">  1       -2 0.30667383E+00 0.35163093E+04</pdfrwt>
<totfact> 0.28208505E-01</totfact>
</mgrwt>
</event>
<event>
12    2  0.8147979E-008  0.1811481E+04  0.7818608E-02  0.8700218E-01
          1   -1    0    0  501    0  0.00000000000E+00  0.00000000000E+00  0.88046533237E+03  0.88046533237E+03  0.00000000000E+00 0. -1.
         -1   -1    0    0    0  501 -0.00000000000E+00 -0.00000000000E+00 -0.93174113667E+03  0.93174113667E+03  0.00000000000E+00 0.  1.
         23    2    1    2    0    0 -0.59746137409E+03 -0.22313515680E+03  0.21863235345E+03  0.67823653179E+03  0.73859971241E+02 0.  0.
        254    2    1    2    0    0  0.59746137409E+03  0.22313515680E+03 -0.26990815775E+03  0.11339699373E+04  0.89793541707E+03 0.  0.
         23    2    4    4    0    0 -0.20734871613E+02  0.27505515343E+03 -0.39848883528E+03  0.49389267318E+03  0.95138575010E+02 0.  0.
         23    2    4    4    0    0  0.61819624571E+03 -0.51919996626E+02  0.12858067753E+03  0.64007726407E+03  0.91124250825E+02 0.  0.
          1    1    3    3  502    0 -0.22892218414E+03 -0.50883229354E+02  0.95433907626E+02  0.25318392553E+03  0.00000000000E+00 0. -1.
         -1    1    3    3    0  502 -0.36853918995E+03 -0.17225192745E+03  0.12319844582E+03  0.42505260626E+03  0.00000000000E+00 0.  1.
         11    1    5    5    0    0 -0.22264226034E+02  0.24947305083E+03 -0.39543633585E+03  0.46808374738E+03  0.00000000000E+00 0. -1.
        -11    1    5    5    0    0  0.15293544201E+01  0.25582102602E+02 -0.30524994285E+01  0.25808925806E+02  0.00000000000E+00 0.  1.
          2    1    6    6  503    0  0.35072481856E+03 -0.29919022830E+02  0.11886575732E+03  0.37152673463E+03  0.00000000000E+00 0. -1.
         -2    1    6    6    0  503  0.26747142714E+03 -0.22000973796E+02  0.97149202097E+01  0.26855052944E+03  0.00000000000E+00 0.  1.
<mgrwt>
<rscale>  0 0.18114809E+04</rscale>
<asrwt>0</asrwt>
<pdfrwt beam="1">  1        1 0.13545620E+00 0.18114809E+04</pdfrwt>
<pdfrwt beam="2">  1       -1 0.14334479E+00 0.18114809E+04</pdfrwt>
<totfact> 0.70132719E+00</totfact>
</mgrwt>
</event>
<event>
12    2  0.8147979E-008  0.3482337E+04  0.7818608E-02  0.8117989E-01
         -2   -1    0    0    0  501 -0.00000000000E+00  0.00000000000E+00  0.10515341450E+04  0.10515341450E+04  0.00000000000E+00 0.  1.
          2   -1    0    0  501    0  0.00000000000E+00 -0.00000000000E+00 -0.28830909246E+04  0.28830909246E+04  0.00000000000E+00 0. -1.
         23    2    1    2    0    0  0.11488551990E+04 -0.15052017678E+03  0.42951602115E+03  0.12390758748E+04  0.91106636748E+02 0.  0.
        254    2    1    2    0    0 -0.11488551990E+04  0.15052017678E+03 -0.22610728008E+04  0.26955491948E+04  0.90056130250E+03 0.  0.
         23    2    4    4    0    0 -0.69151860394E+03 -0.29625355002E+03 -0.16041482831E+04  0.17742518750E+04  0.93348039189E+02 0.  0.
         23    2    4    4    0    0 -0.45733659502E+03  0.44677372680E+03 -0.65692451768E+03  0.92129731980E+03  0.92061965117E+02 0.  0.
          3    1    3    3  502    0  0.33932681203E+03 -0.31630998998E+02  0.84640043331E+02  0.35115116744E+03  0.00000000000E+00 0. -1.
         -3    1    3    3    0  502  0.80952838693E+03 -0.11888917778E+03  0.34487597782E+03  0.88792470735E+03  0.00000000000E+00 0.  1.
         11    1    5    5    0    0 -0.55223607837E+03 -0.24933871008E+03 -0.13667935025E+04  0.14950782445E+04  0.00000000000E+00 0. -1.
        -11    1    5    5    0    0 -0.13928252557E+03 -0.46914839947E+02 -0.23735478061E+03  0.27917363058E+03  0.00000000000E+00 0.  1.
          2    1    6    6  503    0 -0.44266760760E+03  0.39976558727E+03 -0.60002953951E+03  0.84605117095E+03  0.00000000000E+00 0. -1.
         -2    1    6    6    0  503 -0.14668987420E+02  0.47008139538E+02 -0.56894978173E+02  0.75246148846E+02  0.00000000000E+00 0.  1.
<mgrwt>
<rscale>  0 0.34823375E+04</rscale>
<asrwt>0</asrwt>
<pdfrwt beam="1">  1        2 0.44355245E+00 0.34823375E+04</pdfrwt>
<pdfrwt beam="2">  1       -2 0.16177448E+00 0.34823375E+04</pdfrwt>
<totfact> 0.41365208E-01</totfact>
</mgrwt>
</event>
<event>
12    2  0.8147979E-008  0.2111268E+04  0.7818608E-02  0.8556296E-01
          1   -1    0    0  501    0  0.00000000000E+00  0.00000000000E+00  0.80355889141E+03  0.80355889141E+03  0.00000000000E+00 0. -1.
         -1   -1    0    0    0  501 -0.00000000000E+00 -0.00000000000E+00 -0.13867841101E+04  0.13867841101E+04  0.00000000000E+00 0.  1.
         23    2    1    2    0    0  0.76055526601E+03  0.57615376895E+02  0.17636898225E+03  0.78817621727E+03  0.91388660402E+02 0.  0.
        254    2    1    2    0    0 -0.76055526601E+03 -0.57615376895E+02 -0.75959420099E+03  0.14021667843E+04  0.89851237971E+03 0.  0.
         23    2    4    4    0    0  0.92494094415E+02  0.63263937581E+02 -0.46659427500E+03  0.48812691771E+03  0.89443764588E+02 0.  0.
         23    2    4    4    0    0 -0.85304936043E+03 -0.12087931448E+03 -0.29299992598E+03  0.91403986659E+03  0.85527195023E+02 0.  0.
          4    1    3    3  502    0  0.11319072559E+03  0.37788462697E+02  0.43544756817E+02  0.12702855632E+03  0.00000000000E+00 0. -1.
         -4    1    3    3    0  502  0.64736454042E+03  0.19826914198E+02  0.13282422543E+03  0.66114766095E+03  0.00000000000E+00 0.  1.
         11    1    5    5    0    0  0.16784447459E+02 -0.22887705086E+02 -0.80438192436E+02  0.85298695905E+02  0.00000000000E+00 0. -1.
        -11    1    5    5    0    0  0.75709646956E+02  0.86151642667E+02 -0.38615608257E+03  0.40282822180E+03  0.00000000000E+00 0.  1.
          4    1    6    6  503    0 -0.10742869059E+03 -0.26904563191E+02 -0.66285430762E+02  0.12906795657E+03  0.00000000000E+00 0. -1.
         -4    1    6    6    0  503 -0.74562066984E+03 -0.93974751284E+02 -0.22671449522E+03  0.78497191001E+03  0.00000000000E+00 0.  1.
<mgrwt>
<rscale>  0 0.21112676E+04</rscale>
<asrwt>0</asrwt>
<pdfrwt beam="1">  1        1 0.12362445E+00 0.21112676E+04</pdfrwt>
<pdfrwt beam="2">  1       -1 0.21335140E+00 0.21112676E+04</pdfrwt>
<totfact> 0.24604390E+00</totfact>
</mgrwt>
</event>
<event>
12    2  0.8147979E-008  0.2065807E+04  0.7818608E-02  0.8576457E-01
         -1   -1    0    0    0  501 -0.00000000000E+00  0.00000000000E+00  0.12806271540E+04  0.12806271540E+04  0.00000000000E+00 0.  1.
          1   -1    0    0  501    0  0.00000000000E+00 -0.00000000000E+00 -0.83309922398E+03  0.83309922398E+03  0.00000000000E+00 0. -1.
         23    2    1    2    0    0 -0.41584214780E+03 -0.62898560708E+03  0.54795750020E+03  0.93614794078E+03  0.86994018206E+02 0.  0.
        254    2    1    2    0    0  0.41584214780E+03  0.62898560708E+03 -0.10042957022E+03  0.11775784372E+04  0.89892006946E+03 0.  0.
         23    2    4    4    0    0  0.17604577871E+03  0.22816944143E+03  0.39065442563E+03  0.49387282605E+03  0.90807917266E+02 0.  0.
         23    2    4    4    0    0  0.23979636910E+03  0.40081616564E+03 -0.49108399585E+03  0.68370561111E+03  0.90188549182E+02 0.  0.
          1    1    3    3  502    0 -0.31357864755E+03 -0.45996836906E+03  0.35655707601E+03  0.66108654289E+03  0.00000000000E+00 0. -1.
         -1    1    3    3    0  502 -0.10226350025E+03 -0.16901723802E+03  0.19140042419E+03  0.27506139789E+03  0.00000000000E+00 0.  1.
         11    1    5    5    0    0  0.14179162494E+03  0.14716004908E+03  0.21041306371E+03  0.29331655653E+03  0.00000000000E+00 0. -1.
        -11    1    5    5    0    0  0.34254153764E+02  0.81009392352E+02  0.18024136192E+03  0.20055626952E+03  0.00000000000E+00 0.  1.
          3    1    6    6  503    0  0.21675721498E+03  0.28917245831E+03 -0.38371193558E+03  0.52710459152E+03  0.00000000000E+00 0. -1.
         -3    1    6    6    0  503  0.23039154113E+02  0.11164370733E+03 -0.10737206028E+03  0.15660101959E+03  0.00000000000E+00 0.  1.
<mgrwt>
<rscale>  0 0.20658069E+04</rscale>
<asrwt>0</asrwt>
<pdfrwt beam="1">  1        1 0.12816911E+00 0.20658069E+04</pdfrwt>
<pdfrwt beam="2">  1       -1 0.19701956E+00 0.20658069E+04</pdfrwt>
<totfact> 0.30134270E+00</totfact>
</mgrwt>
</event>
<event>
12    2  0.8147979E-008  0.1744065E+04  0.7818608E-02  0.8736624E-01
          3   -1    0    0  501    0  0.00000000000E+00  0.00000000000E+00  0.13953050420E+04  0.13953050420E+04  0.00000000000E+00 0. -1.
         -3   -1    0    0    0  501 -0.00000000000E+00 -0.00000000000E+00 -0.54499940451E+03  0.54499940451E+03  0.00000000000E+00 0.  1.
         23    2    1    2    0    0 -0.59396792075E+03 -0.20267146267E+03  0.42018090574E+03  0.76067043199E+03  0.90520162861E+02 0.  0.
        254    2    1    2    0    0  0.59396792075E+03  0.20267146267E+03  0.43012473178E+03  0.11796340145E+04  0.90147407657E+03 0.  0.
         23    2    4    4    0    0  0.22762738299E+03  0.44985240084E+02 -0.26923230156E+03  0.36918305587E+03  0.99860899369E+02 0.  0.
         23    2    4    4    0    0  0.36634053776E+03  0.15768622259E+03  0.69935703334E+03  0.81045095868E+03  0.93059991068E+02 0.  0.
          4    1    3    3  502    0 -0.33881518720E+03 -0.12368483795E+03  0.29370161135E+03  0.46513901871E+03  0.00000000000E+00 0. -1.
         -4    1    3    3    0  502 -0.25515273355E+03 -0.78986624726E+02  0.12647929439E+03  0.29553141328E+03  0.00000000000E+00 0.  1.
         11    1    5    5    0    0 -0.51892267594E+01  0.93720475758E+01 -0.36616233066E+02  0.38151171333E+02  0.00000000000E+00 0. -1.
        -11    1    5    5    0    0  0.23281660975E+03  0.35613192508E+02 -0.23261606850E+03  0.33103188453E+03  0.00000000000E+00 0.  1.
          3    1    6    6  503    0  0.48716592206E+02  0.59175641167E+02  0.14446012553E+03  0.16353528895E+03  0.00000000000E+00 0. -1.
         -3    1    6    6    0  503  0.31762394556E+03  0.98510581423E+02  0.55489690781E+03  0.64691566973E+03  0.00000000000E+00 0.  1.
<mgrwt>
<rscale>  0 0.17440647E+04</rscale>
<asrwt>0</asrwt>
<pdfrwt beam="1">  1        3 0.21466231E+00 0.17440647E+04</pdfrwt>
<pdfrwt beam="2">  1       -3 0.83846063E-01 0.17440647E+04</pdfrwt>
<totfact> 0.38816551E-01</totfact>
</mgrwt>
</event>
<event>
12    2  0.8147979E-008  0.2105193E+04  0.7818608E-02  0.8558959E-01
         -1   -1    0    0    0  501 -0.00000000000E+00  0.00000000000E+00  0.53543122783E+03  0.53543122783E+03  0.00000000000E+00 0.  1.
          1   -1    0    0  501    0  0.00000000000E+00 -0.00000000000E+00 -0.20692844626E+04  0.20692844626E+04  0.00000000000E+00 0. -1.
         23    2    1    2    0    0 -0.72260751742E+03  0.44517677130E+03 -0.49317515429E+03  0.98614406484E+03  0.94416110270E+02 0.  0.
        254    2    1    2    0    0  0.72260751742E+03 -0.44517677130E+03 -0.10406780805E+04  0.16185716256E+04  0.90355921668E+03 0.  0.
         23    2    4    4    0    0 -0.18394545321E+03  0.16799472494E+02 -0.96550278331E+02  0.22766534309E+03  0.91604585950E+02 0.  0.
         23    2    4    4    0    0  0.90655297063E+03 -0.46197624379E+03 -0.94412780219E+03  0.13909062825E+04  0.89345629579E+02 0.  0.
          3    1    3    3  502    0 -0.63457075146E+03  0.42353398899E+03 -0.44968054235E+03  0.88559226996E+03  0.00000000000E+00 0. -1.
         -3    1    3    3    0  502 -0.88036765958E+02  0.21642782306E+02 -0.43494611935E+02  0.10055179488E+03  0.00000000000E+00 0.  1.
         11    1    5    5    0    0 -0.55828808015E+02  0.10717294024E+02 -0.80289960567E+02  0.98377812354E+02  0.00000000000E+00 0. -1.
        -11    1    5    5    0    0 -0.12811664519E+03  0.60821784702E+01 -0.16260317764E+02  0.12928753074E+03  0.00000000000E+00 0.  1.
          3    1    6    6  503    0  0.18695158698E+03 -0.61857546291E+02 -0.15721039597E+03  0.25197690472E+03  0.00000000000E+00 0. -1.
         -3    1    6    6    0  503  0.71960138365E+03 -0.40011869750E+03 -0.78691740621E+03  0.11389293778E+04  0.00000000000E+00 0.  1.
<mgrwt>
<rscale>  0 0.21051931E+04</rscale>
<asrwt>0</asrwt>
<pdfrwt beam="1">  1        1 0.31835146E+00 0.21051931E+04</pdfrwt>
<pdfrwt beam="2">  1       -1 0.82374034E-01 0.21051931E+04</pdfrwt>
<totfact> 0.36011379E+00</totfact>
</mgrwt>
</event>
<event>
12    2  0.8147979E-008  0.1839980E+04  0.7818608E-02  0.8685323E-01
         -1   -1    0    0    0  501 -0.00000000000E+00  0.00000000000E+00  0.94580315384E+03  0.94580315384E+03  0.00000000000E+00 0. -1.
          1   -1    0    0  501    0  0.00000000000E+00 -0.00000000000E+00 -0.89488092625E+03  0.89488092625E+03  0.00000000000E+00 0.  1.
         23    2    1    2    0    0  0.37153074175E+03  0.40134012716E+03 -0.41045060840E+03  0.68963683091E+03  0.89555942706E+02 0.  0.
        254    2    1    2    0    0 -0.37153074175E+03 -0.40134012716E+03  0.46137283599E+03  0.11510472492E+04  0.90162957266E+03 0.  0.
         23    2    4    4    0    0 -0.23752184792E+03  0.19633769339E+03 -0.76886817553E+02  0.33050380325E+03  0.91411504575E+02 0.  0.
         23    2    4    4    0    0 -0.13400889384E+03 -0.59767782055E+03  0.53825965354E+03  0.82054344592E+03  0.91602026191E+02 0.  0.
          4    1    3    3  502    0  0.20576728584E+02  0.95415798738E+01 -0.38922029014E+00  0.22684686424E+02  0.00000000000E+00 0. -1.
         -4    1    3    3    0  502  0.35095401317E+03  0.39179854729E+03 -0.41006138811E+03  0.66695214449E+03  0.00000000000E+00 0.  1.
         11    1    5    5    0    0 -0.27352870446E+02 -0.75648512203E+01 -0.10392639846E+02  0.30222730827E+02  0.00000000000E+00 0. -1.
        -11    1    5    5    0    0 -0.21016897747E+03  0.20390254461E+03 -0.66494177706E+02  0.30028107243E+03  0.00000000000E+00 0.  1.
          2    1    6    6  503    0 -0.92433278577E+02 -0.21832129842E+03  0.18855819712E+03  0.30292291764E+03  0.00000000000E+00 0. -1.
         -2    1    6    6    0  503 -0.41575615258E+02 -0.37935652214E+03  0.34970145643E+03  0.51762052828E+03  0.00000000000E+00 0.  1.
<mgrwt>
<rscale>  0 0.18399796E+04</rscale>
<asrwt>0</asrwt>
<pdfrwt beam="1">  1        1 0.13767399E+00 0.18399796E+04</pdfrwt>
<pdfrwt beam="2">  1       -1 0.14550818E+00 0.18399796E+04</pdfrwt>
<totfact> 0.65413426E+00</totfact>
</mgrwt>
</event>
<event>
12    2  0.8147979E-008  0.1643452E+04  0.7818608E-02  0.8794289E-01
         -1   -1    0    0    0  501 -0.00000000000E+00  0.00000000000E+00  0.37666449765E+03  0.37666449765E+03  0.00000000000E+00 0.  1.
          1   -1    0    0  501    0  0.00000000000E+00 -0.00000000000E+00 -0.17926667759E+04  0.17926667759E+04  0.00000000000E+00 0. -1.
         23    2    1    2    0    0 -0.29383397357E+03  0.28809624037E+03 -0.10158151097E+04  0.10998058068E+04  0.91403653903E+02 0.  0.
        254    2    1    2    0    0  0.29383397357E+03 -0.28809624037E+03 -0.40018716856E+03  0.10695254667E+04  0.90243953056E+03 0.  0.
         23    2    4    4    0    0 -0.30320453705E+03 -0.21030740815E+02 -0.45019260670E+02  0.31934846385E+03  0.87071374092E+02 0.  0.
         23    2    4    4    0    0  0.59703851063E+03 -0.26706549956E+03 -0.35516790788E+03  0.75017700285E+03  0.94033656710E+02 0.  0.
          4    1    3    3  502    0 -0.25909556672E+03  0.20520186030E+03 -0.83030903768E+03  0.89367299065E+03  0.00000000000E+00 0. -1.
         -4    1    3    3    0  502 -0.34738406851E+02  0.82894380075E+02 -0.18550607200E+03  0.20613281618E+03  0.00000000000E+00 0.  1.
         11    1    5    5    0    0 -0.30776593148E+03 -0.25841079414E+02 -0.47057030629E+02  0.31241317850E+03  0.00000000000E+00 0.  1.
        -11    1    5    5    0    0  0.45613944304E+01  0.48103385992E+01  0.20377699582E+01  0.69352853576E+01  0.00000000000E+00 0. -1.
          4    1    6    6  503    0  0.87564493520E+02 -0.22240826236E+02 -0.83554788590E+02  0.12305932542E+03  0.00000000000E+00 0. -1.
         -4    1    6    6    0  503  0.50947401711E+03 -0.24482467332E+03 -0.27161311929E+03  0.62711767743E+03  0.00000000000E+00 0.  1.
<mgrwt>
<rscale>  0 0.16434524E+04</rscale>
<asrwt>0</asrwt>
<pdfrwt beam="1">  1        1 0.27579489E+00 0.16434524E+04</pdfrwt>
<pdfrwt beam="2">  1       -1 0.57948383E-01 0.16434524E+04</pdfrwt>
<totfact> 0.11887817E+01</totfact>
</mgrwt>
</event>
<event>
12    2  0.8147979E-008  0.1793835E+04  0.7818608E-02  0.8709585E-01
         -2   -1    0    0    0  501 -0.00000000000E+00  0.00000000000E+00  0.53523977142E+03  0.53523977142E+03  0.00000000000E+00 0. -1.
          2   -1    0    0  501    0  0.00000000000E+00 -0.00000000000E+00 -0.15029919734E+04  0.15029919734E+04  0.00000000000E+00 0.  1.
         23    2    1    2    0    0 -0.35772294809E+02 -0.64565572982E+03 -0.18056158505E+03  0.67843675704E+03  0.97585699684E+02 0.  0.
        254    2    1    2    0    0  0.35772294809E+02  0.64565572982E+03 -0.78719061689E+03  0.13597949877E+04  0.90067883443E+03 0.  0.
         23    2    4    4    0    0 -0.22414794779E+03  0.38817746305E+03 -0.86114611157E+03  0.97521814265E+03  0.92486512350E+02 0.  0.
         23    2    4    4    0    0  0.25992024260E+03  0.25747826678E+03  0.73955494680E+02  0.38457684508E+03  0.92608553615E+02 0.  0.
          4    1    3    3  502    0 -0.56800773103E+02 -0.40934749730E+03 -0.14799715249E+03  0.43897022509E+03  0.00000000000E+00 0.  1.
         -4    1    3    3    0  502  0.21028478294E+02 -0.23630823253E+03 -0.32564432559E+02  0.23946653196E+03  0.00000000000E+00 0. -1.
         11    1    5    5    0    0 -0.12197236206E+03  0.26120300121E+03 -0.46845861256E+03  0.55005248534E+03  0.00000000000E+00 0. -1.
        -11    1    5    5    0    0 -0.10217558573E+03  0.12697446184E+03 -0.39268749901E+03  0.42516565731E+03  0.00000000000E+00 0.  1.
          3    1    6    6  503    0  0.82529733976E+02  0.31880106673E+02  0.34179452448E+02  0.94845838925E+02  0.00000000000E+00 0. -1.
         -3    1    6    6    0  503  0.17739050862E+03  0.22559816010E+03  0.39776042232E+02  0.28973100615E+03  0.00000000000E+00 0.  1.
<mgrwt>
<rscale>  0 0.17938351E+04</rscale>
<asrwt>0</asrwt>
<pdfrwt beam="1">  1        2 0.23122953E+00 0.17938351E+04</pdfrwt>
<pdfrwt beam="2">  1       -2 0.82344581E-01 0.17938351E+04</pdfrwt>
<totfact> 0.15466418E+01</totfact>
</mgrwt>
</event>
<event>
12    2  0.8147979E-008  0.1753746E+04  0.7818608E-02  0.8731291E-01
         -2   -1    0    0    0  501 -0.00000000000E+00  0.00000000000E+00  0.19635635479E+03  0.19635635479E+03  0.00000000000E+00 0.  1.
          2   -1    0    0  501    0  0.00000000000E+00 -0.00000000000E+00 -0.39158698321E+04  0.39158698321E+04  0.00000000000E+00 0. -1.
         23    2    1    2    0    0  0.12868952530E+03  0.26074326808E+03 -0.27098531193E+04  0.27269379900E+04  0.91317180920E+02 0.  0.
        254    2    1    2    0    0 -0.12868952530E+03 -0.26074326808E+03 -0.10096603580E+04  0.13852881969E+04  0.90280745679E+03 0.  0.
         23    2    4    4    0    0 -0.79921481741E+02 -0.78562688087E+02  0.14876652852E+03  0.20792859424E+03  0.92429871205E+02 0.  0.
         23    2    4    4    0    0 -0.48768043560E+02 -0.18218057999E+03 -0.11584268866E+04  0.11773596026E+04  0.93030621951E+02 0.  0.
          2    1    3    3  502    0  0.12994644964E+03  0.26532678149E+03 -0.26985778507E+04  0.27147019721E+04  0.00000000000E+00 0. -1.
         -2    1    3    3    0  502 -0.12569243387E+01 -0.45835134133E+01 -0.11275268535E+02  0.12236017920E+02  0.00000000000E+00 0.  1.
         11    1    5    5    0    0 -0.38698224460E+02 -0.74996780861E+02  0.14314636562E+03  0.16617145274E+03  0.00000000000E+00 0.  1.
        -11    1    5    5    0    0 -0.41223257281E+02 -0.35659072260E+01  0.56201629036E+01  0.41757141500E+02  0.00000000000E+00 0. -1.
          3    1    6    6  503    0  0.15028801564E+02 -0.47725604253E+02 -0.15289241127E+03  0.16087164946E+03  0.00000000000E+00 0. -1.
         -3    1    6    6    0  503 -0.63796845124E+02 -0.13445497574E+03 -0.10055344753E+04  0.10164879532E+04  0.00000000000E+00 0.  1.
<mgrwt>
<rscale>  0 0.17537456E+04</rscale>
<asrwt>0</asrwt>
<pdfrwt beam="1">  1        2 0.60244152E+00 0.17537456E+04</pdfrwt>
<pdfrwt beam="2">  1       -2 0.30208669E-01 0.17537456E+04</pdfrwt>
<totfact> 0.38871020E+00</totfact>
</mgrwt>
</event>
<event>
12    2  0.8147979E-008  0.1474492E+04  0.7818608E-02  0.8901595E-01
         -1   -1    0    0    0  501 -0.00000000000E+00  0.00000000000E+00  0.16837680969E+03  0.16837680969E+03  0.00000000000E+00 0.  1.
          1   -1    0    0  501    0  0.00000000000E+00 -0.00000000000E+00 -0.32280688101E+04  0.32280688101E+04  0.00000000000E+00 0. -1.
         23    2    1    2    0    0 -0.11306400748E+03  0.11790296256E+03  0.16330454756E+02  0.18746527341E+03  0.90509483557E+02 0.  0.
        254    2    1    2    0    0  0.11306400748E+03 -0.11790296256E+03 -0.30760224552E+04  0.32089803464E+04  0.89941989103E+03 0.  0.
         23    2    4    4    0    0 -0.17197908746E+02  0.10680692417E+03 -0.22930675828E+02  0.14356766204E+03  0.91555286974E+02 0.  0.
         23    2    4    4    0    0  0.13026191623E+03 -0.22470988673E+03 -0.30530917793E+04  0.30654126843E+04  0.89010180451E+02 0.  0.
          1    1    3    3  502    0 -0.38371619738E+02  0.77539723419E+02 -0.28968368758E+02  0.91235718322E+02  0.00000000000E+00 0. -1.
         -1    1    3    3    0  502 -0.74692387741E+02  0.40363239141E+02  0.45298823513E+02  0.96229555086E+02  0.00000000000E+00 0.  1.
         11    1    5    5    0    0  0.20261170305E+02  0.69786336468E+01 -0.29819076449E+02  0.36720480252E+02  0.00000000000E+00 0. -1.
        -11    1    5    5    0    0 -0.37459079051E+02  0.99828290525E+02  0.68884006207E+01  0.10684718179E+03  0.00000000000E+00 0.  1.
          4    1    6    6  503    0  0.48130371455E+02 -0.15503056616E+03 -0.20968819214E+04  0.21031559146E+04  0.00000000000E+00 0. -1.
         -4    1    6    6    0  503  0.82131544770E+02 -0.69679320569E+02 -0.95620985799E+03  0.96225676972E+03  0.00000000000E+00 0.  1.
<mgrwt>
<rscale>  0 0.14744924E+04</rscale>
<asrwt>0</asrwt>
<pdfrwt beam="1">  1        1 0.49662599E+00 0.14744924E+04</pdfrwt>
<pdfrwt beam="2">  1       -1 0.25904124E-01 0.14744924E+04</pdfrwt>
<totfact> 0.52181644E+00</totfact>
</mgrwt>
</event>
<event>
12    2  0.8147979E-008  0.1266547E+04  0.7818608E-02  0.9056523E-01
          2   -1    0    0  501    0  0.00000000000E+00  0.00000000000E+00  0.68073350514E+03  0.68073350514E+03  0.00000000000E+00 0. -1.
         -2   -1    0    0    0  501 -0.00000000000E+00 -0.00000000000E+00 -0.58912207612E+03  0.58912207612E+03  0.00000000000E+00 0.  1.
         23    2    1    2    0    0  0.26257853968E+03  0.45829986661E+02 -0.12175316278E+03  0.30710321558E+03  0.91873147300E+02 0.  0.
        254    2    1    2    0    0 -0.26257853968E+03 -0.45829986661E+02  0.21336459179E+03  0.96275236568E+03  0.90017764436E+03 0.  0.
         23    2    4    4    0    0 -0.27061804746E+02 -0.35835858325E+03 -0.16932945753E+03  0.40783447533E+03  0.92213223645E+02 0.  0.
         23    2    4    4    0    0 -0.23551673493E+03  0.31252859659E+03  0.38269404933E+03  0.55491789034E+03  0.91306481214E+02 0.  0.
          4    1    3    3  502    0  0.10967030016E+03  0.47475862459E+02 -0.14630021794E+02  0.12039754894E+03  0.00000000000E+00 0. -1.
         -4    1    3    3    0  502  0.15290823952E+03 -0.16458757982E+01 -0.10712314098E+03  0.18670566664E+03  0.00000000000E+00 0.  1.
         11    1    5    5    0    0 -0.36578753155E+02 -0.35937269170E+03 -0.16710488983E+03  0.39800851867E+03  0.00000000000E+00 0. -1.
        -11    1    5    5    0    0  0.95169484093E+01  0.10141084512E+01 -0.22245677015E+01  0.98259566676E+01  0.00000000000E+00 0.  1.
          1    1    6    6  503    0 -0.20874175216E+03  0.30256615425E+03  0.32551129187E+03  0.49099592456E+03  0.00000000000E+00 0. -1.
         -1    1    6    6    0  503 -0.26774982774E+02  0.99624423374E+01  0.57182757457E+02  0.63921965788E+02  0.00000000000E+00 0.  1.
<mgrwt>
<rscale>  0 0.12665467E+04</rscale>
<asrwt>0</asrwt>
<pdfrwt beam="1">  1        2 0.10472823E+00 0.12665467E+04</pdfrwt>
<pdfrwt beam="2">  1       -2 0.90634165E-01 0.12665467E+04</pdfrwt>
<totfact> 0.43372734E+01</totfact>
</mgrwt>
</event>
<event>
12    2  0.8147979E-008  0.2188898E+04  0.7818608E-02  0.8523063E-01
          2   -1    0    0  501    0  0.00000000000E+00  0.00000000000E+00  0.13169763065E+04  0.13169763065E+04  0.00000000000E+00 0. -1.
         -2   -1    0    0    0  501 -0.00000000000E+00 -0.00000000000E+00 -0.90952194678E+03  0.90952194678E+03  0.00000000000E+00 0.  1.
         23    2    1    2    0    0 -0.56463180764E+03  0.70524804509E+03  0.25340479722E+03  0.94301496517E+03  0.94230302874E+02 0.  0.
        254    2    1    2    0    0  0.56463180764E+03 -0.70524804509E+03  0.15404956250E+03  0.12834832881E+04  0.89856229602E+03 0.  0.
         23    2    4    4    0    0  0.30183830743E+03  0.16695551305E+03  0.72721157432E+02  0.36399532973E+03  0.90684762538E+02 0.  0.
         23    2    4    4    0    0  0.26279350022E+03 -0.87220355814E+03  0.81328405070E+02  0.91948795838E+03  0.95101658954E+02 0.  0.
          2    1    3    3  502    0 -0.34373003340E+03  0.46757043551E+03  0.20208349513E+03  0.61449994876E+03  0.00000000000E+00 0. -1.
         -2    1    3    3    0  502 -0.22090177424E+03  0.23767760958E+03  0.51321302089E+02  0.32851501641E+03  0.00000000000E+00 0.  1.
         11    1    5    5    0    0  0.22475767809E+03  0.11976341115E+03  0.11698159933E+02  0.25494339657E+03  0.00000000000E+00 0.  1.
        -11    1    5    5    0    0  0.77080629337E+02  0.47192101899E+02  0.61022997499E+02  0.10905193315E+03  0.00000000000E+00 0. -1.
          1    1    6    6  503    0  0.99398124629E+02 -0.32603394993E+03 -0.15663603053E+02  0.34120883949E+03  0.00000000000E+00 0. -1.
         -1    1    6    6    0  503  0.16339537559E+03 -0.54616960821E+03  0.96992008123E+02  0.57827911889E+03  0.00000000000E+00 0.  1.
<mgrwt>
<rscale>  0 0.21888982E+04</rscale>
<asrwt>0</asrwt>
<pdfrwt beam="1">  1        2 0.20261174E+00 0.21888982E+04</pdfrwt>
<pdfrwt beam="2">  1       -2 0.13992645E+00 0.21888982E+04</pdfrwt>
<totfact> 0.53177551E+00</totfact>
</mgrwt>
</event>
<event>
12    2  0.8147979E-008  0.1541204E+04  0.7818608E-02  0.8857505E-01
          1   -1    0    0  501    0  0.00000000000E+00  0.00000000000E+00  0.14381961447E+04  0.14381961447E+04  0.00000000000E+00 0. -1.
         -1   -1    0    0    0  501 -0.00000000000E+00 -0.00000000000E+00 -0.41289764278E+03  0.41289764278E+03  0.00000000000E+00 0.  1.
         23    2    1    2    0    0  0.11221998456E+03 -0.10233310463E+03  0.91496517769E+03  0.93331501638E+03  0.10416455335E+03 0.  0.
        254    2    1    2    0    0 -0.11221998456E+03  0.10233310463E+03  0.11033332427E+03  0.91777877115E+03  0.89837577944E+03 0.  0.
         23    2    4    4    0    0 -0.44268873087E+03 -0.15875369012E+03  0.38799857195E+02  0.48071746266E+03  0.91694075149E+02 0.  0.
         23    2    4    4    0    0  0.33046874632E+03  0.26108679475E+03  0.71533467079E+02  0.43706130849E+03  0.92356070603E+02 0.  0.
          1    1    3    3  502    0  0.86069783285E+02 -0.50961727573E+02  0.78228344366E+03  0.78865232612E+03  0.00000000000E+00 0. -1.
         -1    1    3    3    0  502  0.26150201272E+02 -0.51371377055E+02  0.13268173404E+03  0.14466269026E+03  0.00000000000E+00 0.  1.
         11    1    5    5    0    0 -0.21787804314E+03 -0.29599208464E+02  0.17943381853E+02  0.22061033470E+03  0.00000000000E+00 0. -1.
        -11    1    5    5    0    0 -0.22481068774E+03 -0.12915448166E+03  0.20856475342E+02  0.26010712796E+03  0.00000000000E+00 0.  1.
          2    1    6    6  503    0  0.18972129794E+03  0.13938176097E+03  0.85512351278E+02  0.25046718030E+03  0.00000000000E+00 0. -1.
         -2    1    6    6    0  503  0.14074744837E+03  0.12170503378E+03 -0.13978884199E+02  0.18659412819E+03  0.00000000000E+00 0.  1.
<mgrwt>
<rscale>  0 0.15412045E+04</rscale>
<asrwt>0</asrwt>
<pdfrwt beam="1">  1        1 0.22126094E+00 0.15412045E+04</pdfrwt>
<pdfrwt beam="2">  1       -1 0.63522715E-01 0.15412045E+04</pdfrwt>
<totfact> 0.17503268E+01</totfact>
</mgrwt>
</event>
<event>
12    2  0.8147979E-008  0.3018054E+04  0.7818608E-02  0.8238594E-01
         -1   -1    0    0    0  501 -0.00000000000E+00  0.00000000000E+00  0.81218256673E+03  0.81218256673E+03  0.00000000000E+00 0.  1.
          1   -1    0    0  501    0  0.00000000000E+00 -0.00000000000E+00 -0.28037564143E+04  0.28037564143E+04  0.00000000000E+00 0. -1.
         23    2    1    2    0    0  0.13721208234E+04 -0.19265209292E+02 -0.97503737600E+03  0.16862310300E+04  0.97931096235E+02 0.  0.
        254    2    1    2    0    0 -0.13721208234E+04  0.19265209292E+02 -0.10165364715E+04  0.19297079510E+04  0.89852082672E+03 0.  0.
         23    2    4    4    0    0 -0.59675679973E+03 -0.25709087603E+03 -0.86851910754E+03  0.10885277228E+04  0.91393471706E+02 0.  0.
         23    2    4    4    0    0 -0.77536402365E+03  0.27635608532E+03 -0.14801736399E+03  0.84118022818E+03  0.90072088744E+02 0.  0.
          4    1    3    3  502    0  0.78970464838E+03 -0.59087805287E+02 -0.56891935009E+03  0.97508667682E+03  0.00000000000E+00 0. -1.
         -4    1    3    3    0  502  0.58241617499E+03  0.39822595995E+02 -0.40611802591E+03  0.71114435315E+03  0.00000000000E+00 0.  1.
         11    1    5    5    0    0 -0.16370475715E+03 -0.71223197394E+02 -0.31025594671E+03  0.35795354982E+03  0.00000000000E+00 0.  1.
        -11    1    5    5    0    0 -0.43305204258E+03 -0.18586767864E+03 -0.55826316083E+03  0.73057417302E+03  0.00000000000E+00 0. -1.
          4    1    6    6  503    0 -0.37644737945E+03  0.14657586129E+03 -0.28453652467E+02  0.40497743511E+03  0.00000000000E+00 0. -1.
         -4    1    6    6    0  503 -0.39891664419E+03  0.12978022403E+03 -0.11956371152E+03  0.43620279306E+03  0.00000000000E+00 0.  1.
<mgrwt>
<rscale>  0 0.30180537E+04</rscale>
<asrwt>0</asrwt>
<pdfrwt beam="1">  1        1 0.43134715E+00 0.30180537E+04</pdfrwt>
<pdfrwt beam="2">  1       -1 0.12495116E+00 0.30180537E+04</pdfrwt>
<totfact> 0.39400866E-01</totfact>
</mgrwt>
</event>
<event>
12    2  0.8147979E-008  0.1812275E+04  0.7818608E-02  0.8699799E-01
          3   -1    0    0  501    0  0.00000000000E+00  0.00000000000E+00  0.67135142554E+03  0.67135142554E+03  0.00000000000E+00 0. -1.
         -3   -1    0    0    0  501 -0.00000000000E+00 -0.00000000000E+00 -0.12230336060E+04  0.12230336060E+04  0.00000000000E+00 0.  1.
         23    2    1    2    0    0 -0.57914325355E+03  0.15865600079E+03  0.11475372087E+03  0.61783100456E+03  0.89264209091E+02 0.  0.
        254    2    1    2    0    0  0.57914325355E+03 -0.15865600079E+03 -0.66643590133E+03  0.12765540270E+04  0.90822614941E+03 0.  0.
         23    2    4    4    0    0 -0.14493450254E+03 -0.11396135108E+02  0.10874115236E+03  0.20189866523E+03  0.88332049014E+02 0.  0.
         23    2    4    4    0    0  0.72407775609E+03 -0.14725986568E+03 -0.77517705369E+03  0.10746553617E+04  0.89502050577E+02 0.  0.
          4    1    3    3  502    0 -0.44755486251E+03  0.13177787488E+03  0.12538120694E+03  0.48310579620E+03  0.00000000000E+00 0. -1.
         -4    1    3    3    0  502 -0.13158839104E+03  0.26878125905E+02 -0.10627486069E+02  0.13472520837E+03  0.00000000000E+00 0.  1.
         11    1    5    5    0    0 -0.79217769720E+01 -0.51321432677E+00 -0.14992008301E+02  0.16964028184E+02  0.00000000000E+00 0.  1.
        -11    1    5    5    0    0 -0.13701272556E+03 -0.10882920781E+02  0.12373316066E+03  0.18493463704E+03  0.00000000000E+00 0. -1.
          2    1    6    6  503    0  0.28328742223E+02 -0.12662069091E+02 -0.12178574601E+02  0.33334116291E+02  0.00000000000E+00 0.  1.
         -2    1    6    6    0  503  0.69574901387E+03 -0.13459779659E+03 -0.76299847909E+03  0.10413212455E+04  0.00000000000E+00 0. -1.
<mgrwt>
<rscale>  0 0.18122752E+04</rscale>
<asrwt>0</asrwt>
<pdfrwt beam="1">  1        3 0.10328484E+00 0.18122752E+04</pdfrwt>
<pdfrwt beam="2">  1       -3 0.18815901E+00 0.18122752E+04</pdfrwt>
<totfact> 0.34910802E-01</totfact>
</mgrwt>
</event>
<event>
12    2  0.8147979E-008  0.1910059E+04  0.7818608E-02  0.8649865E-01
          2   -1    0    0  501    0  0.00000000000E+00  0.00000000000E+00  0.12777754810E+04  0.12777754810E+04  0.00000000000E+00 0. -1.
         -2   -1    0    0    0  501 -0.00000000000E+00 -0.00000000000E+00 -0.71380420064E+03  0.71380420064E+03  0.00000000000E+00 0.  1.
         23    2    1    2    0    0 -0.17536891744E+03 -0.70606066759E+03  0.80799742817E+02  0.73756363190E+03  0.90529493159E+02 0.  0.
        254    2    1    2    0    0  0.17536891744E+03  0.70606066759E+03  0.48317153759E+03  0.12540160498E+04  0.89990310304E+03 0.  0.
         23    2    4    4    0    0 -0.21731518438E+03  0.39050315931E+03  0.57488129841E+03  0.73399095406E+03  0.92388346620E+02 0.  0.
         23    2    4    4    0    0  0.39268410182E+03  0.31555750829E+03 -0.91709760825E+02  0.52002509573E+03  0.90763842478E+02 0.  0.
          1    1    3    3  502    0 -0.48411942742E+02 -0.28940209668E+03 -0.57353793247E+01  0.29347944449E+03  0.00000000000E+00 0. -1.
         -1    1    3    3    0  502 -0.12695697470E+03 -0.41665857091E+03  0.86535122142E+02  0.44408418741E+03  0.00000000000E+00 0.  1.
         11    1    5    5    0    0 -0.36055760550E+02  0.10064050017E+03  0.19898054861E+03  0.22588002760E+03  0.00000000000E+00 0. -1.
        -11    1    5    5    0    0 -0.18125942383E+03  0.28986265914E+03  0.37590074980E+03  0.50811092646E+03  0.00000000000E+00 0.  1.
          1    1    6    6  503    0  0.73172195185E+02  0.10932850458E+03 -0.21046034126E+02  0.13322847899E+03  0.00000000000E+00 0. -1.
         -1    1    6    6    0  503  0.31951190663E+03  0.20622900371E+03 -0.70663726699E+02  0.38679661674E+03  0.00000000000E+00 0.  1.
<mgrwt>
<rscale>  0 0.19100592E+04</rscale>
<asrwt>0</asrwt>
<pdfrwt beam="1">  1        2 0.19658084E+00 0.19100592E+04</pdfrwt>
<pdfrwt beam="2">  1       -2 0.10981603E+00 0.19100592E+04</pdfrwt>
<totfact> 0.10517764E+01</totfact>
</mgrwt>
</event>
<event>
12    2  0.8147979E-008  0.1673474E+04  0.7818608E-02  0.8776639E-01
         -1   -1    0    0    0  501 -0.00000000000E+00  0.00000000000E+00  0.22249702771E+03  0.22249702771E+03  0.00000000000E+00 0.  1.
          1   -1    0    0  501    0  0.00000000000E+00 -0.00000000000E+00 -0.31466890015E+04  0.31466890015E+04  0.00000000000E+00 0. -1.
         23    2    1    2    0    0 -0.38292403597E+03 -0.44089928997E+03 -0.86843467662E+03  0.10504969445E+04  0.91334777651E+02 0.  0.
        254    2    1    2    0    0  0.38292403597E+03  0.44089928997E+03 -0.20557572972E+04  0.23186890847E+04  0.89953210367E+03 0.  0.
         23    2    4    4    0    0  0.31611956405E+03  0.15619477298E+03 -0.15895606062E+03  0.39732972335E+03  0.90969742058E+02 0.  0.
         23    2    4    4    0    0  0.66804471918E+02  0.28470451699E+03 -0.18968012365E+04  0.19213593614E+04  0.90815004820E+02 0.  0.
          4    1    3    3  502    0 -0.24183811629E+03 -0.32695417485E+03 -0.64810668320E+03  0.76513200152E+03  0.00000000000E+00 0. -1.
         -4    1    3    3    0  502 -0.14108591968E+03 -0.11394511511E+03 -0.22032799342E+03  0.28536494297E+03  0.00000000000E+00 0.  1.
         11    1    5    5    0    0  0.14872122314E+02 -0.11746549433E+02 -0.48070123463E+01  0.19551695921E+02  0.00000000000E+00 0. -1.
        -11    1    5    5    0    0  0.30124744173E+03  0.16794132241E+03 -0.15414904828E+03  0.37777802743E+03  0.00000000000E+00 0.  1.
          1    1    6    6  503    0 -0.14169117724E+02  0.86997537068E+02 -0.41690243795E+03  0.42611850244E+03  0.00000000000E+00 0. -1.
         -1    1    6    6    0  503  0.80973589642E+02  0.19770697992E+03 -0.14798987986E+04  0.14952408589E+04  0.00000000000E+00 0.  1.
<mgrwt>
<rscale>  0 0.16734742E+04</rscale>
<asrwt>0</asrwt>
<pdfrwt beam="1">  1        1 0.48410603E+00 0.16734742E+04</pdfrwt>
<pdfrwt beam="2">  1       -1 0.34230310E-01 0.16734742E+04</pdfrwt>
<totfact> 0.36076135E+00</totfact>
</mgrwt>
</event>
<event>
12    2  0.8147979E-008  0.2491487E+04  0.7818608E-02  0.8406025E-01
         -2   -1    0    0    0  501 -0.00000000000E+00  0.00000000000E+00  0.10583101793E+04  0.10583101793E+04  0.00000000000E+00 0.  1.
          2   -1    0    0  501    0  0.00000000000E+00 -0.00000000000E+00 -0.14663723685E+04  0.14663723685E+04  0.00000000000E+00 0. -1.
         23    2    1    2    0    0  0.81492689242E+03  0.70613469295E+03 -0.25729576186E+03  0.11122401422E+04  0.90249544557E+02 0.  0.
        254    2    1    2    0    0 -0.81492689242E+03 -0.70613469295E+03 -0.15076642729E+03  0.14124424056E+04  0.89973940058E+03 0.  0.
         23    2    4    4    0    0 -0.39590281824E+03 -0.83693999737E+03  0.25603606437E+02  0.93062555177E+03  0.90558115324E+02 0.  0.
         23    2    4    4    0    0 -0.41902407418E+03  0.13080530442E+03 -0.17637003373E+03  0.48181685383E+03  0.91377729424E+02 0.  0.
          1    1    3    3  502    0  0.47228546967E+03  0.43773463004E+03 -0.19315687446E+03  0.67229067326E+03  0.00000000000E+00 0. -1.
         -1    1    3    3    0  502  0.34264142275E+03  0.26840006291E+03 -0.64138887402E+02  0.43994946895E+03  0.00000000000E+00 0.  1.
         11    1    5    5    0    0 -0.38478120639E+03 -0.77663067116E+03  0.39945091042E+02  0.86764473518E+03  0.00000000000E+00 0.  1.
        -11    1    5    5    0    0 -0.11121611851E+02 -0.60309326206E+02 -0.14341484605E+02  0.62980816590E+02  0.00000000000E+00 0. -1.
          1    1    6    6  503    0 -0.38960860616E+03  0.93314844199E+02 -0.15452706459E+03  0.42939625037E+03  0.00000000000E+00 0. -1.
         -1    1    6    6    0  503 -0.29415468014E+02  0.37490460223E+02 -0.21842969135E+02  0.52420603458E+02  0.00000000000E+00 0.  1.
<mgrwt>
<rscale>  0 0.24914869E+04</rscale>
<asrwt>0</asrwt>
<pdfrwt beam="1">  1        2 0.22559575E+00 0.24914869E+04</pdfrwt>
<pdfrwt beam="2">  1       -2 0.16281695E+00 0.24914869E+04</pdfrwt>
<totfact> 0.28431828E+00</totfact>
</mgrwt>
</event>
<event>
12    2  0.8147979E-008  0.3686479E+04  0.7818608E-02  0.8070965E-01
          1   -1    0    0  501    0  0.00000000000E+00  0.00000000000E+00  0.34648736367E+04  0.34648736367E+04  0.00000000000E+00 0.  1.
         -1   -1    0    0    0  501 -0.00000000000E+00 -0.00000000000E+00 -0.98056451749E+03  0.98056451749E+03  0.00000000000E+00 0. -1.
         23    2    1    2    0    0  0.14315963676E+04  0.87463293482E+03  0.16893545866E+04  0.23825036778E+04  0.89184779810E+02 0.  0.
        254    2    1    2    0    0 -0.14315963676E+04 -0.87463293482E+03  0.79495453261E+03  0.20629344764E+04  0.89960825617E+03 0.  0.
         23    2    4    4    0    0 -0.50038069708E+03 -0.80506519275E+03  0.27894174967E+03  0.99213423650E+03  0.89504396106E+02 0.  0.
         23    2    4    4    0    0 -0.93121567053E+03 -0.69567742068E+02  0.51601278293E+03  0.10708002399E+04  0.91332720561E+02 0.  0.
          2    1    3    3  502    0  0.92912833132E+03  0.56381789086E+03  0.11539434619E+04  0.15851673676E+04  0.00000000000E+00 0.  1.
         -2    1    3    3    0  502  0.50246803629E+03  0.31081504396E+03  0.53541112470E+03  0.79733631016E+03  0.00000000000E+00 0. -1.
         11    1    5    5    0    0 -0.41094345204E+03 -0.68817304339E+03  0.20456645715E+03  0.82722674873E+03  0.00000000000E+00 0.  1.
        -11    1    5    5    0    0 -0.89437245039E+02 -0.11689214936E+03  0.74375292523E+02  0.16490748776E+03  0.00000000000E+00 0. -1.
          1    1    6    6  503    0 -0.58728361013E+03 -0.56872463023E+02  0.27725218837E+03  0.65192429909E+03  0.00000000000E+00 0. -1.
         -1    1    6    6    0  503 -0.34393206040E+03 -0.12695279045E+02  0.23876059456E+03  0.41887594082E+03  0.00000000000E+00 0.  1.
<mgrwt>
<rscale>  0 0.36864792E+04</rscale>
<asrwt>0</asrwt>
<pdfrwt beam="1">  1        1 0.53305748E+00 0.36864792E+04</pdfrwt>
<pdfrwt beam="2">  1       -1 0.15085608E+00 0.36864792E+04</pdfrwt>
<totfact> 0.73381580E-02</totfact>
</mgrwt>
</event>
<event>
12    2  0.8147979E-008  0.1899766E+04  0.7818608E-02  0.8654973E-01
         -2   -1    0    0    0  501 -0.00000000000E+00  0.00000000000E+00  0.56619670807E+03  0.56619670807E+03  0.00000000000E+00 0.  1.
          2   -1    0    0  501    0  0.00000000000E+00 -0.00000000000E+00 -0.15935769580E+04  0.15935769580E+04  0.00000000000E+00 0. -1.
         23    2    1    2    0    0  0.56778161246E+03  0.32145912118E+03 -0.14274776664E+02  0.65871472664E+03  0.89383420194E+02 0.  0.
        254    2    1    2    0    0 -0.56778161246E+03 -0.32145912118E+03 -0.10131054733E+04  0.15010589394E+04  0.89503257685E+03 0.  0.
         23    2    4    4    0    0 -0.73453860106E+03 -0.43751905584E+03 -0.66376347433E+03  0.10862658017E+04  0.91769065185E+02 0.  0.
         23    2    4    4    0    0  0.16675698860E+03  0.11605993465E+03 -0.34934199892E+03  0.41479313776E+03  0.93465037562E+02 0.  0.
          4    1    3    3  502    0  0.32546316753E+03  0.18837272227E+03 -0.52250071963E+02  0.37965856495E+03  0.00000000000E+00 0. -1.
         -4    1    3    3    0  502  0.24231844492E+03  0.13308639891E+03  0.37975295299E+02  0.27905616169E+03  0.00000000000E+00 0.  1.
         11    1    5    5    0    0 -0.68926623167E+03 -0.40282854784E+03 -0.64461192190E+03  0.10261010218E+04  0.00000000000E+00 0. -1.
        -11    1    5    5    0    0 -0.45272369385E+02 -0.34690507998E+02 -0.19151552434E+02  0.60164779860E+02  0.00000000000E+00 0.  1.
          3    1    6    6  503    0  0.80367175848E+02  0.10803495958E+03 -0.24021321284E+03  0.27537760088E+03  0.00000000000E+00 0. -1.
         -3    1    6    6    0  503  0.86389812750E+02  0.80249750743E+01 -0.10912878608E+03  0.13941553688E+03  0.00000000000E+00 0.  1.
<mgrwt>
<rscale>  0 0.18997663E+04</rscale>
<asrwt>0</asrwt>
<pdfrwt beam="1">  1        2 0.24516568E+00 0.18997663E+04</pdfrwt>
<pdfrwt beam="2">  1       -2 0.87107187E-01 0.18997663E+04</pdfrwt>
<totfact> 0.11998788E+01</totfact>
</mgrwt>
</event>
<event>
12    2  0.8147979E-008  0.3000782E+04  0.7818608E-02  0.8243507E-01
         -1   -1    0    0    0  501 -0.00000000000E+00  0.00000000000E+00  0.68943532222E+03  0.68943532222E+03  0.00000000000E+00 0.  1.
          1   -1    0    0  501    0  0.00000000000E+00 -0.00000000000E+00 -0.32652430029E+04  0.32652430029E+04  0.00000000000E+00 0. -1.
         23    2    1    2    0    0  0.94807353589E+03  0.82331586561E+03 -0.18701939430E+04  0.22543664455E+04  0.88601592528E+02 0.  0.
        254    2    1    2    0    0 -0.94807353589E+03 -0.82331586561E+03 -0.70561373764E+03  0.17003118796E+04  0.90359133298E+03 0.  0.
         23    2    4    4    0    0 -0.82241259705E+03 -0.32869711395E+03 -0.77001300034E+03  0.11771989536E+04  0.92049352270E+02 0.  0.
         23    2    4    4    0    0 -0.12566093884E+03 -0.49461875165E+03  0.64399262693E+02  0.52311292593E+03  0.95191844209E+02 0.  0.
          3    1    3    3  502    0  0.89457135454E+02  0.11504259809E+03 -0.21923940048E+03  0.26325518643E+03  0.00000000000E+00 0. -1.
         -3    1    3    3    0  502  0.85861640044E+03  0.70827326751E+03 -0.16509545425E+04  0.19911112591E+04  0.00000000000E+00 0.  1.
         11    1    5    5    0    0 -0.10656907649E+03 -0.74253049937E+02 -0.13090150776E+03  0.18440631286E+03  0.00000000000E+00 0.  1.
        -11    1    5    5    0    0 -0.71584352056E+03 -0.25444406402E+03 -0.63911149258E+03  0.99279264078E+03  0.00000000000E+00 0. -1.
          4    1    6    6  503    0 -0.71106898800E+02 -0.39799213499E+03  0.76579668943E+02  0.41148314214E+03  0.00000000000E+00 0. -1.
         -4    1    6    6    0  503 -0.54554040043E+02 -0.96626616661E+02 -0.12180406250E+02  0.11162978379E+03  0.00000000000E+00 0.  1.
<mgrwt>
<rscale>  0 0.30007825E+04</rscale>
<asrwt>0</asrwt>
<pdfrwt beam="1">  1        1 0.50234507E+00 0.30007825E+04</pdfrwt>
<pdfrwt beam="2">  1       -1 0.10606697E+00 0.30007825E+04</pdfrwt>
<totfact> 0.26832278E-01</totfact>
</mgrwt>
</event>
<event>
12    2  0.8147979E-008  0.1354694E+04  0.7818608E-02  0.8987282E-01
         -2   -1    0    0    0  501 -0.00000000000E+00  0.00000000000E+00  0.20009908480E+03  0.20009908480E+03  0.00000000000E+00 0. -1.
          2   -1    0    0  501    0  0.00000000000E+00 -0.00000000000E+00 -0.22928605015E+04  0.22928605015E+04  0.00000000000E+00 0.  1.
         23    2    1    2    0    0 -0.21273491160E+03  0.26738903839E+03 -0.30766503645E+03  0.46536192477E+03  0.71769811948E+02 0.  0.
        254    2    1    2    0    0  0.21273491160E+03 -0.26738903839E+03 -0.17850963802E+04  0.20275976615E+04  0.89879371926E+03 0.  0.
         23    2    4    4    0    0  0.39291979921E+02  0.32203918909E+03 -0.54287727192E+03  0.63877024867E+03  0.89769701049E+02 0.  0.
         23    2    4    4    0    0  0.17344293168E+03 -0.58942822747E+03 -0.12422191083E+04  0.13888274128E+04  0.90692798533E+02 0.  0.
          4    1    3    3  502    0 -0.14029483090E+03  0.21926071292E+03 -0.20889719133E+03  0.33376029775E+03  0.00000000000E+00 0. -1.
         -4    1    3    3    0  502 -0.72440080698E+02  0.48128325462E+02 -0.98767845129E+02  0.13160162702E+03  0.00000000000E+00 0.  1.
         11    1    5    5    0    0 -0.12004299928E+02  0.81894062570E+02 -0.20504333058E+03  0.22111876473E+03  0.00000000000E+00 0. -1.
        -11    1    5    5    0    0  0.51296279849E+02  0.24014512652E+03 -0.33783394134E+03  0.41765148394E+03  0.00000000000E+00 0.  1.
          2    1    6    6  503    0  0.62948665456E+02 -0.10988771549E+03 -0.30556030332E+03  0.33076418104E+03  0.00000000000E+00 0. -1.
         -2    1    6    6    0  503  0.11049426622E+03 -0.47954051199E+03 -0.93665880500E+03  0.10580632318E+04  0.00000000000E+00 0.  1.
<mgrwt>
<rscale>  0 0.13546945E+04</rscale>
<asrwt>0</asrwt>
<pdfrwt beam="1">  1        2 0.35274776E+00 0.13546945E+04</pdfrwt>
<pdfrwt beam="2">  1       -2 0.30784476E-01 0.13546945E+04</pdfrwt>
<totfact> 0.43764530E+01</totfact>
</mgrwt>
</event>
<event>
12    2  0.8147979E-008  0.1498558E+04  0.7818608E-02  0.8885413E-01
         -2   -1    0    0    0  501 -0.00000000000E+00  0.00000000000E+00  0.60019836303E+03  0.60019836303E+03  0.00000000000E+00 0.  1.
          2   -1    0    0  501    0  0.00000000000E+00 -0.00000000000E+00 -0.93538889158E+03  0.93538889158E+03  0.00000000000E+00 0. -1.
         23    2    1    2    0    0  0.12670040838E+03  0.17669485154E+03 -0.54000221049E+03  0.58939348894E+03  0.92240085784E+02 0.  0.
        254    2    1    2    0    0 -0.12670040838E+03 -0.17669485154E+03  0.20481168194E+03  0.94619376567E+03  0.89780886223E+03 0.  0.
         23    2    4    4    0    0  0.35373205041E+01 -0.33459332378E+03 -0.25893009671E+03  0.43111735938E+03  0.82777881273E+02 0.  0.
         23    2    4    4    0    0 -0.13023772889E+03  0.15789847224E+03  0.46374177864E+03  0.51507640629E+03  0.91397338541E+02 0.  0.
          4    1    3    3  502    0  0.89514159306E+02  0.88857394576E+02 -0.40433490311E+03  0.42355062880E+03  0.00000000000E+00 0. -1.
         -4    1    3    3    0  502  0.37186249078E+02  0.87837456965E+02 -0.13566730738E+03  0.16584286014E+03  0.00000000000E+00 0.  1.
         11    1    5    5    0    0  0.75530398214E+01 -0.24676079549E+03 -0.14194340578E+03  0.28477336435E+03  0.00000000000E+00 0.  1.
        -11    1    5    5    0    0 -0.40157193174E+01 -0.87832528292E+02 -0.11698669093E+03  0.14634399503E+03  0.00000000000E+00 0. -1.
          2    1    6    6  503    0  0.88991105241E+01 -0.35880690294E+01  0.34673756970E+02  0.35976906897E+02  0.00000000000E+00 0. -1.
         -2    1    6    6    0  503 -0.13913683941E+03  0.16148654127E+03  0.42906802167E+03  0.47909949939E+03  0.00000000000E+00 0.  1.
<mgrwt>
<rscale>  0 0.14985578E+04</rscale>
<asrwt>0</asrwt>
<pdfrwt beam="1">  1        2 0.14390598E+00 0.14985578E+04</pdfrwt>
<pdfrwt beam="2">  1       -2 0.92338210E-01 0.14985578E+04</pdfrwt>
<totfact> 0.26721111E+01</totfact>
</mgrwt>
</event>
<event>
12    2  0.8147979E-008  0.3269603E+04  0.7818608E-02  0.8170673E-01
          2   -1    0    0  501    0  0.00000000000E+00  0.00000000000E+00  0.10716591895E+04  0.10716591895E+04  0.00000000000E+00 0. -1.
         -2   -1    0    0    0  501 -0.00000000000E+00 -0.00000000000E+00 -0.24938680981E+04  0.24938680981E+04  0.00000000000E+00 0.  1.
         23    2    1    2    0    0 -0.12214166911E+04 -0.30919063563E+03  0.24778871849E+03  0.12878727180E+04  0.98789201046E+02 0.  0.
        254    2    1    2    0    0  0.12214166911E+04  0.30919063563E+03 -0.16699976270E+04  0.22776545696E+04  0.90075561714E+03 0.  0.
         23    2    4    4    0    0  0.77358644297E+03  0.61005034762E+03 -0.93672797891E+03  0.13627904188E+04  0.95608618053E+02 0.  0.
         23    2    4    4    0    0  0.44783024811E+03 -0.30085971199E+03 -0.73326964812E+03  0.91486415077E+03  0.90683736653E+02 0.  0.
          3    1    3    3  502    0 -0.97283221508E+03 -0.21533747826E+03  0.22282076273E+03  0.10209906173E+04  0.00000000000E+00 0. -1.
         -3    1    3    3    0  502 -0.24858447600E+03 -0.93853157367E+02  0.24967955765E+02  0.26688210070E+03  0.00000000000E+00 0.  1.
         11    1    5    5    0    0  0.57194860928E+03  0.50201000678E+03 -0.71462461879E+03  0.10439480851E+04  0.00000000000E+00 0. -1.
        -11    1    5    5    0    0  0.20163783369E+03  0.10804034085E+03 -0.22210336012E+03  0.31884233377E+03  0.00000000000E+00 0.  1.
          3    1    6    6  503    0  0.39774192375E+02 -0.30577838029E+01 -0.35333792261E+02  0.53289898634E+02  0.00000000000E+00 0. -1.
         -3    1    6    6    0  503  0.40805605573E+03 -0.29780192819E+03 -0.69793585586E+03  0.86157425214E+03  0.00000000000E+00 0.  1.
<mgrwt>
<rscale>  0 0.32696034E+04</rscale>
<asrwt>0</asrwt>
<pdfrwt beam="1">  1        2 0.16487065E+00 0.32696034E+04</pdfrwt>
<pdfrwt beam="2">  1       -2 0.38367201E+00 0.32696034E+04</pdfrwt>
<totfact> 0.17994157E-01</totfact>
</mgrwt>
</event>
<event>
12    2  0.8147979E-008  0.4135914E+04  0.7818608E-02  0.7977676E-01
          2   -1    0    0  501    0  0.00000000000E+00  0.00000000000E+00  0.40288837667E+04  0.40288837667E+04  0.00000000000E+00 0. -1.
         -2   -1    0    0    0  501 -0.00000000000E+00 -0.00000000000E+00 -0.10614468682E+04  0.10614468682E+04  0.00000000000E+00 0.  1.
         23    2    1    2    0    0  0.71959698209E+03 -0.16680608042E+04  0.23482574221E+04  0.29703827883E+04  0.92813391625E+02 0.  0.
        254    2    1    2    0    0 -0.71959698209E+03  0.16680608042E+04  0.61917947642E+03  0.21199478465E+04  0.90030493999E+03 0.  0.
         23    2    4    4    0    0  0.54734581064E+01  0.81643939656E+03 -0.32535690094E+02  0.82227253246E+03  0.92034230164E+02 0.  0.
         23    2    4    4    0    0 -0.72507044020E+03  0.85162140761E+03  0.65171516652E+03  0.12976753141E+04  0.90787649615E+02 0.  0.
          4    1    3    3  502    0  0.19794153240E+03 -0.54585903965E+03  0.70762186621E+03  0.91535329079E+03  0.00000000000E+00 0. -1.
         -4    1    3    3    0  502  0.52165544969E+03 -0.11222017645E+04  0.16406355559E+04  0.20550294976E+04  0.00000000000E+00 0.  1.
         11    1    5    5    0    0  0.28590420554E+02  0.11538810823E+03  0.11668886593E+02  0.11944869436E+03  0.00000000000E+00 0.  1.
        -11    1    5    5    0    0 -0.23116962447E+02  0.70105128832E+03 -0.44204576688E+02  0.70282383811E+03  0.00000000000E+00 0. -1.
          1    1    6    6  503    0 -0.53722871546E+03  0.68750534654E+03  0.49645921142E+03  0.10038675425E+04  0.00000000000E+00 0. -1.
         -1    1    6    6    0  503 -0.18784172474E+03  0.16411606107E+03  0.15525595509E+03  0.29380777159E+03  0.00000000000E+00 0.  1.
<mgrwt>
<rscale>  0 0.41359140E+04</rscale>
<asrwt>0</asrwt>
<pdfrwt beam="1">  1        2 0.61982826E+00 0.41359140E+04</pdfrwt>
<pdfrwt beam="2">  1       -2 0.16329952E+00 0.41359140E+04</pdfrwt>
<totfact> 0.59999170E-02</totfact>
</mgrwt>
</event>
<event>
12    2  0.8147979E-008  0.1423993E+04  0.7818608E-02  0.8936632E-01
          3   -1    0    0  501    0  0.00000000000E+00  0.00000000000E+00  0.16787816577E+04  0.16787816577E+04  0.00000000000E+00 0. -1.
         -3   -1    0    0    0  501 -0.00000000000E+00 -0.00000000000E+00 -0.30196842542E+03  0.30196842542E+03  0.00000000000E+00 0.  1.
         23    2    1    2    0    0 -0.33620760879E+03 -0.25395459586E+03  0.45059377605E+03  0.62347069343E+03  0.90290982904E+02 0.  0.
        254    2    1    2    0    0  0.33620760879E+03  0.25395459586E+03  0.92621945618E+03  0.13572793896E+04  0.89821844090E+03 0.  0.
         23    2    4    4    0    0  0.16736816049E+03  0.25610020525E+03  0.10709919212E+04  0.11178575411E+04  0.94775369418E+02 0.  0.
         23    2    4    4    0    0  0.16883944829E+03 -0.21456093934E+01 -0.14477246505E+03  0.23942184851E+03  0.88613723351E+02 0.  0.
          4    1    3    3  502    0 -0.24348824597E+02  0.48945422169E+01  0.35559498496E+02  0.43373952276E+02  0.00000000000E+00 0. -1.
         -4    1    3    3    0  502 -0.31185878419E+03 -0.25884913807E+03  0.41503427755E+03  0.58009674116E+03  0.00000000000E+00 0.  1.
         11    1    5    5    0    0  0.11607848937E+03  0.11581380560E+03  0.67500996738E+03  0.69464056124E+03  0.00000000000E+00 0.  1.
        -11    1    5    5    0    0  0.51289671119E+02  0.14028639965E+03  0.39598195385E+03  0.42321697989E+03  0.00000000000E+00 0. -1.
          4    1    6    6  503    0  0.55372311430E+02 -0.15080407720E+02 -0.10283177756E+03  0.11776198897E+03  0.00000000000E+00 0. -1.
         -4    1    6    6    0  503  0.11346713686E+03  0.12934798327E+02 -0.41940687494E+02  0.12165985954E+03  0.00000000000E+00 0.  1.
<mgrwt>
<rscale>  0 0.14239931E+04</rscale>
<asrwt>0</asrwt>
<pdfrwt beam="1">  1        3 0.25827410E+00 0.14239931E+04</pdfrwt>
<pdfrwt beam="2">  1       -3 0.46456682E-01 0.14239931E+04</pdfrwt>
<totfact> 0.77946199E-01</totfact>
</mgrwt>
</event>
<event>
12    2  0.8147979E-008  0.4255647E+04  0.7818608E-02  0.7954871E-01
         -2   -1    0    0    0  501 -0.00000000000E+00  0.00000000000E+00  0.11347733308E+04  0.11347733308E+04  0.00000000000E+00 0.  1.
          2   -1    0    0  501    0  0.00000000000E+00 -0.00000000000E+00 -0.39899009701E+04  0.39899009701E+04  0.00000000000E+00 0. -1.
         23    2    1    2    0    0  0.96621343350E+03  0.23821219753E+02 -0.35171828738E+04  0.36487692556E+04  0.93839560864E+02 0.  0.
        254    2    1    2    0    0 -0.96621343350E+03 -0.23821219753E+02  0.66205523451E+03  0.14759050453E+04  0.89768742866E+03 0.  0.
         23    2    4    4    0    0 -0.29205247567E+03  0.32753402058E+03 -0.21753160952E+02  0.44908773470E+03  0.92916146418E+02 0.  0.
         23    2    4    4    0    0 -0.67416095783E+03 -0.35135524033E+03  0.68380839547E+03  0.10268173106E+04  0.93895503838E+02 0.  0.
          3    1    3    3  502    0  0.17091712600E+03 -0.26760301939E+02 -0.69802503769E+03  0.71914374847E+03  0.00000000000E+00 0. -1.
         -3    1    3    3    0  502  0.79529630750E+03  0.50581521692E+02 -0.28191578361E+04  0.29296255071E+04  0.00000000000E+00 0.  1.
         11    1    5    5    0    0 -0.76931535902E+02  0.63283375764E+02 -0.41180651043E+02  0.10779189619E+03  0.00000000000E+00 0.  1.
        -11    1    5    5    0    0 -0.21512093977E+03  0.26425064482E+03  0.19427490091E+02  0.34129583851E+03  0.00000000000E+00 0. -1.
          4    1    6    6  503    0 -0.10926043250E+03 -0.27983872450E+02  0.13077461287E+03  0.17269319210E+03  0.00000000000E+00 0.  1.
         -4    1    6    6    0  503 -0.56490052533E+03 -0.32337136789E+03  0.55303378260E+03  0.85412411849E+03  0.00000000000E+00 0. -1.
<mgrwt>
<rscale>  0 0.42556472E+04</rscale>
<asrwt>0</asrwt>
<pdfrwt beam="1">  1        2 0.61383091E+00 0.42556472E+04</pdfrwt>
<pdfrwt beam="2">  1       -2 0.17458051E+00 0.42556472E+04</pdfrwt>
<totfact> 0.53085860E-02</totfact>
</mgrwt>
</event>
<event>
12    2  0.8147979E-008  0.1294741E+04  0.7818608E-02  0.9033746E-01
         -2   -1    0    0    0  501 -0.00000000000E+00  0.00000000000E+00  0.31546488489E+03  0.31546488489E+03  0.00000000000E+00 0. -1.
          2   -1    0    0  501    0  0.00000000000E+00 -0.00000000000E+00 -0.13284798592E+04  0.13284798592E+04  0.00000000000E+00 0.  1.
         23    2    1    2    0    0 -0.31655576112E+03  0.49281691166E+02 -0.19278016532E+03  0.38499685746E+03  0.91772289542E+02 0.  0.
        254    2    1    2    0    0  0.31655576112E+03 -0.49281691166E+02 -0.82023480901E+03  0.12589478866E+04  0.89973796429E+03 0.  0.
         23    2    4    4    0    0 -0.83071998228E+02 -0.15249078612E+03 -0.81296088156E+03  0.83624426262E+03  0.90800193143E+02 0.  0.
         23    2    4    4    0    0  0.39962775935E+03  0.10320909495E+03 -0.72739274474E+01  0.42270362403E+03  0.90944930692E+02 0.  0.
          3    1    3    3  502    0 -0.30966267194E+03  0.31722650352E+02 -0.16760157079E+03  0.35353583053E+03  0.00000000000E+00 0. -1.
         -3    1    3    3    0  502 -0.68930891830E+01  0.17559040813E+02 -0.25178594530E+02  0.31461026927E+02  0.00000000000E+00 0.  1.
         11    1    5    5    0    0 -0.13537925868E+02 -0.37512471514E+02 -0.39976548319E+03  0.40174980088E+03  0.00000000000E+00 0.  1.
        -11    1    5    5    0    0 -0.69534072360E+02 -0.11497831461E+03 -0.41319539837E+03  0.43449446174E+03  0.00000000000E+00 0. -1.
          1    1    6    6  503    0  0.39438120087E+03  0.10099468757E+03  0.71774370779E+01  0.40717069408E+03  0.00000000000E+00 0. -1.
         -1    1    6    6    0  503  0.52465584810E+01  0.22144073856E+01 -0.14451364525E+02  0.15532929943E+02  0.00000000000E+00 0.  1.
<mgrwt>
<rscale>  0 0.12947413E+04</rscale>
<asrwt>0</asrwt>
<pdfrwt beam="1">  1        2 0.20438152E+00 0.12947413E+04</pdfrwt>
<pdfrwt beam="2">  1       -2 0.48533059E-01 0.12947413E+04</pdfrwt>
<totfact> 0.62716489E+01</totfact>
</mgrwt>
</event>
<event>
12    2  0.8147979E-008  0.2254340E+04  0.7818608E-02  0.8496145E-01
          2   -1    0    0  501    0  0.00000000000E+00  0.00000000000E+00  0.92722482948E+03  0.92722482948E+03  0.00000000000E+00 0. -1.
         -2   -1    0    0    0  501 -0.00000000000E+00 -0.00000000000E+00 -0.13702307963E+04  0.13702307963E+04  0.00000000000E+00 0.  1.
         23    2    1    2    0    0 -0.23385177769E+03  0.89052508062E+03 -0.40563199096E+03  0.10093479717E+04  0.80774022925E+02 0.  0.
        254    2    1    2    0    0  0.23385177769E+03 -0.89052508062E+03 -0.37373975886E+02  0.12881076541E+04  0.90005718780E+03 0.  0.
         23    2    4    4    0    0  0.53702876593E+03 -0.63000598708E+03  0.13564315464E+03  0.84300642226E+03  0.83386589915E+02 0.  0.
         23    2    4    4    0    0 -0.30317698824E+03 -0.26051909354E+03 -0.17301713053E+03  0.44510123184E+03  0.91617109917E+02 0.  0.
          2    1    3    3  502    0 -0.11825566964E+03  0.51636530525E+03 -0.19345419873E+03  0.56395217782E+03  0.00000000000E+00 0. -1.
         -2    1    3    3    0  502 -0.11559610805E+03  0.37415977537E+03 -0.21217779224E+03  0.44539579390E+03  0.00000000000E+00 0.  1.
         11    1    5    5    0    0  0.14050890152E+03 -0.22183018090E+03  0.54546385254E+02  0.26819151498E+03  0.00000000000E+00 0. -1.
        -11    1    5    5    0    0  0.39651986441E+03 -0.40817580618E+03  0.81096769388E+02  0.57481490728E+03  0.00000000000E+00 0.  1.
          3    1    6    6  503    0 -0.71806789643E+01  0.27745883574E+01 -0.18217974783E+02  0.19777641319E+02  0.00000000000E+00 0. -1.
         -3    1    6    6    0  503 -0.29599630927E+03 -0.26329368190E+03 -0.15479915575E+03  0.42532359052E+03  0.00000000000E+00 0.  1.
<mgrwt>
<rscale>  0 0.22543398E+04</rscale>
<asrwt>0</asrwt>
<pdfrwt beam="1">  1        2 0.14264997E+00 0.22543398E+04</pdfrwt>
<pdfrwt beam="2">  1       -2 0.21080474E+00 0.22543398E+04</pdfrwt>
<totfact> 0.28936336E+00</totfact>
</mgrwt>
</event>
<event>
12    2  0.8147979E-008  0.3078284E+04  0.7818608E-02  0.8221723E-01
          2   -1    0    0  501    0  0.00000000000E+00  0.00000000000E+00  0.27633895188E+04  0.27633895188E+04  0.00000000000E+00 0. -1.
         -2   -1    0    0    0  501 -0.00000000000E+00 -0.00000000000E+00 -0.85726524981E+03  0.85726524981E+03  0.00000000000E+00 0.  1.
         23    2    1    2    0    0  0.16545418343E+03 -0.12959669519E+04  0.26214763383E+03  0.13356429239E+04  0.91187779454E+02 0.  0.
        254    2    1    2    0    0 -0.16545418343E+03  0.12959669519E+04  0.16439766351E+04  0.22850118447E+04  0.90095201104E+03 0.  0.
         23    2    4    4    0    0  0.47698538635E+02  0.11216355749E+04  0.77074155443E+03  0.13647912884E+04  0.90946157966E+02 0.  0.
         23    2    4    4    0    0 -0.21315272207E+03  0.17433137701E+03  0.87323508071E+03  0.92022055631E+03  0.91874121161E+02 0.  0.
          2    1    3    3  502    0  0.38658857570E+02 -0.10986236725E+03  0.31991483723E+02  0.12077955969E+03  0.00000000000E+00 0. -1.
         -2    1    3    3    0  502  0.12679532586E+03 -0.11861045846E+04  0.23015615010E+03  0.12148633642E+04  0.00000000000E+00 0.  1.
         11    1    5    5    0    0  0.44546170380E+02  0.66074600954E+03  0.50448940108E+03  0.83251378740E+03  0.00000000000E+00 0. -1.
        -11    1    5    5    0    0  0.31523682555E+01  0.46088956533E+03  0.26625215335E+03  0.53227750095E+03  0.00000000000E+00 0.  1.
          3    1    6    6  503    0 -0.20191851681E+03  0.14533465391E+03  0.67153152052E+03  0.71613394844E+03  0.00000000000E+00 0. -1.
         -3    1    6    6    0  503 -0.11234205257E+02  0.28996723106E+02  0.20170356020E+03  0.20408660788E+03  0.00000000000E+00 0.  1.
<mgrwt>
<rscale>  0 0.30782838E+04</rscale>
<asrwt>0</asrwt>
<pdfrwt beam="1">  1        2 0.42513685E+00 0.30782838E+04</pdfrwt>
<pdfrwt beam="2">  1       -2 0.13188696E+00 0.30782838E+04</pdfrwt>
<totfact> 0.86611706E-01</totfact>
</mgrwt>
</event>
<event>
12    2  0.8147979E-008  0.1710906E+04  0.7818608E-02  0.8755169E-01
          1   -1    0    0  501    0  0.00000000000E+00  0.00000000000E+00  0.75321866674E+03  0.75321866674E+03  0.00000000000E+00 0. -1.
         -1   -1    0    0    0  501 -0.00000000000E+00 -0.00000000000E+00 -0.97156316095E+03  0.97156316095E+03  0.00000000000E+00 0.  1.
         23    2    1    2    0    0  0.54810054229E+03 -0.24479215253E+03 -0.21004617379E+03  0.64242487975E+03  0.90845630607E+02 0.  0.
        254    2    1    2    0    0 -0.54810054229E+03  0.24479215253E+03 -0.82983204248E+01  0.10823569479E+04  0.90060551755E+03 0.  0.
         23    2    4    4    0    0  0.30633992060E+02 -0.27857505932E+03  0.24904260630E+02  0.29594830586E+03  0.91775118614E+02 0.  0.
         23    2    4    4    0    0 -0.57873453435E+03  0.52336721185E+03 -0.33202581055E+02  0.78640864208E+03  0.92137078646E+02 0.  0.
          2    1    3    3  502    0  0.51273554813E+03 -0.23794354277E+03 -0.21746820841E+03  0.60564617850E+03  0.00000000000E+00 0.  1.
         -2    1    3    3    0  502  0.35364994159E+02 -0.68486097600E+01  0.74220346266E+01  0.36778701248E+02  0.00000000000E+00 0. -1.
         11    1    5    5    0    0  0.61979570667E+02 -0.21283614294E+03  0.12144623539E+02  0.22200942053E+03  0.00000000000E+00 0. -1.
        -11    1    5    5    0    0 -0.31345578607E+02 -0.65738916380E+02  0.12759637091E+02  0.73938885329E+02  0.00000000000E+00 0.  1.
          2    1    6    6  503    0 -0.56319216649E+03  0.52429747716E+03 -0.27929148395E+02  0.76996967361E+03  0.00000000000E+00 0. -1.
         -2    1    6    6    0  503 -0.15542367862E+02 -0.93026531139E+00 -0.52734326604E+01  0.16438968469E+02  0.00000000000E+00 0.  1.
<mgrwt>
<rscale>  0 0.17109056E+04</rscale>
<asrwt>0</asrwt>
<pdfrwt beam="1">  1        1 0.11587980E+00 0.17109056E+04</pdfrwt>
<pdfrwt beam="2">  1       -1 0.14947126E+00 0.17109056E+04</pdfrwt>
<totfact> 0.81481898E+00</totfact>
</mgrwt>
</event>
<event>
12    2  0.8147979E-008  0.3013581E+04  0.7818608E-02  0.8239863E-01
          1   -1    0    0  501    0  0.00000000000E+00  0.00000000000E+00  0.95669585810E+03  0.95669585810E+03  0.00000000000E+00 0. -1.
         -1   -1    0    0    0  501 -0.00000000000E+00 -0.00000000000E+00 -0.23731870778E+04  0.23731870778E+04  0.00000000000E+00 0.  1.
         23    2    1    2    0    0 -0.93759774397E+03  0.62189689252E+03  0.22155843919E+03  0.11503167703E+04  0.91078293453E+02 0.  0.
        254    2    1    2    0    0  0.93759774397E+03 -0.62189689252E+03 -0.16380496589E+04  0.21795661657E+04  0.89524114683E+03 0.  0.
         23    2    4    4    0    0  0.93884705876E+03 -0.31793514713E+03 -0.78195119754E+03  0.12658893667E+04  0.92258635507E+02 0.  0.
         23    2    4    4    0    0 -0.12493147822E+01 -0.30396174539E+03 -0.85609846137E+03  0.91367679897E+03  0.97500840881E+02 0.  0.
          4    1    3    3  502    0 -0.59318523179E+03  0.42170977867E+03  0.18037321862E+03  0.74982821675E+03  0.00000000000E+00 0. -1.
         -4    1    3    3    0  502 -0.34441251218E+03  0.20018711385E+03  0.41185220571E+02  0.40048855351E+03  0.00000000000E+00 0.  1.
         11    1    5    5    0    0  0.38535108916E+03 -0.16543998556E+03 -0.37014520855E+03  0.55935080778E+03  0.00000000000E+00 0. -1.
        -11    1    5    5    0    0  0.55349596959E+03 -0.15249516157E+03 -0.41180598899E+03  0.70653855891E+03  0.00000000000E+00 0.  1.
          3    1    6    6  503    0  0.41663557438E+02 -0.71276211023E+02 -0.21447289081E+03  0.22981464524E+03  0.00000000000E+00 0.  1.
         -3    1    6    6    0  503 -0.42912872220E+02 -0.23268553437E+03 -0.64162557056E+03  0.68386215373E+03  0.00000000000E+00 0. -1.
<mgrwt>
<rscale>  0 0.30135814E+04</rscale>
<asrwt>0</asrwt>
<pdfrwt beam="1">  1        1 0.14718398E+00 0.30135814E+04</pdfrwt>
<pdfrwt beam="2">  1       -1 0.36510570E+00 0.30135814E+04</pdfrwt>
<totfact> 0.17143487E-01</totfact>
</mgrwt>
</event>
<event>
12    2  0.8147979E-008  0.2578844E+04  0.7818608E-02  0.8375423E-01
          1   -1    0    0  501    0  0.00000000000E+00  0.00000000000E+00  0.29558616108E+04  0.29558616108E+04  0.00000000000E+00 0. -1.
         -1   -1    0    0    0  501 -0.00000000000E+00 -0.00000000000E+00 -0.56247863096E+03  0.56247863096E+03  0.00000000000E+00 0.  1.
         23    2    1    2    0    0  0.23141529954E+03 -0.10515281905E+04  0.15211507492E+04  0.18661264318E+04  0.96248019407E+02 0.  0.
        254    2    1    2    0    0 -0.23141529954E+03  0.10515281905E+04  0.87223223061E+03  0.16522138100E+04  0.89986489729E+03 0.  0.
         23    2    4    4    0    0 -0.23406019750E+03  0.12029820580E+04  0.77808984432E+03  0.14545565460E+04  0.91438130804E+02 0.  0.
         23    2    4    4    0    0  0.26448979580E+01 -0.15145386752E+03  0.94142386286E+02  0.19765726392E+03  0.85207603009E+02 0.  0.
          2    1    3    3  502    0  0.12873763268E+03 -0.37089899664E+03  0.54401794996E+03  0.67089117870E+03  0.00000000000E+00 0. -1.
         -2    1    3    3    0  502  0.10267766685E+03 -0.68062919388E+03  0.97713279926E+03  0.11952352531E+04  0.00000000000E+00 0.  1.
         11    1    5    5    0    0 -0.19572796776E+03  0.97188225296E+03  0.58616946143E+03  0.11517200999E+04  0.00000000000E+00 0.  1.
        -11    1    5    5    0    0 -0.38332229735E+02  0.23109980508E+03  0.19192038289E+03  0.30283644615E+03  0.00000000000E+00 0. -1.
          2    1    6    6  503    0 -0.13932853386E+02  0.32355872386E+01 -0.24831840801E+01  0.14517562861E+02  0.00000000000E+00 0. -1.
         -2    1    6    6    0  503  0.16577751344E+02 -0.15468945476E+03  0.96625570366E+02  0.18313970106E+03  0.00000000000E+00 0.  1.
<mgrwt>
<rscale>  0 0.25788439E+04</rscale>
<asrwt>0</asrwt>
<pdfrwt beam="1">  1        1 0.45474793E+00 0.25788439E+04</pdfrwt>
<pdfrwt beam="2">  1       -1 0.86535176E-01 0.25788439E+04</pdfrwt>
<totfact> 0.74765715E-01</totfact>
</mgrwt>
</event>
<event>
12    2  0.8147979E-008  0.2018658E+04  0.7818608E-02  0.8597947E-01
          2   -1    0    0  501    0  0.00000000000E+00  0.00000000000E+00  0.24445406808E+04  0.24445406808E+04  0.00000000000E+00 0. -1.
         -2   -1    0    0    0  501 -0.00000000000E+00 -0.00000000000E+00 -0.41674304863E+03  0.41674304863E+03  0.00000000000E+00 0.  1.
         23    2    1    2    0    0 -0.51089925963E+03 -0.62453917960E+03  0.81382953020E+03  0.11496149736E+04  0.90712970348E+02 0.  0.
        254    2    1    2    0    0  0.51089925963E+03  0.62453917960E+03  0.12139681020E+04  0.17116687558E+04  0.89723137299E+03 0.  0.
         23    2    4    4    0    0  0.10857719497E+03 -0.21447827759E+03  0.37713537080E+03  0.45645448008E+03  0.91267001959E+02 0.  0.
         23    2    4    4    0    0  0.40232206466E+03  0.83901745719E+03  0.83683273115E+03  0.12552142757E+04  0.97265208962E+02 0.  0.
          3    1    3    3  502    0 -0.39585207800E+03 -0.52813038021E+03  0.69207774391E+03  0.95634312346E+03  0.00000000000E+00 0. -1.
         -3    1    3    3    0  502 -0.11504718163E+03 -0.96408799389E+02  0.12175178629E+03  0.19327185016E+03  0.00000000000E+00 0.  1.
         11    1    5    5    0    0  0.10346126619E+03 -0.22100501031E+03  0.37576713725E+03  0.44804953925E+03  0.00000000000E+00 0. -1.
        -11    1    5    5    0    0  0.51159287819E+01  0.65267327183E+01  0.13682335509E+01  0.84049408284E+01  0.00000000000E+00 0.  1.
          2    1    6    6  503    0  0.13512630106E+03  0.37173044517E+03  0.31679770218E+03  0.50675775792E+03  0.00000000000E+00 0. -1.
         -2    1    6    6    0  503  0.26719576359E+03  0.46728701202E+03  0.52003502898E+03  0.74845651781E+03  0.00000000000E+00 0.  1.
<mgrwt>
<rscale>  0 0.20186583E+04</rscale>
<asrwt>0</asrwt>
<pdfrwt beam="1">  1        2 0.37608317E+00 0.20186583E+04</pdfrwt>
<pdfrwt beam="2">  1       -2 0.64114317E-01 0.20186583E+04</pdfrwt>
<totfact> 0.78203958E+00</totfact>
</mgrwt>
</event>
<event>
12    2  0.8147979E-008  0.2233506E+04  0.7818608E-02  0.8504610E-01
          2   -1    0    0  501    0  0.00000000000E+00  0.00000000000E+00  0.16898498782E+04  0.16898498782E+04  0.00000000000E+00 0. -1.
         -2   -1    0    0    0  501 -0.00000000000E+00 -0.00000000000E+00 -0.73801660364E+03  0.73801660364E+03  0.00000000000E+00 0.  1.
         23    2    1    2    0    0  0.45371730438E+03 -0.66534961424E+03 -0.12543632560E+03  0.82006148351E+03  0.90648019746E+02 0.  0.
        254    2    1    2    0    0 -0.45371730438E+03  0.66534961424E+03  0.10772696002E+04  0.16078049984E+04  0.88089591881E+03 0.  0.
         23    2    4    4    0    0 -0.50086140795E+03  0.72545461931E+03  0.11590263423E+04  0.14590885302E+04  0.91927809325E+02 0.  0.
         23    2    4    4    0    0  0.47144103562E+02 -0.60105005065E+02 -0.81756742102E+02  0.14871646818E+03  0.97965529105E+02 0.  0.
          2    1    3    3  502    0  0.44057486607E+03 -0.64612801508E+03 -0.10495789877E+03  0.78905246023E+03  0.00000000000E+00 0. -1.
         -2    1    3    3    0  502  0.13142438319E+02 -0.19221599162E+02 -0.20478426829E+02  0.31009023279E+02  0.00000000000E+00 0.  1.
         11    1    5    5    0    0 -0.73149582677E+02  0.16587265801E+03  0.26174167660E+03  0.31839174831E+03  0.00000000000E+00 0. -1.
        -11    1    5    5    0    0 -0.42771182527E+03  0.55958196130E+03  0.89728466571E+03  0.11406967819E+04  0.00000000000E+00 0.  1.
          1    1    6    6  503    0  0.14732399266E+02  0.27045450487E+02 -0.25946633373E+02  0.40270681191E+02  0.00000000000E+00 0. -1.
         -1    1    6    6    0  503  0.32411704296E+02 -0.87150455552E+02 -0.55810108729E+02  0.10844578698E+03  0.00000000000E+00 0.  1.
<mgrwt>
<rscale>  0 0.22335060E+04</rscale>
<asrwt>0</asrwt>
<pdfrwt beam="1">  1        2 0.25997690E+00 0.22335060E+04</pdfrwt>
<pdfrwt beam="2">  1       -2 0.11354102E+00 0.22335060E+04</pdfrwt>
<totfact> 0.55097077E+00</totfact>
</mgrwt>
</event>
<event>
12    2  0.8147979E-008  0.2473123E+04  0.7818608E-02  0.8412624E-01
         -1   -1    0    0    0  501 -0.00000000000E+00  0.00000000000E+00  0.19408916666E+04  0.19408916666E+04  0.00000000000E+00 0.  1.
          1   -1    0    0  501    0  0.00000000000E+00 -0.00000000000E+00 -0.78782571288E+03  0.78782571288E+03  0.00000000000E+00 0. -1.
         23    2    1    2    0    0 -0.85755093181E+03  0.30872750518E+03  0.11204080531E+04  0.14470396824E+04  0.88900865868E+02 0.  0.
        254    2    1    2    0    0  0.85755093181E+03 -0.30872750518E+03  0.32657900550E+02  0.12816776970E+04  0.90051369084E+03 0.  0.
         23    2    4    4    0    0  0.98713076871E+03 -0.42682867672E+03 -0.18014040781E+02  0.10791939630E+04  0.87893289417E+02 0.  0.
         23    2    4    4    0    0 -0.12957983690E+03  0.11810117153E+03  0.50671941331E+02  0.20248373398E+03  0.87710866145E+02 0.  0.
          1    1    3    3  502    0 -0.47783633337E+03  0.14888147127E+03  0.55329841162E+03  0.74607800281E+03  0.00000000000E+00 0. -1.
         -1    1    3    3    0  502 -0.37971459845E+03  0.15984603391E+03  0.56710964150E+03  0.70096167964E+03  0.00000000000E+00 0.  1.
         11    1    5    5    0    0  0.42272457903E+03 -0.21785076735E+03 -0.37432637833E+02  0.47702854100E+03  0.00000000000E+00 0. -1.
        -11    1    5    5    0    0  0.56440618968E+03 -0.20897790936E+03  0.19418597052E+02  0.60216542201E+03  0.00000000000E+00 0.  1.
          4    1    6    6  503    0 -0.35542202669E+02  0.73011433226E+02  0.55048200625E+02  0.98103118933E+02  0.00000000000E+00 0. -1.
         -4    1    6    6    0  503 -0.94037634230E+02  0.45089738307E+02 -0.43762592939E+01  0.10438061505E+03  0.00000000000E+00 0.  1.
<mgrwt>
<rscale>  0 0.24731230E+04</rscale>
<asrwt>0</asrwt>
<pdfrwt beam="1">  1        1 0.12120396E+00 0.24731230E+04</pdfrwt>
<pdfrwt beam="2">  1       -1 0.29859872E+00 0.24731230E+04</pdfrwt>
<totfact> 0.68054262E-01</totfact>
</mgrwt>
</event>
<event>
12    2  0.8147979E-008  0.3654757E+04  0.7818608E-02  0.8078063E-01
         -2   -1    0    0    0  501 -0.00000000000E+00  0.00000000000E+00  0.18143707199E+04  0.18143707199E+04  0.00000000000E+00 0.  1.
          2   -1    0    0  501    0  0.00000000000E+00 -0.00000000000E+00 -0.18404791032E+04  0.18404791032E+04  0.00000000000E+00 0. -1.
         23    2    1    2    0    0  0.17099622876E+04  0.13023605793E+02  0.13281514201E+03  0.17175773311E+04  0.91057054608E+02 0.  0.
        254    2    1    2    0    0 -0.17099622876E+04 -0.13023605793E+02 -0.15892352537E+03  0.19372724920E+04  0.89645266580E+03 0.  0.
         23    2    4    4    0    0 -0.10251662163E+04 -0.40211793652E+03 -0.26839075139E+03  0.11370868609E+04  0.90930346470E+02 0.  0.
         23    2    4    4    0    0 -0.68479607125E+03  0.38909433073E+03  0.10946722602E+03  0.80018563105E+03  0.89296770124E+02 0.  0.
          4    1    3    3  502    0  0.86194406704E+03  0.64982722263E+01  0.21283122168E+02  0.86223127613E+03  0.00000000000E+00 0. -1.
         -4    1    3    3    0  502  0.84801822055E+03  0.65253335670E+01  0.11153201984E+03  0.85534605501E+03  0.00000000000E+00 0.  1.
         11    1    5    5    0    0 -0.56970960901E+03 -0.19764473266E+03 -0.18623558744E+03  0.63112294601E+03  0.00000000000E+00 0. -1.
        -11    1    5    5    0    0 -0.45545660732E+03 -0.20447320386E+03 -0.82155163952E+02  0.50596391494E+03  0.00000000000E+00 0.  1.
          4    1    6    6  503    0 -0.22088568754E+03  0.81459477433E+02  0.18442599839E+02  0.23614881519E+03  0.00000000000E+00 0. -1.
         -4    1    6    6    0  503 -0.46391038371E+03  0.30763485329E+03  0.91024626184E+02  0.56403681586E+03  0.00000000000E+00 0.  1.
<mgrwt>
<rscale>  0 0.36547566E+04</rscale>
<asrwt>0</asrwt>
<pdfrwt beam="1">  1        2 0.28315063E+00 0.36547566E+04</pdfrwt>
<pdfrwt beam="2">  1       -2 0.27913396E+00 0.36547566E+04</pdfrwt>
<totfact> 0.28340935E-01</totfact>
</mgrwt>
</event>
<event>
12    2  0.8147979E-008  0.1792795E+04  0.7818608E-02  0.8710140E-01
          2   -1    0    0  501    0  0.00000000000E+00  0.00000000000E+00  0.27245932659E+04  0.27245932659E+04  0.00000000000E+00 0. -1.
         -2   -1    0    0    0  501 -0.00000000000E+00 -0.00000000000E+00 -0.29491701665E+03  0.29491701665E+03  0.00000000000E+00 0.  1.
         23    2    1    2    0    0 -0.97426601976E+02 -0.61665634871E+03  0.12954967610E+04  0.14410158178E+04  0.91965940515E+02 0.  0.
        254    2    1    2    0    0  0.97426601976E+02  0.61665634871E+03  0.11341794882E+04  0.15784944647E+04  0.90306404451E+03 0.  0.
         23    2    4    4    0    0  0.60033578444E+02 -0.44012277437E+02  0.84040278133E+03  0.84872631787E+03  0.92295268941E+02 0.  0.
         23    2    4    4    0    0  0.37393023532E+02  0.66066862614E+03  0.29377670692E+03  0.72976814688E+03  0.91517882873E+02 0.  0.
          3    1    3    3  502    0 -0.90529863351E+02 -0.55100682284E+03  0.12130389971E+04  0.13353904985E+04  0.00000000000E+00 0. -1.
         -3    1    3    3    0  502 -0.68967386252E+01 -0.65649525867E+02  0.82457763842E+02  0.10562531926E+03  0.00000000000E+00 0.  1.
         11    1    5    5    0    0  0.60265021714E+02 -0.13384286144E+02  0.76285744244E+03  0.76535121967E+03  0.00000000000E+00 0.  1.
        -11    1    5    5    0    0 -0.23144326998E+00 -0.30627991293E+02  0.77545338885E+02  0.83375098197E+02  0.00000000000E+00 0. -1.
          1    1    6    6  503    0  0.11345555293E+02  0.18702861801E+03  0.12951267490E+03  0.22777611494E+03  0.00000000000E+00 0. -1.
         -1    1    6    6    0  503  0.26047468239E+02  0.47364000814E+03  0.16426403202E+03  0.50199203194E+03  0.00000000000E+00 0.  1.
<mgrwt>
<rscale>  0 0.17927955E+04</rscale>
<asrwt>0</asrwt>
<pdfrwt beam="1">  1        2 0.41916818E+00 0.17927955E+04</pdfrwt>
<pdfrwt beam="2">  1       -2 0.45371850E-01 0.17927955E+04</pdfrwt>
<totfact> 0.11195927E+01</totfact>
</mgrwt>
</event>
<event>
12    2  0.8147979E-008  0.2329425E+04  0.7818608E-02  0.8466409E-01
         -2   -1    0    0    0  501 -0.00000000000E+00  0.00000000000E+00  0.63200798631E+03  0.63200798631E+03  0.00000000000E+00 0.  1.
          2   -1    0    0  501    0  0.00000000000E+00 -0.00000000000E+00 -0.21464209689E+04  0.21464209689E+04  0.00000000000E+00 0. -1.
         23    2    1    2    0    0 -0.90803101259E+03 -0.27901555300E+03 -0.97105031864E+03  0.13615181214E+04  0.91776221651E+02 0.  0.
        254    2    1    2    0    0  0.90803101259E+03  0.27901555300E+03 -0.54336266399E+03  0.14169108339E+04  0.90001295983E+03 0.  0.
         23    2    4    4    0    0  0.37300765309E+02 -0.12306513117E+03  0.16013062939E+03  0.22393928375E+03  0.89278276949E+02 0.  0.
         23    2    4    4    0    0  0.87073024728E+03  0.40208068417E+03 -0.70349329338E+03  0.11929715501E+04  0.91860031815E+02 0.  0.
          2    1    3    3  502    0 -0.59878614705E+03 -0.17546717073E+03 -0.69747398226E+03  0.93584375503E+03  0.00000000000E+00 0. -1.
         -2    1    3    3    0  502 -0.30924486555E+03 -0.10354838227E+03 -0.27357633637E+03  0.42567436634E+03  0.00000000000E+00 0.  1.
         11    1    5    5    0    0  0.29164014789E+02 -0.85179368066E+02  0.16178990686E+03  0.18515409384E+03  0.00000000000E+00 0. -1.
        -11    1    5    5    0    0  0.81367505200E+01 -0.37885763100E+02 -0.16592774702E+01  0.38785189911E+02  0.00000000000E+00 0.  1.
          2    1    6    6  503    0  0.12938322484E+03  0.57798718328E+02 -0.65705681674E+02  0.15619842289E+03  0.00000000000E+00 0.  1.
         -2    1    6    6    0  503  0.74134702244E+03  0.34428196584E+03 -0.63778761171E+03  0.10367731272E+04  0.00000000000E+00 0. -1.
<mgrwt>
<rscale>  0 0.23294250E+04</rscale>
<asrwt>0</asrwt>
<pdfrwt beam="1">  1        2 0.33021860E+00 0.23294250E+04</pdfrwt>
<pdfrwt beam="2">  1       -2 0.97232000E-01 0.23294250E+04</pdfrwt>
<totfact> 0.44174007E+00</totfact>
</mgrwt>
</event>
<event>
12    2  0.8147979E-008  0.1890424E+04  0.7818608E-02  0.8659637E-01
          1   -1    0    0  501    0  0.00000000000E+00  0.00000000000E+00  0.40346754305E+04  0.40346754305E+04  0.00000000000E+00 0. -1.
         -1   -1    0    0    0  501 -0.00000000000E+00 -0.00000000000E+00 -0.22143692758E+03  0.22143692758E+03  0.00000000000E+00 0.  1.
         23    2    1    2    0    0  0.69334256892E+03 -0.58333118822E+02  0.19652513740E+04  0.20865257492E+04  0.85147334428E+02 0.  0.
        254    2    1    2    0    0 -0.69334256892E+03  0.58333118822E+02  0.18479871289E+04  0.21695866089E+04  0.89884534489E+03 0.  0.
         23    2    4    4    0    0 -0.84349183146E+03  0.69390480613E+02  0.17947069967E+04  0.19864786460E+04  0.93971796397E+02 0.  0.
         23    2    4    4    0    0  0.15014926254E+03 -0.11057361791E+02  0.53280132185E+02  0.18310796281E+03  0.89569454996E+02 0.  0.
          1    1    3    3  502    0  0.65268328701E+03 -0.74261885455E+02  0.18592176859E+04  0.19718521000E+04  0.00000000000E+00 0. -1.
         -1    1    3    3    0  502  0.40659281911E+02  0.15928766633E+02  0.10603368811E+03  0.11467364922E+03  0.00000000000E+00 0.  1.
         11    1    5    5    0    0 -0.64834891809E+03  0.92948248358E+02  0.13832694631E+04  0.15304999523E+04  0.00000000000E+00 0.  1.
        -11    1    5    5    0    0 -0.19514291337E+03 -0.23557767745E+02  0.41143753362E+03  0.45597869372E+03  0.00000000000E+00 0. -1.
          3    1    6    6  503    0  0.62395919936E+02  0.31463814052E+02 -0.40388329797E+01  0.69996675573E+02  0.00000000000E+00 0. -1.
         -3    1    6    6    0  503  0.87753342602E+02 -0.42521175843E+02  0.57318965165E+02  0.11311128724E+03  0.00000000000E+00 0.  1.
<mgrwt>
<rscale>  0 0.18904244E+04</rscale>
<asrwt>0</asrwt>
<pdfrwt beam="1">  1        1 0.62071924E+00 0.18904244E+04</pdfrwt>
<pdfrwt beam="2">  1       -1 0.34067223E-01 0.18904244E+04</pdfrwt>
<totfact> 0.68894980E-01</totfact>
</mgrwt>
</event>
<event>
12    2  0.8147979E-008  0.1421950E+04  0.7818608E-02  0.8938082E-01
          1   -1    0    0  501    0  0.00000000000E+00  0.00000000000E+00  0.94163957694E+03  0.94163957694E+03  0.00000000000E+00 0. -1.
         -1   -1    0    0    0  501 -0.00000000000E+00 -0.00000000000E+00 -0.53681390838E+03  0.53681390838E+03  0.00000000000E+00 0.  1.
         23    2    1    2    0    0  0.11894780786E+03 -0.22278487480E+03  0.49068810902E+03  0.55935046289E+03  0.91194509512E+02 0.  0.
        254    2    1    2    0    0 -0.11894780786E+03  0.22278487480E+03 -0.85862440471E+02  0.91910302243E+03  0.87954324835E+03 0.  0.
         23    2    4    4    0    0 -0.11303067484E+03 -0.24229691825E+03  0.21845698115E+03  0.35581364641E+03  0.86000978566E+02 0.  0.
         23    2    4    4    0    0 -0.59171330225E+01  0.46508179305E+03 -0.30431942162E+03  0.56328937602E+03  0.91370258163E+02 0.  0.
          1    1    3    3  502    0  0.43249848872E+02 -0.14969513046E+03  0.35461481537E+03  0.38733815820E+03  0.00000000000E+00 0. -1.
         -1    1    3    3    0  502  0.75697958986E+02 -0.73089744334E+02  0.13607329365E+03  0.17201230469E+03  0.00000000000E+00 0.  1.
         11    1    5    5    0    0 -0.76450543247E+02 -0.22699210737E+03  0.20015382116E+03  0.31214044034E+03  0.00000000000E+00 0. -1.
        -11    1    5    5    0    0 -0.36580131589E+02 -0.15304810880E+02  0.18303159988E+02  0.43673206073E+02  0.00000000000E+00 0.  1.
          4    1    6    6  503    0  0.40934069721E+02  0.26119405928E+03 -0.15800778186E+03  0.30800063928E+03  0.00000000000E+00 0. -1.
         -4    1    6    6    0  503 -0.46851202744E+02  0.20388773377E+03 -0.14631163976E+03  0.25528873674E+03  0.00000000000E+00 0.  1.
<mgrwt>
<rscale>  0 0.14219497E+04</rscale>
<asrwt>0</asrwt>
<pdfrwt beam="1">  1        1 0.14486763E+00 0.14219497E+04</pdfrwt>
<pdfrwt beam="2">  1       -1 0.82586756E-01 0.14219497E+04</pdfrwt>
<totfact> 0.23880728E+01</totfact>
</mgrwt>
</event>
<event>
12    2  0.8147979E-008  0.2805145E+04  0.7818608E-02  0.8301673E-01
         -2   -1    0    0    0  501 -0.00000000000E+00  0.00000000000E+00  0.10330820377E+04  0.10330820377E+04  0.00000000000E+00 0.  1.
          2   -1    0    0  501    0  0.00000000000E+00 -0.00000000000E+00 -0.19042147903E+04  0.19042147903E+04  0.00000000000E+00 0. -1.
         23    2    1    2    0    0  0.10688655469E+04  0.46428235741E+03  0.10046505358E+03  0.11733555597E+04  0.92942873883E+02 0.  0.
        254    2    1    2    0    0 -0.10688655469E+04 -0.46428235741E+03 -0.97159780615E+03  0.17639412683E+04  0.89969708044E+03 0.  0.
         23    2    4    4    0    0 -0.54461213985E+03  0.74543717414E+02 -0.82040685207E+03  0.99153201051E+03  0.88933549725E+02 0.  0.
         23    2    4    4    0    0 -0.52425340703E+03 -0.53882607482E+03 -0.15119095408E+03  0.77240925783E+03  0.92640073912E+02 0.  0.
          4    1    3    3  502    0  0.45320630912E+03  0.15018994432E+03  0.25033898826E+02  0.47810006703E+03  0.00000000000E+00 0. -1.
         -4    1    3    3    0  502  0.61565923776E+03  0.31409241309E+03  0.75431154750E+02  0.69525549268E+03  0.00000000000E+00 0.  1.
         11    1    5    5    0    0 -0.82925809947E+02  0.90014488332E+00 -0.18426997612E+03  0.20207158215E+03  0.00000000000E+00 0.  1.
        -11    1    5    5    0    0 -0.46168632990E+03  0.73643572530E+02 -0.63613687596E+03  0.78946042836E+03  0.00000000000E+00 0. -1.
          1    1    6    6  503    0 -0.33151571619E+03 -0.39501065044E+03 -0.81961781376E+02  0.52216263525E+03  0.00000000000E+00 0. -1.
         -1    1    6    6    0  503 -0.19273769084E+03 -0.14381542438E+03 -0.69229172701E+02  0.25024662258E+03  0.00000000000E+00 0.  1.
<mgrwt>
<rscale>  0 0.28051453E+04</rscale>
<asrwt>0</asrwt>
<pdfrwt beam="1">  1        2 0.29295612E+00 0.28051453E+04</pdfrwt>
<pdfrwt beam="2">  1       -2 0.15893570E+00 0.28051453E+04</pdfrwt>
<totfact> 0.16852665E+00</totfact>
</mgrwt>
</event>
<event>
12    2  0.8147979E-008  0.1763337E+04  0.7818608E-02  0.8726043E-01
          1   -1    0    0  501    0  0.00000000000E+00  0.00000000000E+00  0.22633412851E+04  0.22633412851E+04  0.00000000000E+00 0. -1.
         -1   -1    0    0    0  501 -0.00000000000E+00 -0.00000000000E+00 -0.34344757740E+03  0.34344757740E+03  0.00000000000E+00 0.  1.
         23    2    1    2    0    0 -0.40368912830E+03  0.50572387347E+03  0.69181604624E+03  0.95253561590E+03  0.99965540232E+02 0.  0.
        254    2    1    2    0    0  0.40368912830E+03 -0.50572387347E+03  0.12280776615E+04  0.16542532466E+04  0.89980970922E+03 0.  0.
         23    2    4    4    0    0 -0.17402112656E+03  0.36894575976E+02  0.61917310939E+03  0.65066566287E+03  0.91355915045E+02 0.  0.
         23    2    4    4    0    0  0.57771025486E+03 -0.54261844945E+03  0.60890455208E+03  0.10035875837E+04  0.90770944935E+02 0.  0.
          3    1    3    3  502    0 -0.23875812879E+03  0.28300700674E+03  0.46503095650E+03  0.59443435334E+03  0.00000000000E+00 0. -1.
         -3    1    3    3    0  502 -0.16493099950E+03  0.22271686673E+03  0.22678508974E+03  0.35810126256E+03  0.00000000000E+00 0.  1.
         11    1    5    5    0    0 -0.77391740593E+02 -0.85267486117E+01  0.14459875460E+03  0.16422845912E+03  0.00000000000E+00 0. -1.
        -11    1    5    5    0    0 -0.96629385969E+02  0.45421324588E+02  0.47457435480E+03  0.48643720375E+03  0.00000000000E+00 0.  1.
          1    1    6    6  503    0  0.35406334948E+02 -0.40760302461E+02  0.73097564878E+02  0.90874995473E+02  0.00000000000E+00 0. -1.
         -1    1    6    6    0  503  0.54230391991E+03 -0.50185814699E+03  0.53580698720E+03  0.91271258827E+03  0.00000000000E+00 0.  1.
<mgrwt>
<rscale>  0 0.17633367E+04</rscale>
<asrwt>0</asrwt>
<pdfrwt beam="1">  1        1 0.34820634E+00 0.17633367E+04</pdfrwt>
<pdfrwt beam="2">  1       -1 0.52838090E-01 0.17633367E+04</pdfrwt>
<totfact> 0.67436680E+00</totfact>
</mgrwt>
</event>
<event>
12    2  0.8147979E-008  0.1227397E+04  0.7818608E-02  0.9089209E-01
          2   -1    0    0  501    0  0.00000000000E+00  0.00000000000E+00  0.12960952189E+04  0.12960952189E+04  0.00000000000E+00 0. -1.
         -2   -1    0    0    0  501 -0.00000000000E+00 -0.00000000000E+00 -0.29058484597E+03  0.29058484597E+03  0.00000000000E+00 0.  1.
         23    2    1    2    0    0 -0.22334023630E+03 -0.26340333424E+02  0.34073582615E+02  0.24316361700E+03  0.85981749705E+02 0.  0.
        254    2    1    2    0    0  0.22334023630E+03  0.26340333424E+02  0.97143679030E+03  0.13435164479E+04  0.90042897212E+03 0.  0.
         23    2    4    4    0    0  0.55539287419E+03  0.11122197408E+03  0.61728335120E+03  0.84268835542E+03  0.90847985467E+02 0.  0.
         23    2    4    4    0    0 -0.33205263789E+03 -0.84881640653E+02  0.35415343909E+03  0.50082809245E+03  0.89108206753E+02 0.  0.
          3    1    3    3  502    0 -0.66545615822E+02 -0.23584354715E+02  0.48541836536E+02  0.85678764387E+02  0.00000000000E+00 0. -1.
         -3    1    3    3    0  502 -0.15679462048E+03 -0.27559787082E+01 -0.14468253921E+02  0.15748485261E+03  0.00000000000E+00 0.  1.
         11    1    5    5    0    0  0.60060834444E+02 -0.14019077290E+02  0.51434461739E+02  0.80307796736E+02  0.00000000000E+00 0. -1.
        -11    1    5    5    0    0  0.49533203975E+03  0.12524105137E+03  0.56584888946E+03  0.76238055868E+03  0.00000000000E+00 0.  1.
          3    1    6    6  503    0 -0.15521254089E+03 -0.44380986400E+02  0.22998117400E+03  0.28098388779E+03  0.00000000000E+00 0. -1.
         -3    1    6    6    0  503 -0.17684009700E+03 -0.40500654253E+02  0.12417226510E+03  0.21984420466E+03  0.00000000000E+00 0.  1.
<mgrwt>
<rscale>  0 0.12273966E+04</rscale>
<asrwt>0</asrwt>
<pdfrwt beam="1">  1        2 0.19939926E+00 0.12273966E+04</pdfrwt>
<pdfrwt beam="2">  1       -2 0.44705362E-01 0.12273966E+04</pdfrwt>
<totfact> 0.77637034E+01</totfact>
</mgrwt>
</event>
<event>
12    2  0.8147979E-008  0.1489636E+04  0.7818608E-02  0.8891374E-01
          2   -1    0    0  501    0  0.00000000000E+00  0.00000000000E+00  0.12657020593E+04  0.12657020593E+04  0.00000000000E+00 0. -1.
         -2   -1    0    0    0  501 -0.00000000000E+00 -0.00000000000E+00 -0.43829728631E+03  0.43829728631E+03  0.00000000000E+00 0.  1.
         23    2    1    2    0    0 -0.17253101566E+02 -0.47378013314E+03  0.25995721029E+03  0.54737081515E+03  0.85274697464E+02 0.  0.
        254    2    1    2    0    0  0.17253101566E+02  0.47378013314E+03  0.56744756270E+03  0.11566285305E+04  0.88939728861E+03 0.  0.
         23    2    4    4    0    0 -0.16299682011E+03  0.15310519144E+03 -0.19016455548E+03  0.30943745584E+03  0.97876544184E+02 0.  0.
         23    2    4    4    0    0  0.18024992168E+03  0.32067494169E+03  0.75761211818E+03  0.84719107462E+03  0.91837589264E+02 0.  0.
          1    1    3    3  502    0  0.25531549166E+02 -0.34617654944E+03  0.18753375416E+03  0.39453640178E+03  0.00000000000E+00 0. -1.
         -1    1    3    3    0  502 -0.42784650732E+02 -0.12760358370E+03  0.72423456131E+02  0.15283441337E+03  0.00000000000E+00 0.  1.
         11    1    5    5    0    0 -0.66541565526E+02  0.11180275056E+03 -0.62951788548E+02  0.14453567953E+03  0.00000000000E+00 0. -1.
        -11    1    5    5    0    0 -0.96455254584E+02  0.41302440887E+02 -0.12721276693E+03  0.16490177631E+03  0.00000000000E+00 0.  1.
          2    1    6    6  503    0  0.33454252709E+02  0.51022047105E+02  0.21772097746E+03  0.22610807226E+03  0.00000000000E+00 0. -1.
         -2    1    6    6    0  503  0.14679566897E+03  0.26965289459E+03  0.53989114072E+03  0.62108300236E+03  0.00000000000E+00 0.  1.
<mgrwt>
<rscale>  0 0.14896359E+04</rscale>
<asrwt>0</asrwt>
<pdfrwt beam="1">  1        2 0.19472339E+00 0.14896359E+04</pdfrwt>
<pdfrwt beam="2">  1       -2 0.67430352E-01 0.14896359E+04</pdfrwt>
<totfact> 0.33764482E+01</totfact>
</mgrwt>
</event>
<event>
12    2  0.8147979E-008  0.2330698E+04  0.7818608E-02  0.8465915E-01
         -2   -1    0    0    0  501 -0.00000000000E+00  0.00000000000E+00  0.62756516965E+03  0.62756516965E+03  0.00000000000E+00 0.  1.
          2   -1    0    0  501    0  0.00000000000E+00 -0.00000000000E+00 -0.21639806346E+04  0.21639806346E+04  0.00000000000E+00 0. -1.
         23    2    1    2    0    0  0.31761882184E+03  0.92723636055E+03 -0.48281919851E+03  0.10962004044E+04  0.88836725821E+02 0.  0.
        254    2    1    2    0    0 -0.31761882184E+03 -0.92723636055E+03 -0.10535962665E+04  0.16953453999E+04  0.89637154564E+03 0.  0.
         23    2    4    4    0    0  0.17771396441E+03 -0.75943448606E+03 -0.73768405597E+03  0.10772922341E+04  0.89765246256E+02 0.  0.
         23    2    4    4    0    0 -0.49533278625E+03 -0.16780187450E+03 -0.31591221048E+03  0.61805316577E+03  0.93151236044E+02 0.  0.
          4    1    3    3  502    0  0.17546241669E+03  0.56901268275E+03 -0.33653659901E+03  0.68397322702E+03  0.00000000000E+00 0. -1.
         -4    1    3    3    0  502  0.14215640515E+03  0.35822367780E+03 -0.14628259950E+03  0.41222717739E+03  0.00000000000E+00 0.  1.
         11    1    5    5    0    0  0.11520552861E+03 -0.55324231974E+03 -0.58389667019E+03  0.81257904208E+03  0.00000000000E+00 0. -1.
        -11    1    5    5    0    0  0.62508435797E+02 -0.20619216632E+03 -0.15378738578E+03  0.26471319201E+03  0.00000000000E+00 0.  1.
          1    1    6    6  503    0 -0.35606464739E+03 -0.94466448752E+02 -0.17958424904E+03  0.40982489623E+03  0.00000000000E+00 0. -1.
         -1    1    6    6    0  503 -0.13926813885E+03 -0.73335425744E+02 -0.13632796144E+03  0.20822826955E+03  0.00000000000E+00 0.  1.
<mgrwt>
<rscale>  0 0.23306985E+04</rscale>
<asrwt>0</asrwt>
<pdfrwt beam="1">  1        2 0.33292010E+00 0.23306985E+04</pdfrwt>
<pdfrwt beam="2">  1       -2 0.96548486E-01 0.23306985E+04</pdfrwt>
<totfact> 0.43900128E+00</totfact>
</mgrwt>
</event>
<event>
12    2  0.8147979E-008  0.1652028E+04  0.7818608E-02  0.8789207E-01
          2   -1    0    0  501    0  0.00000000000E+00  0.00000000000E+00  0.13489860807E+04  0.13489860807E+04  0.00000000000E+00 0. -1.
         -2   -1    0    0    0  501 -0.00000000000E+00 -0.00000000000E+00 -0.50578681909E+03  0.50578681909E+03  0.00000000000E+00 0.  1.
         23    2    1    2    0    0 -0.38900203296E+03 -0.30916174831E+03 -0.24322105499E+02  0.50564184399E+03  0.90435287986E+02 0.  0.
        254    2    1    2    0    0  0.38900203296E+03  0.30916174831E+03  0.86752136713E+03  0.13491310558E+04  0.90590160341E+03 0.  0.
         23    2    4    4    0    0  0.16382902834E+03  0.61370872252E+03  0.49804983910E+03  0.81234284232E+03  0.91481717413E+02 0.  0.
         23    2    4    4    0    0  0.22517300462E+03 -0.30454697421E+03  0.36947152802E+03  0.53678821349E+03  0.90446860703E+02 0.  0.
          3    1    3    3  502    0 -0.34326102325E+03 -0.28399587475E+03  0.54424127950E+01  0.44554618932E+03  0.00000000000E+00 0. -1.
         -3    1    3    3    0  502 -0.45741009709E+02 -0.25165873557E+02 -0.29764518294E+02  0.60095654672E+02  0.00000000000E+00 0.  1.
         11    1    5    5    0    0  0.14429334688E+03  0.44261086443E+03  0.40244130535E+03  0.61537301819E+03  0.00000000000E+00 0.  1.
        -11    1    5    5    0    0  0.19535681463E+02  0.17109785809E+03  0.95608533752E+02  0.19696982413E+03  0.00000000000E+00 0. -1.
          3    1    6    6  503    0  0.22425361769E+03 -0.26337562569E+03  0.34660052744E+03  0.48968186701E+03  0.00000000000E+00 0. -1.
         -3    1    6    6    0  503  0.91938692703E+00 -0.41171348512E+02  0.22871000585E+02  0.47106346476E+02  0.00000000000E+00 0.  1.
<mgrwt>
<rscale>  0 0.16520283E+04</rscale>
<asrwt>0</asrwt>
<pdfrwt beam="1">  1        2 0.20753632E+00 0.16520283E+04</pdfrwt>
<pdfrwt beam="2">  1       -2 0.77813357E-01 0.16520283E+04</pdfrwt>
<totfact> 0.21753677E+01</totfact>
</mgrwt>
</event>
<event>
12    2  0.8147979E-008  0.1808301E+04  0.7818608E-02  0.8701897E-01
         -2   -1    0    0    0  501 -0.00000000000E+00  0.00000000000E+00  0.10049426049E+04  0.10049426049E+04  0.00000000000E+00 0.  1.
          2   -1    0    0  501    0  0.00000000000E+00 -0.00000000000E+00 -0.81346756397E+03  0.81346756397E+03  0.00000000000E+00 0. -1.
         23    2    1    2    0    0 -0.32671564996E+03 -0.47439366583E+03  0.42317537295E+03  0.72122903207E+03  0.96444047623E+02 0.  0.
        254    2    1    2    0    0  0.32671564996E+03  0.47439366583E+03 -0.23170033198E+03  0.10971811368E+04  0.90461535312E+03 0.  0.
         23    2    4    4    0    0  0.18074939078E+03 -0.22155988368E+03  0.87598979652E+02  0.31248709790E+03  0.90639289480E+02 0.  0.
         23    2    4    4    0    0  0.14596625918E+03  0.69595354950E+03 -0.31929931164E+03  0.78469403894E+03  0.90195301706E+02 0.  0.
          3    1    3    3  502    0 -0.89345053366E+02 -0.66278699834E+02  0.67497028448E+02  0.13012015010E+03  0.00000000000E+00 0. -1.
         -3    1    3    3    0  502 -0.23737059659E+03 -0.40811496599E+03  0.35567834450E+03  0.59110888197E+03  0.00000000000E+00 0.  1.
         11    1    5    5    0    0  0.18609142413E+03 -0.21624395227E+03  0.70607739792E+02  0.29389950314E+03  0.00000000000E+00 0. -1.
        -11    1    5    5    0    0 -0.53420333507E+01 -0.53159314080E+01  0.16991239860E+02  0.18587594762E+02  0.00000000000E+00 0.  1.
          2    1    6    6  503    0  0.13492419978E+03  0.48457493893E+03 -0.25188594716E+03  0.56255127900E+03  0.00000000000E+00 0. -1.
         -2    1    6    6    0  503  0.11042059395E+02  0.21137861057E+03 -0.67413364471E+02  0.22214275994E+03  0.00000000000E+00 0.  1.
<mgrwt>
<rscale>  0 0.18083011E+04</rscale>
<asrwt>0</asrwt>
<pdfrwt beam="1">  1        2 0.12514886E+00 0.18083011E+04</pdfrwt>
<pdfrwt beam="2">  1       -2 0.15460655E+00 0.18083011E+04</pdfrwt>
<totfact> 0.87805834E+00</totfact>
</mgrwt>
</event>
<event>
12    2  0.8147979E-008  0.1540122E+04  0.7818608E-02  0.8858202E-01
         -2   -1    0    0    0  501 -0.00000000000E+00  0.00000000000E+00  0.88729873965E+03  0.88729873965E+03  0.00000000000E+00 0.  1.
          2   -1    0    0  501    0  0.00000000000E+00 -0.00000000000E+00 -0.66831410002E+03  0.66831410002E+03  0.00000000000E+00 0. -1.
         23    2    1    2    0    0  0.48750775899E+03 -0.97659436992E+02  0.10831389317E+03  0.51670778984E+03  0.89743300144E+02 0.  0.
        254    2    1    2    0    0 -0.48750775899E+03  0.97659436992E+02  0.11067074646E+03  0.10389050498E+04  0.90546921966E+03 0.  0.
         23    2    4    4    0    0 -0.62619741497E+03 -0.22252752210E+03  0.90079850827E+02  0.67697865160E+03  0.92433838953E+02 0.  0.
         23    2    4    4    0    0  0.13868965598E+03  0.32018695910E+03  0.20590895632E+02  0.36192639824E+03  0.93873443047E+02 0.  0.
          3    1    3    3  502    0  0.33235837747E+03 -0.68278447651E+02  0.30494855015E+02  0.34066695418E+03  0.00000000000E+00 0. -1.
         -3    1    3    3    0  502  0.15514938152E+03 -0.29380989340E+02  0.77819038158E+02  0.17604083566E+03  0.00000000000E+00 0.  1.
         11    1    5    5    0    0 -0.16143181602E+03 -0.30309990658E+02  0.53323303832E+02  0.17269134747E+03  0.00000000000E+00 0. -1.
        -11    1    5    5    0    0 -0.46476559895E+03 -0.19221753145E+03  0.36756546995E+02  0.50428730413E+03  0.00000000000E+00 0.  1.
          2    1    6    6  503    0  0.57374489301E+02  0.13374314018E+03  0.55106190510E+02  0.15561411183E+03  0.00000000000E+00 0.  1.
         -2    1    6    6    0  503  0.81315166681E+02  0.18644381891E+03 -0.34515294878E+02  0.20631228641E+03  0.00000000000E+00 0. -1.
<mgrwt>
<rscale>  0 0.15401224E+04</rscale>
<asrwt>0</asrwt>
<pdfrwt beam="1">  1        2 0.10281755E+00 0.15401224E+04</pdfrwt>
<pdfrwt beam="2">  1       -2 0.13650750E+00 0.15401224E+04</pdfrwt>
<totfact> 0.16036340E+01</totfact>
</mgrwt>
</event>
<event>
12    2  0.8147979E-008  0.2271652E+04  0.7818608E-02  0.8489183E-01
         -2   -1    0    0    0  501 -0.00000000000E+00  0.00000000000E+00  0.78306054236E+03  0.78306054236E+03  0.00000000000E+00 0.  1.
          2   -1    0    0  501    0  0.00000000000E+00 -0.00000000000E+00 -0.16475109071E+04  0.16475109071E+04  0.00000000000E+00 0. -1.
         23    2    1    2    0    0  0.49559247693E+03  0.81564605743E+03 -0.39094002318E+03  0.10355235151E+04  0.92652331082E+02 0.  0.
        254    2    1    2    0    0 -0.49559247693E+03 -0.81564605743E+03 -0.47351034159E+03  0.13950479344E+04  0.90058664292E+03 0.  0.
         23    2    4    4    0    0  0.23431821904E+03 -0.35007277053E+03 -0.71726897398E+02  0.43677153580E+03  0.90380607623E+02 0.  0.
         23    2    4    4    0    0 -0.72991069597E+03 -0.46557328690E+03 -0.40178344419E+03  0.95827639856E+03  0.85648178302E+02 0.  0.
          3    1    3    3  502    0  0.15980417077E+03  0.22824381318E+03 -0.15577310455E+03  0.31921445981E+03  0.00000000000E+00 0. -1.
         -3    1    3    3    0  502  0.33578830616E+03  0.58740224425E+03 -0.23516691863E+03  0.71630905531E+03  0.00000000000E+00 0.  1.
         11    1    5    5    0    0  0.15685536906E+03 -0.19517492959E+03 -0.29032237528E+01  0.25041024070E+03  0.00000000000E+00 0. -1.
        -11    1    5    5    0    0  0.77462849989E+02 -0.15489784094E+03 -0.68823673645E+02  0.18636129510E+03  0.00000000000E+00 0.  1.
          1    1    6    6  503    0 -0.62404336178E+03 -0.39340346534E+03 -0.37435395736E+03  0.82724681281E+03  0.00000000000E+00 0. -1.
         -1    1    6    6    0  503 -0.10586733420E+03 -0.72169821562E+02 -0.27429486831E+02  0.13102958575E+03  0.00000000000E+00 0.  1.
<mgrwt>
<rscale>  0 0.22716521E+04</rscale>
<asrwt>0</asrwt>
<pdfrwt beam="1">  1        2 0.25346322E+00 0.22716521E+04</pdfrwt>
<pdfrwt beam="2">  1       -2 0.12047085E+00 0.22716521E+04</pdfrwt>
<totfact> 0.50134362E+00</totfact>
</mgrwt>
</event>
<event>
12    2  0.8147979E-008  0.1738461E+04  0.7818608E-02  0.8739728E-01
         -1   -1    0    0    0  501 -0.00000000000E+00  0.00000000000E+00  0.60864567123E+03  0.60864567123E+03  0.00000000000E+00 0.  1.
          1   -1    0    0  501    0  0.00000000000E+00 -0.00000000000E+00 -0.12413812082E+04  0.12413812082E+04  0.00000000000E+00 0. -1.
         23    2    1    2    0    0  0.48964020431E+03  0.22897560346E+02 -0.65728536080E+03  0.82503772238E+03  0.91604420672E+02 0.  0.
        254    2    1    2    0    0 -0.48964020431E+03 -0.22897560346E+02  0.24549823808E+02  0.10249891571E+04  0.89984901528E+03 0.  0.
         23    2    4    4    0    0 -0.23598945897E+03 -0.45175194125E+03  0.98761741988E+01  0.51742037712E+03  0.88631070596E+02 0.  0.
         23    2    4    4    0    0 -0.25365074534E+03  0.42885438090E+03  0.14673649609E+02  0.50756877995E+03  0.95686831676E+02 0.  0.
          4    1    3    3  502    0  0.14350862589E+03  0.10884917370E+02 -0.26639478405E+03  0.30278604344E+03  0.00000000000E+00 0. -1.
         -4    1    3    3    0  502  0.34613157842E+03  0.12012642975E+02 -0.39089057675E+03  0.52225167895E+03  0.00000000000E+00 0.  1.
         11    1    5    5    0    0 -0.13478276933E+03 -0.20810603860E+03  0.42584162858E+02  0.25157092268E+03  0.00000000000E+00 0.  1.
        -11    1    5    5    0    0 -0.10120668964E+03 -0.24364590265E+03 -0.32707988659E+02  0.26584945444E+03  0.00000000000E+00 0. -1.
          1    1    6    6  503    0 -0.23003155845E+03  0.35807762553E+03 -0.18304533970E+02  0.42599197146E+03  0.00000000000E+00 0. -1.
         -1    1    6    6    0  503 -0.23619186887E+02  0.70776755374E+02  0.32978183579E+02  0.81576808485E+02  0.00000000000E+00 0.  1.
<mgrwt>
<rscale>  0 0.17384606E+04</rscale>
<asrwt>0</asrwt>
<pdfrwt beam="1">  1        1 0.19098172E+00 0.17384606E+04</pdfrwt>
<pdfrwt beam="2">  1       -1 0.93637796E-01 0.17384606E+04</pdfrwt>
<totfact> 0.10459596E+01</totfact>
</mgrwt>
</event>
<event>
12    2  0.8147979E-008  0.2762631E+04  0.7818608E-02  0.8314965E-01
          2   -1    0    0  501    0  0.00000000000E+00  0.00000000000E+00  0.17301665584E+04  0.17301665584E+04  0.00000000000E+00 0. -1.
         -2   -1    0    0    0  501 -0.00000000000E+00 -0.00000000000E+00 -0.11028024530E+04  0.11028024530E+04  0.00000000000E+00 0.  1.
         23    2    1    2    0    0 -0.40404272615E+03  0.53149330467E+03  0.13436208226E+04  0.15029438040E+04  0.88246843176E+02 0.  0.
        254    2    1    2    0    0  0.40404272615E+03 -0.53149330467E+03 -0.71625671730E+03  0.13300252074E+04  0.90011538694E+03 0.  0.
         23    2    4    4    0    0  0.17077528033E+03 -0.71292296521E+02  0.19195335572E+03  0.28134561635E+03  0.89791297765E+02 0.  0.
         23    2    4    4    0    0  0.23326744582E+03 -0.46020100815E+03 -0.90821007302E+03  0.10486795911E+04  0.93191624016E+02 0.  0.
          1    1    3    3  502    0 -0.21973932038E+03  0.22770384058E+03  0.68601473436E+03  0.75548039266E+03  0.00000000000E+00 0. -1.
         -1    1    3    3    0  502 -0.18430340577E+03  0.30378946409E+03  0.65760608828E+03  0.74746341129E+03  0.00000000000E+00 0.  1.
         11    1    5    5    0    0  0.86151799914E+02  0.11544831873E+02  0.73187321183E+02  0.11363010056E+03  0.00000000000E+00 0. -1.
        -11    1    5    5    0    0  0.84623480415E+02 -0.82837128394E+02  0.11876603454E+03  0.16771551579E+03  0.00000000000E+00 0.  1.
          3    1    6    6  503    0  0.24437242930E+02 -0.79773591410E+02 -0.91496486588E+02  0.12382492393E+03  0.00000000000E+00 0. -1.
         -3    1    6    6    0  503  0.20883020289E+03 -0.38042741674E+03 -0.81671358643E+03  0.92485466713E+03  0.00000000000E+00 0.  1.
<mgrwt>
<rscale>  0 0.27626306E+04</rscale>
<asrwt>0</asrwt>
<pdfrwt beam="1">  1        2 0.26617947E+00 0.27626306E+04</pdfrwt>
<pdfrwt beam="2">  1       -2 0.16966192E+00 0.27626306E+04</pdfrwt>
<totfact> 0.17652229E+00</totfact>
</mgrwt>
</event>
<event>
12    2  0.8147979E-008  0.2293172E+04  0.7818608E-02  0.8480618E-01
         -2   -1    0    0    0  501 -0.00000000000E+00  0.00000000000E+00  0.74972955195E+03  0.74972955195E+03  0.00000000000E+00 0. -1.
          2   -1    0    0  501    0  0.00000000000E+00 -0.00000000000E+00 -0.17535114638E+04  0.17535114638E+04  0.00000000000E+00 0.  1.
         23    2    1    2    0    0  0.34256439421E+03 -0.83628940703E+03 -0.48531068754E+02  0.90955358263E+03  0.90565548373E+02 0.  0.
        254    2    1    2    0    0 -0.34256439421E+03  0.83628940703E+03 -0.95525084310E+03  0.15936874331E+04  0.90033611765E+03 0.  0.
         23    2    4    4    0    0 -0.17286506390E+03  0.76384291908E+03 -0.20343010514E+03  0.81422288311E+03  0.90756599473E+02 0.  0.
         23    2    4    4    0    0 -0.16969933030E+03  0.72446487950E+02 -0.75182073795E+03  0.77946455001E+03  0.91017615774E+02 0.  0.
          1    1    3    3  502    0  0.90887554828E+02 -0.27275381895E+03  0.22083581241E+02  0.28834506747E+03  0.00000000000E+00 0. -1.
         -1    1    3    3    0  502  0.25167683938E+03 -0.56353558808E+03 -0.70614649996E+02  0.62120851516E+03  0.00000000000E+00 0.  1.
         11    1    5    5    0    0 -0.74391382816E+02  0.30414737053E+03 -0.36008056059E+02  0.31517658691E+03  0.00000000000E+00 0. -1.
        -11    1    5    5    0    0 -0.98473681087E+02  0.45969554855E+03 -0.16742204908E+03  0.49904629620E+03  0.00000000000E+00 0.  1.
          4    1    6    6  503    0 -0.84910241487E+02  0.42635862149E+02 -0.55525842448E+03  0.56332893038E+03  0.00000000000E+00 0. -1.
         -4    1    6    6    0  503 -0.84789088816E+02  0.29810625801E+02 -0.19656231348E+03  0.21613561963E+03  0.00000000000E+00 0.  1.
<mgrwt>
<rscale>  0 0.22931719E+04</rscale>
<asrwt>0</asrwt>
<pdfrwt beam="1">  1        2 0.26977099E+00 0.22931719E+04</pdfrwt>
<pdfrwt beam="2">  1       -2 0.11534301E+00 0.22931719E+04</pdfrwt>
<totfact> 0.48629722E+00</totfact>
</mgrwt>
</event>
<event>
12    2  0.8147979E-008  0.1526964E+04  0.7818608E-02  0.8866718E-01
         -1   -1    0    0    0  501 -0.00000000000E+00  0.00000000000E+00  0.77650951214E+03  0.77650951214E+03  0.00000000000E+00 0.  1.
          1   -1    0    0  501    0  0.00000000000E+00 -0.00000000000E+00 -0.75067313779E+03  0.75067313779E+03  0.00000000000E+00 0. -1.
         23    2    1    2    0    0 -0.14807422448E+03  0.46880493624E+03 -0.19808065417E+02  0.50062934912E+03  0.92376087523E+02 0.  0.
        254    2    1    2    0    0  0.14807422448E+03 -0.46880493624E+03  0.45644439767E+02  0.10265533008E+04  0.90001345565E+03 0.  0.
         23    2    4    4    0    0 -0.12887833611E+03 -0.60606916095E+03 -0.15700599262E+03  0.64565290154E+03  0.91034796537E+02 0.  0.
         23    2    4    4    0    0  0.27695256059E+03  0.13726422471E+03  0.20265043238E+03  0.38090039928E+03  0.92052855567E+02 0.  0.
          2    1    3    3  502    0 -0.10235270373E+03  0.38508474601E+03 -0.47559226120E+02  0.40128321365E+03  0.00000000000E+00 0. -1.
         -2    1    3    3    0  502 -0.45721520748E+02  0.83720190227E+02  0.27751160703E+02  0.99346135463E+02  0.00000000000E+00 0.  1.
         11    1    5    5    0    0 -0.10528916908E+03 -0.55011957469E+03 -0.11491530169E+03  0.57177170457E+03  0.00000000000E+00 0.  1.
        -11    1    5    5    0    0 -0.23589167038E+02 -0.55949586262E+02 -0.42090690923E+02  0.73881196977E+02  0.00000000000E+00 0. -1.
          1    1    6    6  503    0  0.12070387714E+03  0.56688198177E+02  0.14232462807E+03  0.19503660560E+03  0.00000000000E+00 0. -1.
         -1    1    6    6    0  503  0.15624868345E+03  0.80576026535E+02  0.60325804313E+02  0.18586379367E+03  0.00000000000E+00 0.  1.
<mgrwt>
<rscale>  0 0.15269641E+04</rscale>
<asrwt>0</asrwt>
<pdfrwt beam="1">  1        1 0.11548818E+00 0.15269641E+04</pdfrwt>
<pdfrwt beam="2">  1       -1 0.11946300E+00 0.15269641E+04</pdfrwt>
<totfact> 0.14781392E+01</totfact>
</mgrwt>
</event>
<event>
12    2  0.8147979E-008  0.1629586E+04  0.7818608E-02  0.8802575E-01
         -2   -1    0    0    0  501 -0.00000000000E+00  0.00000000000E+00  0.20115473478E+03  0.20115473478E+03  0.00000000000E+00 0.  1.
          2   -1    0    0  501    0  0.00000000000E+00 -0.00000000000E+00 -0.33003845065E+04  0.33003845065E+04  0.00000000000E+00 0. -1.
         23    2    1    2    0    0  0.22412701632E+03  0.51276792989E+03 -0.11735658120E+04  0.13033174318E+04  0.90640739148E+02 0.  0.
        254    2    1    2    0    0 -0.22412701632E+03 -0.51276792989E+03 -0.19256639597E+04  0.21982218094E+04  0.90046297453E+03 0.  0.
         23    2    4    4    0    0 -0.14414889320E+03 -0.44228598496E+03 -0.19900219484E+04  0.20457627270E+04  0.92530990409E+02 0.  0.
         23    2    4    4    0    0 -0.79978123118E+02 -0.70481944927E+02  0.64357988686E+02  0.15245908246E+03  0.87963721948E+02 0.  0.
          3    1    3    3  502    0  0.76163470868E+02  0.89752688935E+02 -0.21327259586E+03  0.24360135388E+03  0.00000000000E+00 0. -1.
         -3    1    3    3    0  502  0.14796354545E+03  0.42301524095E+03 -0.96029321614E+03  0.10597160779E+04  0.00000000000E+00 0.  1.
         11    1    5    5    0    0 -0.14629742460E+02 -0.12129479085E+03 -0.67390535294E+03  0.68489041487E+03  0.00000000000E+00 0. -1.
        -11    1    5    5    0    0 -0.12951915074E+03 -0.32099119412E+03 -0.13161165954E+04  0.13608723121E+04  0.00000000000E+00 0.  1.
          2    1    6    6  503    0 -0.81483795125E+02 -0.75240801419E+02  0.26180954906E+02  0.11395713872E+03  0.00000000000E+00 0. -1.
         -2    1    6    6    0  503  0.15056720077E+01  0.47588564916E+01  0.38177033780E+02  0.38501943737E+02  0.00000000000E+00 0.  1.
<mgrwt>
<rscale>  0 0.16295864E+04</rscale>
<asrwt>0</asrwt>
<pdfrwt beam="1">  1        2 0.50775142E+00 0.16295864E+04</pdfrwt>
<pdfrwt beam="2">  1       -2 0.30946885E-01 0.16295864E+04</pdfrwt>
<totfact> 0.10394873E+01</totfact>
</mgrwt>
</event>
<event>
12    2  0.8147979E-008  0.2033079E+04  0.7818608E-02  0.8591309E-01
          1   -1    0    0  501    0  0.00000000000E+00  0.00000000000E+00  0.14733014714E+04  0.14733014714E+04  0.00000000000E+00 0. -1.
         -1   -1    0    0    0  501 -0.00000000000E+00 -0.00000000000E+00 -0.70138573169E+03  0.70138573169E+03  0.00000000000E+00 0.  1.
         23    2    1    2    0    0 -0.37085513851E+03  0.56906732276E+03  0.78874620520E+03  0.10448548571E+04  0.90719042509E+02 0.  0.
        254    2    1    2    0    0  0.37085513851E+03 -0.56906732276E+03 -0.16830465521E+02  0.11298323459E+04  0.90269968080E+03 0.  0.
         23    2    4    4    0    0  0.13889801417E+03 -0.77517657159E+03 -0.90433079703E+02  0.79782106742E+03  0.90271469670E+02 0.  0.
         23    2    4    4    0    0  0.23195712434E+03  0.20610924882E+03  0.73602614182E+02  0.33201127850E+03  0.92352662421E+02 0.  0.
          3    1    3    3  502    0 -0.58157257323E+02  0.59140023622E+02  0.13756563456E+03  0.16063658607E+03  0.00000000000E+00 0. -1.
         -3    1    3    3    0  502 -0.31269788119E+03  0.50992729914E+03  0.65118057064E+03  0.88421827107E+03  0.00000000000E+00 0.  1.
         11    1    5    5    0    0  0.57839124541E+01 -0.23196286191E+03 -0.47843834093E+02  0.23691613582E+03  0.00000000000E+00 0.  1.
        -11    1    5    5    0    0  0.13311410172E+03 -0.54321370968E+03 -0.42589245610E+02  0.56090493160E+03  0.00000000000E+00 0. -1.
          2    1    6    6  503    0  0.19477187012E+02  0.65466632688E+02  0.71299983365E+01  0.68673704470E+02  0.00000000000E+00 0. -1.
         -2    1    6    6    0  503  0.21247993733E+03  0.14064261613E+03  0.66472615845E+02  0.26333757403E+03  0.00000000000E+00 0.  1.
<mgrwt>
<rscale>  0 0.20330791E+04</rscale>
<asrwt>0</asrwt>
<pdfrwt beam="1">  1        1 0.22666176E+00 0.20330791E+04</pdfrwt>
<pdfrwt beam="2">  1       -1 0.10790550E+00 0.20330791E+04</pdfrwt>
<totfact> 0.50433800E+00</totfact>
</mgrwt>
</event>
<event>
12    2  0.8147979E-008  0.2764726E+04  0.7818608E-02  0.8314304E-01
          2   -1    0    0  501    0  0.00000000000E+00  0.00000000000E+00  0.26698593330E+04  0.26698593330E+04  0.00000000000E+00 0. -1.
         -2   -1    0    0    0  501 -0.00000000000E+00 -0.00000000000E+00 -0.71574087415E+03  0.71574087415E+03  0.00000000000E+00 0.  1.
         23    2    1    2    0    0 -0.96964410853E+03  0.75112287534E+03  0.71076160233E+03  0.14205518773E+04  0.91598633966E+02 0.  0.
        254    2    1    2    0    0  0.96964410853E+03 -0.75112287534E+03  0.12433568565E+04  0.19650483298E+04  0.90060168488E+03 0.  0.
         23    2    4    4    0    0  0.90546258334E+03 -0.58280194016E+03  0.49350460368E+03  0.11886612561E+04  0.99238080303E+02 0.  0.
         23    2    4    4    0    0  0.64181525188E+02 -0.16832093518E+03  0.74985225279E+03  0.77638707370E+03  0.89706643045E+02 0.  0.
          2    1    3    3  502    0 -0.29038178661E+03  0.17764557242E+03  0.21629451332E+03  0.40331482478E+03  0.00000000000E+00 0. -1.
         -2    1    3    3    0  502 -0.67926232192E+03  0.57347730292E+03  0.49446708901E+03  0.10172370525E+04  0.00000000000E+00 0.  1.
         11    1    5    5    0    0  0.86284271949E+03 -0.55708618797E+03  0.49210778251E+03  0.11388646316E+04  0.00000000000E+00 0.  1.
        -11    1    5    5    0    0  0.42619863855E+02 -0.25715752193E+02  0.13968211769E+01  0.49796624536E+02  0.00000000000E+00 0. -1.
          4    1    6    6  503    0 -0.21207774011E+02 -0.57859909966E+02  0.22851793456E+03  0.23668118910E+03  0.00000000000E+00 0. -1.
         -4    1    6    6    0  503  0.85389299200E+02 -0.11046102521E+03  0.52133431823E+03  0.53970588460E+03  0.00000000000E+00 0.  1.
<mgrwt>
<rscale>  0 0.27647260E+04</rscale>
<asrwt>0</asrwt>
<pdfrwt beam="1">  1        2 0.41074758E+00 0.27647260E+04</pdfrwt>
<pdfrwt beam="2">  1       -2 0.11011398E+00 0.27647260E+04</pdfrwt>
<totfact> 0.15822527E+00</totfact>
</mgrwt>
</event>
<event>
12    2  0.8147979E-008  0.1770996E+04  0.7818608E-02  0.8721877E-01
         -1   -1    0    0    0  501 -0.00000000000E+00  0.00000000000E+00  0.46568149418E+03  0.46568149418E+03  0.00000000000E+00 0.  1.
          1   -1    0    0  501    0  0.00000000000E+00 -0.00000000000E+00 -0.16837828488E+04  0.16837828488E+04  0.00000000000E+00 0. -1.
         23    2    1    2    0    0  0.37116094587E+03 -0.22250305090E+03  0.13849910345E+03  0.46287500497E+03  0.88335797828E+02 0.  0.
        254    2    1    2    0    0 -0.37116094587E+03  0.22250305090E+03 -0.13566004581E+04  0.16865893380E+04  0.90385327175E+03 0.  0.
         23    2    4    4    0    0 -0.38804934760E+03 -0.62200256509E+02 -0.13292447412E+03  0.42688440102E+03  0.10054952976E+03 0.  0.
         23    2    4    4    0    0  0.16888401731E+02  0.28470330741E+03 -0.12236759840E+04  0.12597049370E+04  0.90179948950E+02 0.  0.
          3    1    3    3  502    0  0.17860284302E+03 -0.57126491536E+02  0.50076902171E+02  0.19408788654E+03  0.00000000000E+00 0. -1.
         -3    1    3    3    0  502  0.19255810285E+03 -0.16537655936E+03  0.88422201280E+02  0.26878711844E+03  0.00000000000E+00 0.  1.
         11    1    5    5    0    0 -0.11296772845E+03  0.23326468284E+02 -0.18052711924E+02  0.11675500932E+03  0.00000000000E+00 0. -1.
        -11    1    5    5    0    0 -0.27508161915E+03 -0.85526724794E+02 -0.11487176220E+03  0.31012939170E+03  0.00000000000E+00 0.  1.
          2    1    6    6  503    0 -0.14259008507E+01  0.12550057870E+03 -0.72882081376E+03  0.73954865088E+03  0.00000000000E+00 0. -1.
         -2    1    6    6    0  503  0.18314302582E+02  0.15920272870E+03 -0.49485517022E+03  0.52015628613E+03  0.00000000000E+00 0.  1.
<mgrwt>
<rscale>  0 0.17709958E+04</rscale>
<asrwt>0</asrwt>
<pdfrwt beam="1">  1        1 0.25904352E+00 0.17709958E+04</pdfrwt>
<pdfrwt beam="2">  1       -1 0.71643306E-01 0.17709958E+04</pdfrwt>
<totfact> 0.90953804E+00</totfact>
</mgrwt>
</event>
<event>
12    2  0.8147979E-008  0.1578089E+04  0.7818608E-02  0.8834123E-01
          2   -1    0    0  501    0  0.00000000000E+00  0.00000000000E+00  0.20950364254E+04  0.20950364254E+04  0.00000000000E+00 0. -1.
         -2   -1    0    0    0  501 -0.00000000000E+00 -0.00000000000E+00 -0.29717439861E+03  0.29717439861E+03  0.00000000000E+00 0.  1.
         23    2    1    2    0    0  0.30626594078E+03 -0.16391851618E+03  0.12111905726E+04  0.12620855628E+04  0.72175191180E+02 0.  0.
        254    2    1    2    0    0 -0.30626594078E+03  0.16391851618E+03  0.58667145413E+03  0.11301252612E+04  0.90129440496E+03 0.  0.
         23    2    4    4    0    0  0.54573288439E+02 -0.23187231421E+03 -0.82352098699E+02  0.26862106093E+03  0.92910668426E+02 0.  0.
         23    2    4    4    0    0 -0.36083922922E+03  0.39579083039E+03  0.66902355283E+03  0.86150420024E+03  0.87986601372E+02 0.  0.
          4    1    3    3  502    0  0.19114342673E+03 -0.62499307837E+02  0.66271928634E+03  0.69255961877E+03  0.00000000000E+00 0. -1.
         -4    1    3    3    0  502  0.11512251404E+03 -0.10141920834E+03  0.54847128629E+03  0.56952594405E+03  0.00000000000E+00 0.  1.
         11    1    5    5    0    0 -0.10791880089E+02 -0.76242848081E+02  0.75529872185E+01  0.77372373463E+02  0.00000000000E+00 0. -1.
        -11    1    5    5    0    0  0.65365168528E+02 -0.15562946613E+03 -0.89905085917E+02  0.19124868747E+03  0.00000000000E+00 0.  1.
          3    1    6    6  503    0 -0.19156556812E+03  0.26647401151E+03  0.43722825150E+03  0.54669398168E+03  0.00000000000E+00 0. -1.
         -3    1    6    6    0  503 -0.16927366110E+03  0.12931681888E+03  0.23179530134E+03  0.31481021856E+03  0.00000000000E+00 0.  1.
<mgrwt>
<rscale>  0 0.15780890E+04</rscale>
<asrwt>0</asrwt>
<pdfrwt beam="1">  1        2 0.32231329E+00 0.15780890E+04</pdfrwt>
<pdfrwt beam="2">  1       -2 0.45719140E-01 0.15780890E+04</pdfrwt>
<totfact> 0.25781160E+01</totfact>
</mgrwt>
</event>
<event>
12    2  0.8147979E-008  0.1707257E+04  0.7818608E-02  0.8757236E-01
         -1   -1    0    0    0  501 -0.00000000000E+00  0.00000000000E+00  0.12331095696E+04  0.12331095696E+04  0.00000000000E+00 0.  1.
          1   -1    0    0  501    0  0.00000000000E+00 -0.00000000000E+00 -0.59092995788E+03  0.59092995788E+03  0.00000000000E+00 0. -1.
         23    2    1    2    0    0 -0.24693738032E+03  0.27449994090E+03 -0.28916372208E+03  0.47796677315E+03  0.92240396334E+02 0.  0.
        254    2    1    2    0    0  0.24693738032E+03 -0.27449994090E+03  0.93134333384E+03  0.13460727544E+04  0.89899008183E+03 0.  0.
         23    2    4    4    0    0  0.76539934615E+02  0.85757593793E+02  0.92561006749E+03  0.93727978768E+03  0.92340006879E+02 0.  0.
         23    2    4    4    0    0  0.17039744570E+03 -0.36025753469E+03  0.57332663512E+01  0.40879296669E+03  0.90873750176E+02 0.  0.
          3    1    3    3  502    0 -0.24722135731E+03  0.25396485333E+03 -0.24993236252E+03  0.43368506093E+03  0.00000000000E+00 0. -1.
         -3    1    3    3    0  502  0.28397699203E+00  0.20535087569E+02 -0.39231359558E+02  0.44281712221E+02  0.00000000000E+00 0.  1.
         11    1    5    5    0    0  0.49513552964E+02  0.61268965809E+02  0.84661631421E+03  0.85027328642E+03  0.00000000000E+00 0.  1.
        -11    1    5    5    0    0  0.27026381650E+02  0.24488627985E+02  0.78993753278E+02  0.87006501266E+02  0.00000000000E+00 0. -1.
          3    1    6    6  503    0  0.12908387889E+02 -0.27422991829E+02 -0.25012805791E+02  0.39297422464E+02  0.00000000000E+00 0. -1.
         -3    1    6    6    0  503  0.15748905781E+03 -0.33283454286E+03  0.30746072142E+02  0.36949554423E+03  0.00000000000E+00 0.  1.
<mgrwt>
<rscale>  0 0.17072567E+04</rscale>
<asrwt>0</asrwt>
<pdfrwt beam="1">  1        1 0.90912301E-01 0.17072567E+04</pdfrwt>
<pdfrwt beam="2">  1       -1 0.18970916E+00 0.17072567E+04</pdfrwt>
<totfact> 0.59102301E+00</totfact>
</mgrwt>
</event>
<event>
12    2  0.8147979E-008  0.2286917E+04  0.7818608E-02  0.8483097E-01
          1   -1    0    0  501    0  0.00000000000E+00  0.00000000000E+00  0.14028200538E+04  0.14028200538E+04  0.00000000000E+00 0. -1.
         -1   -1    0    0    0  501 -0.00000000000E+00 -0.00000000000E+00 -0.93204933090E+03  0.93204933090E+03  0.00000000000E+00 0.  1.
         23    2    1    2    0    0  0.17827661210E+03  0.92779141239E+03  0.54627413480E+00  0.94977551578E+03  0.97436013034E+02 0.  0.
        254    2    1    2    0    0 -0.17827661210E+03 -0.92779141239E+03  0.47022444878E+03  0.13850938689E+04  0.89710341557E+03 0.  0.
         23    2    4    4    0    0 -0.19464013853E+02 -0.62405709658E+03 -0.16929734900E+03  0.65318998909E+03  0.90385075301E+02 0.  0.
         23    2    4    4    0    0 -0.15881259824E+03 -0.30373431581E+03  0.63952179778E+03  0.73190387986E+03  0.96016579576E+02 0.  0.
          3    1    3    3  502    0  0.15665352016E+02  0.31806817018E+03  0.11204642065E+02  0.31865076203E+03  0.00000000000E+00 0. -1.
         -3    1    3    3    0  502  0.16261126008E+03  0.60972324221E+03 -0.10658367931E+02  0.63112475376E+03  0.00000000000E+00 0.  1.
         11    1    5    5    0    0 -0.53010799268E+02 -0.33021063030E+03 -0.74757291208E+02  0.34269207430E+03  0.00000000000E+00 0.  1.
        -11    1    5    5    0    0  0.33546785415E+02 -0.29384646628E+03 -0.94540057787E+02  0.31049791478E+03  0.00000000000E+00 0. -1.
          1    1    6    6  503    0 -0.15196286430E+03 -0.20657406828E+03  0.42634646235E+03  0.49753076665E+03  0.00000000000E+00 0. -1.
         -1    1    6    6    0  503 -0.68497339400E+01 -0.97160247534E+02  0.21317533543E+03  0.23437311320E+03  0.00000000000E+00 0.  1.
<mgrwt>
<rscale>  0 0.22869171E+04</rscale>
<asrwt>0</asrwt>
<pdfrwt beam="1">  1        1 0.21581847E+00 0.22869171E+04</pdfrwt>
<pdfrwt beam="2">  1       -1 0.14339221E+00 0.22869171E+04</pdfrwt>
<totfact> 0.27237663E+00</totfact>
</mgrwt>
</event>
<event>
12    2  0.8147979E-008  0.3229347E+04  0.7818608E-02  0.8181109E-01
          2   -1    0    0  501    0  0.00000000000E+00  0.00000000000E+00  0.37219779634E+04  0.37219779634E+04  0.00000000000E+00 0.  1.
         -2   -1    0    0    0  501 -0.00000000000E+00 -0.00000000000E+00 -0.70048000721E+03  0.70048000721E+03  0.00000000000E+00 0. -1.
         23    2    1    2    0    0 -0.13475831995E+04 -0.62517833929E+03  0.12677750179E+04  0.19550527748E+04  0.90274142327E+02 0.  0.
        254    2    1    2    0    0  0.13475831995E+04  0.62517833929E+03  0.17537229383E+04  0.24674051958E+04  0.89761674470E+03 0.  0.
         23    2    4    4    0    0  0.10753512440E+04  0.46487907978E+03  0.17849098287E+04  0.21369590778E+04  0.90543618820E+02 0.  0.
         23    2    4    4    0    0  0.27223195553E+03  0.16029925951E+03 -0.31186890376E+02  0.33044611799E+03  0.91738348321E+02 0.  0.
          1    1    3    3  502    0 -0.75037812195E+03 -0.31484800522E+03  0.73749733756E+03  0.10982253481E+04  0.00000000000E+00 0. -1.
         -1    1    3    3    0  502 -0.59720507758E+03 -0.31033033407E+03  0.53027768034E+03  0.85682742673E+03  0.00000000000E+00 0.  1.
         11    1    5    5    0    0  0.98912505530E+03  0.42983798057E+03  0.15939922236E+04  0.19245623589E+04  0.00000000000E+00 0.  1.
        -11    1    5    5    0    0  0.86226188693E+02  0.35041099213E+02  0.19091760517E+03  0.21239671893E+03  0.00000000000E+00 0. -1.
          2    1    6    6  503    0  0.21548841562E+03  0.16588406446E+03 -0.26795686556E+02  0.27325956328E+03  0.00000000000E+00 0.  1.
         -2    1    6    6    0  503  0.56743539916E+02 -0.55848049539E+01 -0.43912038199E+01  0.57186554710E+02  0.00000000000E+00 0. -1.
<mgrwt>
<rscale>  0 0.32293474E+04</rscale>
<asrwt>0</asrwt>
<pdfrwt beam="1">  1        2 0.57261198E+00 0.32293474E+04</pdfrwt>
<pdfrwt beam="2">  1       -2 0.10776616E+00 0.32293474E+04</pdfrwt>
<totfact> 0.32556509E-01</totfact>
</mgrwt>
</event>
<event>
12    2  0.8147979E-008  0.1889026E+04  0.7818608E-02  0.8660338E-01
          2   -1    0    0  501    0  0.00000000000E+00  0.00000000000E+00  0.81949003406E+03  0.81949003406E+03  0.00000000000E+00 0. -1.
         -2   -1    0    0    0  501 -0.00000000000E+00 -0.00000000000E+00 -0.10886101960E+04  0.10886101960E+04  0.00000000000E+00 0.  1.
         23    2    1    2    0    0  0.43713443809E+03 -0.45417517506E+03  0.26093193603E+03  0.68899514614E+03  0.96266450840E+02 0.  0.
        254    2    1    2    0    0 -0.43713443809E+03  0.45417517506E+03 -0.53005209793E+03  0.12191050839E+04  0.89883278337E+03 0.  0.
         23    2    4    4    0    0 -0.43580057380E+03  0.68200868737E+03 -0.52629637086E+03  0.96964688871E+03  0.90383787462E+02 0.  0.
         23    2    4    4    0    0 -0.13338642906E+01 -0.22783351231E+03 -0.37557270741E+01  0.24945819519E+03  0.10151550194E+03 0.  0.
          2    1    3    3  502    0  0.17039046657E+03 -0.12014196164E+03  0.62054898905E+02  0.21752657889E+03  0.00000000000E+00 0.  1.
         -2    1    3    3    0  502  0.26674397152E+03 -0.33403321341E+03  0.19887703712E+03  0.47146856724E+03  0.00000000000E+00 0. -1.
         11    1    5    5    0    0 -0.67845226389E+02  0.55150817766E+02 -0.60837245163E+02  0.10651646747E+03  0.00000000000E+00 0. -1.
        -11    1    5    5    0    0 -0.36795534741E+03  0.62685786960E+03 -0.46545912569E+03  0.86313042124E+03  0.00000000000E+00 0.  1.
          1    1    6    6  503    0 -0.48620507495E+02 -0.75284969559E+02 -0.47455028943E+01  0.89745753037E+02  0.00000000000E+00 0. -1.
         -1    1    6    6    0  503  0.47286643204E+02 -0.15254854275E+03  0.98977582016E+00  0.15971244215E+03  0.00000000000E+00 0.  1.
<mgrwt>
<rscale>  0 0.18890264E+04</rscale>
<asrwt>0</asrwt>
<pdfrwt beam="1">  1        2 0.12607539E+00 0.18890264E+04</pdfrwt>
<pdfrwt beam="2">  1       -2 0.16747849E+00 0.18890264E+04</pdfrwt>
<totfact> 0.69429617E+00</totfact>
</mgrwt>
</event>
<event>
12    2  0.8147979E-008  0.1954172E+04  0.7818608E-02  0.8628352E-01
          1   -1    0    0  501    0  0.00000000000E+00  0.00000000000E+00  0.76115482325E+03  0.76115482325E+03  0.00000000000E+00 0. -1.
         -1   -1    0    0    0  501 -0.00000000000E+00 -0.00000000000E+00 -0.12542742520E+04  0.12542742520E+04  0.00000000000E+00 0.  1.
         23    2    1    2    0    0 -0.35071804575E+03  0.60327328729E+03 -0.52651909354E+03  0.87902028663E+03  0.92263219459E+02 0.  0.
        254    2    1    2    0    0  0.35071804575E+03 -0.60327328729E+03  0.33399664794E+02  0.11364087886E+04  0.89630775434E+03 0.  0.
         23    2    4    4    0    0  0.35414626811E+03 -0.27083552883E+03  0.41950575675E+03  0.61891854190E+03  0.91124193602E+02 0.  0.
         23    2    4    4    0    0 -0.34282223660E+01 -0.33243775846E+03 -0.38610609196E+03  0.51749024673E+03  0.90507597775E+02 0.  0.
          1    1    3    3  502    0 -0.26398017700E+03  0.37924914412E+03 -0.31813061942E+03  0.56100137092E+03  0.00000000000E+00 0. -1.
         -1    1    3    3    0  502 -0.86737868746E+02  0.22402414317E+03 -0.20838847412E+03  0.31801891570E+03  0.00000000000E+00 0.  1.
         11    1    5    5    0    0  0.35367555852E+03 -0.27356560850E+03  0.40224308577E+03  0.60143498643E+03  0.00000000000E+00 0.  1.
        -11    1    5    5    0    0  0.47070959275E+00  0.27300796657E+01  0.17262670980E+02  0.17483555470E+02  0.00000000000E+00 0. -1.
          2    1    6    6  503    0 -0.37488010514E+02 -0.26323209134E+03 -0.27793721465E+03  0.38463694587E+03  0.00000000000E+00 0.  1.
         -2    1    6    6    0  503  0.34059788148E+02 -0.69205667118E+02 -0.10816887731E+03  0.13285330086E+03  0.00000000000E+00 0. -1.
<mgrwt>
<rscale>  0 0.19541718E+04</rscale>
<asrwt>0</asrwt>
<pdfrwt beam="1">  1        1 0.11710074E+00 0.19541718E+04</pdfrwt>
<pdfrwt beam="2">  1       -1 0.19296527E+00 0.19541718E+04</pdfrwt>
<totfact> 0.37537598E+00</totfact>
</mgrwt>
</event>
<event>
12    2  0.8147979E-008  0.3301897E+04  0.7818608E-02  0.8162413E-01
         -2   -1    0    0    0  501 -0.00000000000E+00  0.00000000000E+00  0.20350060980E+04  0.20350060980E+04  0.00000000000E+00 0.  1.
          2   -1    0    0  501    0  0.00000000000E+00 -0.00000000000E+00 -0.13393726505E+04  0.13393726505E+04  0.00000000000E+00 0. -1.
         23    2    1    2    0    0 -0.14674103743E+04 -0.35489564814E+02  0.75080669003E+03  0.16512575785E+04  0.91587056829E+02 0.  0.
        254    2    1    2    0    0  0.14674103743E+04  0.35489564814E+02 -0.55173242579E+02  0.17231211699E+04  0.90086056835E+03 0.  0.
         23    2    4    4    0    0  0.24194580108E+03  0.63397160097E+02 -0.36855891366E+03  0.45457324471E+03  0.90797529704E+02 0.  0.
         23    2    4    4    0    0  0.12254645733E+04 -0.27907595283E+02  0.31338567108E+03  0.12685479252E+04  0.91983724291E+02 0.  0.
          3    1    3    3  502    0 -0.27777932885E+03  0.10769881198E+02  0.10760895360E+03  0.29808896788E+03  0.00000000000E+00 0. -1.
         -3    1    3    3    0  502 -0.11896310455E+04 -0.46259446012E+02  0.64319773643E+03  0.13531686107E+04  0.00000000000E+00 0.  1.
         11    1    5    5    0    0  0.17801124880E+03  0.78463758429E+02 -0.31306283865E+03  0.36858229343E+03  0.00000000000E+00 0. -1.
        -11    1    5    5    0    0  0.63934552281E+02 -0.15066598333E+02 -0.55496075005E+02  0.85990951277E+02  0.00000000000E+00 0.  1.
          1    1    6    6  503    0  0.12167675493E+04 -0.20214616992E+02  0.30610711081E+03  0.12548439995E+04  0.00000000000E+00 0. -1.
         -1    1    6    6    0  503  0.86970239740E+01 -0.76929782910E+01  0.72785602674E+01  0.13703925735E+02  0.00000000000E+00 0.  1.
<mgrwt>
<rscale>  0 0.33018973E+04</rscale>
<asrwt>0</asrwt>
<pdfrwt beam="1">  1        2 0.20605733E+00 0.33018973E+04</pdfrwt>
<pdfrwt beam="2">  1       -2 0.31307786E+00 0.33018973E+04</pdfrwt>
<totfact> 0.34590541E-01</totfact>
</mgrwt>
</event>
<event>
12    2  0.8147979E-008  0.2466191E+04  0.7818608E-02  0.8415130E-01
          2   -1    0    0  501    0  0.00000000000E+00  0.00000000000E+00  0.72536571355E+03  0.72536571355E+03  0.00000000000E+00 0. -1.
         -2   -1    0    0    0  501 -0.00000000000E+00 -0.00000000000E+00 -0.20962183023E+04  0.20962183023E+04  0.00000000000E+00 0.  1.
         23    2    1    2    0    0 -0.86203573542E+03 -0.33473629037E+03 -0.12036799747E+04  0.15206923122E+04  0.92225992613E+02 0.  0.
        254    2    1    2    0    0  0.86203573542E+03  0.33473629037E+03 -0.16717261401E+03  0.13008917036E+04  0.89956575544E+03 0.  0.
         23    2    4    4    0    0  0.47148359936E+03  0.52722070850E+02 -0.51020938850E+03  0.70261934684E+03  0.91016071195E+02 0.  0.
         23    2    4    4    0    0  0.39055213606E+03  0.28201421952E+03  0.34303677449E+03  0.59827235675E+03  0.90512944966E+02 0.  0.
          4    1    3    3  502    0 -0.73343423136E+03 -0.25154570479E+03 -0.98103888457E+03  0.12504552396E+04  0.00000000000E+00 0. -1.
         -4    1    3    3    0  502 -0.12860150406E+03 -0.83190585583E+02 -0.22264109014E+03  0.27023707257E+03  0.00000000000E+00 0.  1.
         11    1    5    5    0    0  0.42018032046E+02 -0.16955272451E+02 -0.72256372722E+02  0.85287629114E+02  0.00000000000E+00 0. -1.
        -11    1    5    5    0    0  0.42946556731E+03  0.69677343302E+02 -0.43795301578E+03  0.61733171772E+03  0.00000000000E+00 0.  1.
          3    1    6    6  503    0  0.62454076660E+02  0.71372536553E+02  0.33976732444E+02  0.10074209157E+03  0.00000000000E+00 0. -1.
         -3    1    6    6    0  503  0.32809805940E+03  0.21064168297E+03  0.30906004205E+03  0.49753026519E+03  0.00000000000E+00 0.  1.
<mgrwt>
<rscale>  0 0.24661913E+04</rscale>
<asrwt>0</asrwt>
<pdfrwt beam="1">  1        2 0.11159472E+00 0.24661913E+04</pdfrwt>
<pdfrwt beam="2">  1       -2 0.32249513E+00 0.24661913E+04</pdfrwt>
<totfact> 0.80950669E-01</totfact>
</mgrwt>
</event>
<event>
12    2  0.8147979E-008  0.1948989E+04  0.7818608E-02  0.8630848E-01
          1   -1    0    0  501    0  0.00000000000E+00  0.00000000000E+00  0.79474009370E+03  0.79474009370E+03  0.00000000000E+00 0. -1.
         -1   -1    0    0    0  501 -0.00000000000E+00 -0.00000000000E+00 -0.11949057539E+04  0.11949057539E+04  0.00000000000E+00 0.  1.
         23    2    1    2    0    0 -0.70268107483E+03 -0.24691022642E+03  0.10248755316E+02  0.75043457255E+03  0.91223121304E+02 0.  0.
        254    2    1    2    0    0  0.70268107483E+03  0.24691022642E+03 -0.41041441551E+03  0.12392112750E+04  0.90137630261E+03 0.  0.
         23    2    4    4    0    0 -0.10500455546E+03 -0.18971299116E+03 -0.15664912060E+03  0.28244845160E+03  0.90670861621E+02 0.  0.
         23    2    4    4    0    0  0.80768563029E+03  0.43662321758E+03 -0.25376529491E+03  0.95676282344E+03  0.89455932794E+02 0.  0.
          4    1    3    3  502    0 -0.57367846283E+03 -0.17022874781E+03 -0.13165118242E+02  0.59854667791E+03  0.00000000000E+00 0. -1.
         -4    1    3    3    0  502 -0.12900261200E+03 -0.76681478606E+02  0.23413873558E+02  0.15188789464E+03  0.00000000000E+00 0.  1.
         11    1    5    5    0    0 -0.90726277574E+02 -0.90638733103E+02 -0.54233635452E+02  0.13924052785E+03  0.00000000000E+00 0. -1.
        -11    1    5    5    0    0 -0.14278277885E+02 -0.99074258056E+02 -0.10241548514E+03  0.14320792375E+03  0.00000000000E+00 0.  1.
          1    1    6    6  503    0  0.24061605551E+03  0.85183294906E+02 -0.76682896447E+02  0.26651931732E+03  0.00000000000E+00 0. -1.
         -1    1    6    6    0  503  0.56706957478E+03  0.35143992267E+03 -0.17708239847E+03  0.69024350612E+03  0.00000000000E+00 0.  1.
<mgrwt>
<rscale>  0 0.19489890E+04</rscale>
<asrwt>0</asrwt>
<pdfrwt beam="1">  1        1 0.12226771E+00 0.19489890E+04</pdfrwt>
<pdfrwt beam="2">  1       -1 0.18383165E+00 0.19489890E+04</pdfrwt>
<totfact> 0.40672693E+00</totfact>
</mgrwt>
</event>
<event>
12    2  0.8147979E-008  0.1520408E+04  0.7818608E-02  0.8870994E-01
          1   -1    0    0  501    0  0.00000000000E+00  0.00000000000E+00  0.11983342909E+04  0.11983342909E+04  0.00000000000E+00 0. -1.
         -1   -1    0    0    0  501 -0.00000000000E+00 -0.00000000000E+00 -0.48226091646E+03  0.48226091646E+03  0.00000000000E+00 0.  1.
         23    2    1    2    0    0 -0.14795609627E+03 -0.46597313525E+03  0.18972965877E+03  0.52879812373E+03  0.67883304621E+02 0.  0.
        254    2    1    2    0    0  0.14795609627E+03  0.46597313525E+03  0.52634371571E+03  0.11517970837E+04  0.90032041280E+03 0.  0.
         23    2    4    4    0    0  0.36152256492E+03  0.63445930440E+03  0.36494640999E+03  0.82223247862E+03  0.98199759900E+02 0.  0.
         23    2    4    4    0    0 -0.21356646866E+03 -0.16848616915E+03  0.16139730571E+03  0.32956460505E+03  0.92550056103E+02 0.  0.
          4    1    3    3  502    0 -0.13490804766E+03 -0.43841541952E+03  0.19394210142E+03  0.49801787127E+03  0.00000000000E+00 0. -1.
         -4    1    3    3    0  502 -0.13048048607E+02 -0.27557715727E+02 -0.42124426507E+01  0.30780252462E+02  0.00000000000E+00 0.  1.
         11    1    5    5    0    0  0.27256750660E+03  0.54701113098E+03  0.28748362049E+03  0.67539696114E+03  0.00000000000E+00 0.  1.
        -11    1    5    5    0    0  0.88955058323E+02  0.87448173423E+02  0.77462789509E+02  0.14683551748E+03  0.00000000000E+00 0. -1.
          2    1    6    6  503    0 -0.16537820162E+03 -0.73887736766E+02  0.99072415435E+02  0.20645747919E+03  0.00000000000E+00 0. -1.
         -2    1    6    6    0  503 -0.48188267037E+02 -0.94598432383E+02  0.62324890277E+02  0.12310712586E+03  0.00000000000E+00 0.  1.
<mgrwt>
<rscale>  0 0.15204076E+04</rscale>
<asrwt>0</asrwt>
<pdfrwt beam="1">  1        1 0.18435912E+00 0.15204076E+04</pdfrwt>
<pdfrwt beam="2">  1       -1 0.74193987E-01 0.15204076E+04</pdfrwt>
<totfact> 0.18926925E+01</totfact>
</mgrwt>
</event>
<event>
12    2  0.8147979E-008  0.2346891E+04  0.7818608E-02  0.8459659E-01
          1   -1    0    0  501    0  0.00000000000E+00  0.00000000000E+00  0.75148100419E+03  0.75148100419E+03  0.00000000000E+00 0. -1.
         -1   -1    0    0    0  501 -0.00000000000E+00 -0.00000000000E+00 -0.18323472886E+04  0.18323472886E+04  0.00000000000E+00 0.  1.
         23    2    1    2    0    0  0.62775851965E+03 -0.13265901776E+03  0.38071909038E+03  0.75179265540E+03  0.92552671221E+02 0.  0.
        254    2    1    2    0    0 -0.62775851965E+03  0.13265901776E+03 -0.14615853748E+04  0.18320356374E+04  0.89913491473E+03 0.  0.
         23    2    4    4    0    0 -0.35504440702E+03 -0.27951824879E+03 -0.25834542798E+03  0.52814260497E+03  0.89472166991E+02 0.  0.
         23    2    4    4    0    0 -0.27271411263E+03  0.41217726655E+03 -0.12032399468E+04  0.13038930324E+04  0.89930996335E+02 0.  0.
          3    1    3    3  502    0  0.54507931484E+03 -0.81921313617E+02  0.32018958836E+03  0.63745112251E+03  0.00000000000E+00 0. -1.
         -3    1    3    3    0  502  0.82679204806E+02 -0.50737704145E+02  0.60529502020E+02  0.11434153289E+03  0.00000000000E+00 0.  1.
         11    1    5    5    0    0 -0.49557966149E+02 -0.55226943431E+02 -0.80574366582E+02  0.10953645895E+03  0.00000000000E+00 0. -1.
        -11    1    5    5    0    0 -0.30548644087E+03 -0.22429130536E+03 -0.17777106140E+03  0.41860614602E+03  0.00000000000E+00 0.  1.
          1    1    6    6  503    0  0.10578122982E+00 -0.34214230021E+01 -0.23107052375E+01  0.41299738162E+01  0.00000000000E+00 0. -1.
         -1    1    6    6    0  503 -0.27281989386E+03  0.41559868955E+03 -0.12009292416E+04  0.12997630586E+04  0.00000000000E+00 0.  1.
<mgrwt>
<rscale>  0 0.23468909E+04</rscale>
<asrwt>0</asrwt>
<pdfrwt beam="1">  1        1 0.11561246E+00 0.23468909E+04</pdfrwt>
<pdfrwt beam="2">  1       -1 0.28189958E+00 0.23468909E+04</pdfrwt>
<totfact> 0.95108915E-01</totfact>
</mgrwt>
</event>
<event>
12    2  0.8147979E-008  0.1767780E+04  0.7818608E-02  0.8723624E-01
         -1   -1    0    0    0  501 -0.00000000000E+00  0.00000000000E+00  0.86297687380E+03  0.86297687380E+03  0.00000000000E+00 0.  1.
          1   -1    0    0  501    0  0.00000000000E+00 -0.00000000000E+00 -0.90530942418E+03  0.90530942418E+03  0.00000000000E+00 0. -1.
         23    2    1    2    0    0  0.56393218874E+03 -0.32187618969E+03  0.29140076990E+02  0.65600998931E+03  0.88747771842E+02 0.  0.
        254    2    1    2    0    0 -0.56393218874E+03  0.32187618969E+03 -0.71472627361E+02  0.11122763087E+04  0.90023688848E+03 0.  0.
         23    2    4    4    0    0 -0.65483135007E+03 -0.42781412642E+02  0.13170733600E+03  0.67552430372E+03  0.91388819083E+02 0.  0.
         23    2    4    4    0    0  0.90899161333E+02  0.36465760233E+03 -0.20317996336E+03  0.43675200495E+03  0.90732529174E+02 0.  0.
          1    1    3    3  502    0  0.21813833328E+03 -0.14275149631E+03 -0.28828450913E+02  0.26228496283E+03  0.00000000000E+00 0. -1.
         -1    1    3    3    0  502  0.34579385546E+03 -0.17912469337E+03  0.57968527903E+02  0.39372502648E+03  0.00000000000E+00 0.  1.
         11    1    5    5    0    0 -0.46840200513E+03 -0.45507530266E+02  0.54616169219E+02  0.47376608116E+03  0.00000000000E+00 0.  1.
        -11    1    5    5    0    0 -0.18642934494E+03  0.27261176239E+01  0.77091166783E+02  0.20175822256E+03  0.00000000000E+00 0. -1.
          3    1    6    6  503    0  0.67104288575E+02  0.34350128986E+03 -0.16470928666E+03  0.38681425878E+03  0.00000000000E+00 0. -1.
         -3    1    6    6    0  503  0.23794872759E+02  0.21156312464E+02 -0.38470676704E+02  0.49937746172E+02  0.00000000000E+00 0.  1.
<mgrwt>
<rscale>  0 0.17677795E+04</rscale>
<asrwt>0</asrwt>
<pdfrwt beam="1">  1        1 0.13927837E+00 0.17677795E+04</pdfrwt>
<pdfrwt beam="2">  1       -1 0.13276567E+00 0.17677795E+04</pdfrwt>
<totfact> 0.81958760E+00</totfact>
</mgrwt>
</event>
<event>
12    2  0.8147979E-008  0.2530358E+04  0.7818608E-02  0.8392250E-01
         -2   -1    0    0    0  501 -0.00000000000E+00  0.00000000000E+00  0.10367807072E+04  0.10367807072E+04  0.00000000000E+00 0.  1.
          2   -1    0    0  501    0  0.00000000000E+00 -0.00000000000E+00 -0.15438922027E+04  0.15438922027E+04  0.00000000000E+00 0. -1.
         23    2    1    2    0    0 -0.83913445023E+03  0.51496444010E+03 -0.72622462067E+03  0.12268432296E+04  0.91690295399E+02 0.  0.
        254    2    1    2    0    0  0.83913445023E+03 -0.51496444010E+03  0.21911312520E+03  0.13538296803E+04  0.90305550297E+03 0.  0.
         23    2    4    4    0    0  0.76611852572E+03 -0.62614152744E+03  0.43547921637E+03  0.10847612752E+04  0.89855820442E+02 0.  0.
         23    2    4    4    0    0  0.73015924512E+02  0.11117708733E+03 -0.21636609116E+03  0.26906840508E+03  0.88836091905E+02 0.  0.
          2    1    3    3  502    0 -0.24117946877E+03  0.11676704864E+03 -0.23644769332E+03  0.35736478769E+03  0.00000000000E+00 0. -1.
         -2    1    3    3    0  502 -0.59795498146E+03  0.39819739147E+03 -0.48977692735E+03  0.86947844193E+03  0.00000000000E+00 0.  1.
         11    1    5    5    0    0  0.16417204086E+03 -0.15456553028E+03  0.62560304336E+02  0.23400161074E+03  0.00000000000E+00 0.  1.
        -11    1    5    5    0    0  0.60194648485E+03 -0.47157599716E+03  0.37291891203E+03  0.85075966446E+03  0.00000000000E+00 0. -1.
          3    1    6    6  503    0  0.89101029694E+02  0.11233920258E+03 -0.18799902559E+03  0.23643756798E+03  0.00000000000E+00 0. -1.
         -3    1    6    6    0  503 -0.16085105181E+02 -0.11621152456E+01 -0.28367065574E+02  0.32630837099E+02  0.00000000000E+00 0.  1.
<mgrwt>
<rscale>  0 0.25303578E+04</rscale>
<asrwt>0</asrwt>
<pdfrwt beam="1">  1        2 0.23752188E+00 0.25303578E+04</pdfrwt>
<pdfrwt beam="2">  1       -2 0.15950472E+00 0.25303578E+04</pdfrwt>
<totfact> 0.27102885E+00</totfact>
</mgrwt>
</event>
<event>
12    2  0.8147979E-008  0.3677722E+04  0.7818608E-02  0.8072917E-01
          1   -1    0    0  501    0  0.00000000000E+00  0.00000000000E+00  0.38247641231E+04  0.38247641231E+04  0.00000000000E+00 0. -1.
         -1   -1    0    0    0  501 -0.00000000000E+00 -0.00000000000E+00 -0.88408317568E+03  0.88408317568E+03  0.00000000000E+00 0.  1.
         23    2    1    2    0    0  0.15776011878E+04 -0.68396102094E+03  0.11681900007E+04  0.20807485857E+04  0.90656565630E+02 0.  0.
        254    2    1    2    0    0 -0.15776011878E+04  0.68396102094E+03  0.17724909467E+04  0.26280987132E+04  0.89919436376E+03 0.  0.
         23    2    4    4    0    0 -0.41245369868E+03  0.43506651962E+03  0.17069940144E+03  0.62974821683E+03  0.89686124331E+02 0.  0.
         23    2    4    4    0    0 -0.11651474892E+04  0.24889450132E+03  0.16017915453E+04  0.19983504963E+04  0.90285144565E+02 0.  0.
          3    1    3    3  502    0  0.87576475557E+03 -0.35671935921E+03  0.69031534367E+03  0.11707894269E+04  0.00000000000E+00 0. -1.
         -3    1    3    3    0  502  0.70183643227E+03 -0.32724166173E+03  0.47787465705E+03  0.90995915880E+03  0.00000000000E+00 0.  1.
         11    1    5    5    0    0 -0.47224608417E+01 -0.43238114310E+01  0.41016946556E+01  0.76040042570E+01  0.00000000000E+00 0.  1.
        -11    1    5    5    0    0 -0.40773123784E+03  0.43939033105E+03  0.16659770678E+03  0.62214421257E+03  0.00000000000E+00 0. -1.
          4    1    6    6  503    0 -0.52012090621E+03  0.65816885193E+02  0.71416751085E+03  0.88594178872E+03  0.00000000000E+00 0. -1.
         -4    1    6    6    0  503 -0.64502658295E+03  0.18307761613E+03  0.88762403445E+03  0.11124087076E+04  0.00000000000E+00 0.  1.
<mgrwt>
<rscale>  0 0.36777219E+04</rscale>
<asrwt>0</asrwt>
<pdfrwt beam="1">  1        1 0.58842524E+00 0.36777219E+04</pdfrwt>
<pdfrwt beam="2">  1       -1 0.13601280E+00 0.36777219E+04</pdfrwt>
<totfact> 0.49227360E-02</totfact>
</mgrwt>
</event>
<event>
12    2  0.8147979E-008  0.1961127E+04  0.7818608E-02  0.8625014E-01
         -1   -1    0    0    0  501 -0.00000000000E+00  0.00000000000E+00  0.12566791686E+04  0.12566791686E+04  0.00000000000E+00 0.  1.
          1   -1    0    0  501    0  0.00000000000E+00 -0.00000000000E+00 -0.76511522058E+03  0.76511522058E+03  0.00000000000E+00 0. -1.
         23    2    1    2    0    0 -0.43116329111E+03 -0.59663111744E+03  0.44193173844E+03  0.86346363279E+03  0.91625923265E+02 0.  0.
        254    2    1    2    0    0  0.43116329111E+03  0.59663111744E+03  0.49632209590E+02  0.11583307564E+04  0.89297049844E+03 0.  0.
         23    2    4    4    0    0  0.55808997006E+03  0.47954867589E+03  0.33391509580E+03  0.81273544527E+03  0.87225372193E+02 0.  0.
         23    2    4    4    0    0 -0.12692667895E+03  0.11708244155E+03 -0.28428288621E+03  0.34559531113E+03  0.93811938129E+02 0.  0.
          3    1    3    3  502    0 -0.36787133161E+03 -0.54817012124E+03  0.37410205452E+03  0.75879651135E+03  0.00000000000E+00 0. -1.
         -3    1    3    3    0  502 -0.63291959506E+02 -0.48460996196E+02  0.67829683913E+02  0.10466712144E+03  0.00000000000E+00 0.  1.
         11    1    5    5    0    0  0.55446838428E+03  0.47902652076E+03  0.32217133948E+03  0.80043486227E+03  0.00000000000E+00 0.  1.
        -11    1    5    5    0    0  0.36215857848E+01  0.52215513407E+00  0.11743756319E+02  0.12300582997E+02  0.00000000000E+00 0. -1.
          1    1    6    6  503    0 -0.82074637610E+02  0.12491240679E+03 -0.19850356000E+03  0.24848142555E+03  0.00000000000E+00 0. -1.
         -1    1    6    6    0  503 -0.44852041339E+02 -0.78299652429E+01 -0.85779326213E+02  0.97113885586E+02  0.00000000000E+00 0.  1.
<mgrwt>
<rscale>  0 0.19611266E+04</rscale>
<asrwt>0</asrwt>
<pdfrwt beam="1">  1        1 0.11771003E+00 0.19611266E+04</pdfrwt>
<pdfrwt beam="2">  1       -1 0.19333526E+00 0.19611266E+04</pdfrwt>
<totfact> 0.36988828E+00</totfact>
</mgrwt>
</event>
<event>
12    2  0.8147979E-008  0.2666644E+04  0.7818608E-02  0.8345910E-01
         -1   -1    0    0    0  501 -0.00000000000E+00  0.00000000000E+00  0.21679295217E+04  0.21679295217E+04  0.00000000000E+00 0.  1.
          1   -1    0    0  501    0  0.00000000000E+00 -0.00000000000E+00 -0.82002072528E+03  0.82002072528E+03  0.00000000000E+00 0. -1.
         23    2    1    2    0    0 -0.15885300650E+03 -0.11290130547E+04  0.25906082538E+03  0.11727332637E+04  0.91027694008E+02 0.  0.
        254    2    1    2    0    0  0.15885300650E+03  0.11290130547E+04  0.10888479710E+04  0.18152169833E+04  0.89973220288E+03 0.  0.
         23    2    4    4    0    0  0.48517863067E+03  0.70858017273E+03  0.43404299675E+03  0.96647843502E+03  0.90570842325E+02 0.  0.
         23    2    4    4    0    0 -0.32632562417E+03  0.42043288202E+03  0.65480497429E+03  0.84873854827E+03  0.91298125313E+02 0.  0.
          4    1    3    3  502    0 -0.12907759370E+03 -0.80990079042E+03  0.14689217712E+03  0.83317322762E+03  0.00000000000E+00 0. -1.
         -4    1    3    3    0  502 -0.29775412797E+02 -0.31911226433E+03  0.11216864826E+03  0.33956003608E+03  0.00000000000E+00 0.  1.
         11    1    5    5    0    0  0.32441682055E+03  0.40415730892E+03  0.23779107166E+03  0.57020522409E+03  0.00000000000E+00 0.  1.
        -11    1    5    5    0    0  0.16076181012E+03  0.30442286380E+03  0.19625192509E+03  0.39627321093E+03  0.00000000000E+00 0. -1.
          3    1    6    6  503    0 -0.10681885426E+02  0.90431114425E+01  0.66696247863E+00  0.14011615887E+02  0.00000000000E+00 0. -1.
         -3    1    6    6    0  503 -0.31564373875E+03  0.41138977058E+03  0.65413801181E+03  0.83472693238E+03  0.00000000000E+00 0.  1.
<mgrwt>
<rscale>  0 0.26666437E+04</rscale>
<asrwt>0</asrwt>
<pdfrwt beam="1">  1        1 0.12615704E+00 0.26666437E+04</pdfrwt>
<pdfrwt beam="2">  1       -1 0.33352762E+00 0.26666437E+04</pdfrwt>
<totfact> 0.37126709E-01</totfact>
</mgrwt>
</event>
<event>
12    2  0.8147979E-008  0.3117450E+04  0.7818608E-02  0.8210965E-01
          2   -1    0    0  501    0  0.00000000000E+00  0.00000000000E+00  0.32798995094E+04  0.32798995094E+04  0.00000000000E+00 0. -1.
         -2   -1    0    0    0  501 -0.00000000000E+00 -0.00000000000E+00 -0.74076156676E+03  0.74076156676E+03  0.00000000000E+00 0.  1.
         23    2    1    2    0    0 -0.11870932764E+04 -0.76398871236E+03  0.89484169733E+03  0.16739733564E+04  0.92606345131E+02 0.  0.
        254    2    1    2    0    0  0.11870932764E+04  0.76398871236E+03  0.16442962453E+04  0.23466877198E+04  0.90020215081E+03 0.  0.
         23    2    4    4    0    0  0.10734297511E+04  0.23528987936E+03  0.90808119339E+03  0.14286712815E+04  0.94220055976E+02 0.  0.
         23    2    4    4    0    0  0.11366352529E+03  0.52869883300E+03  0.73621505190E+03  0.91801643825E+03  0.91102827952E+02 0.  0.
          1    1    3    3  502    0 -0.16186301172E+03 -0.14062712254E+03  0.15083393534E+03  0.26215739205E+03  0.00000000000E+00 0. -1.
         -1    1    3    3    0  502 -0.10252302647E+04 -0.62336158981E+03  0.74400776200E+03  0.14118159643E+04  0.00000000000E+00 0.  1.
         11    1    5    5    0    0  0.53459428597E+01 -0.76282359417E+00  0.16893616242E+02  0.17735706206E+02  0.00000000000E+00 0.  1.
        -11    1    5    5    0    0  0.10680838082E+04  0.23605270295E+03  0.89118757715E+03  0.14109355753E+04  0.00000000000E+00 0. -1.
          1    1    6    6  503    0  0.85169053229E+02  0.49361403424E+03  0.69604589522E+03  0.85754794075E+03  0.00000000000E+00 0. -1.
         -1    1    6    6    0  503  0.28494472063E+02  0.35084798759E+02  0.40169156677E+02  0.60468497503E+02  0.00000000000E+00 0.  1.
<mgrwt>
<rscale>  0 0.31174499E+04</rscale>
<asrwt>0</asrwt>
<pdfrwt beam="1">  1        2 0.50459992E+00 0.31174499E+04</pdfrwt>
<pdfrwt beam="2">  1       -2 0.11396332E+00 0.31174499E+04</pdfrwt>
<totfact> 0.58654693E-01</totfact>
</mgrwt>
</event>
<event>
12    2  0.8147979E-008  0.2633898E+04  0.7818608E-02  0.8356777E-01
         -2   -1    0    0    0  501 -0.00000000000E+00  0.00000000000E+00  0.80650645254E+03  0.80650645254E+03  0.00000000000E+00 0. -1.
          2   -1    0    0  501    0  0.00000000000E+00 -0.00000000000E+00 -0.21504540898E+04  0.21504540898E+04  0.00000000000E+00 0.  1.
         23    2    1    2    0    0 -0.89613337536E+03 -0.51971675915E+03 -0.11828513439E+04  0.15746162225E+04  0.84370672526E+02 0.  0.
        254    2    1    2    0    0  0.89613337536E+03  0.51971675915E+03 -0.16109629343E+03  0.13823443198E+04  0.90097906007E+03 0.  0.
         23    2    4    4    0    0 -0.11322621873E+03  0.30243595008E+03 -0.20906995821E+02  0.33633231063E+03  0.91622269073E+02 0.  0.
         23    2    4    4    0    0  0.10093595941E+04  0.21728080907E+03 -0.14018929761E+03  0.10460120092E+04  0.92034472357E+02 0.  0.
          4    1    3    3  502    0 -0.10168498911E+03 -0.87218897300E+02 -0.17470431145E+03  0.22015578461E+03  0.00000000000E+00 0. -1.
         -4    1    3    3    0  502 -0.79444838625E+03 -0.43249786185E+03 -0.10081470324E+04  0.13544604379E+04  0.00000000000E+00 0.  1.
         11    1    5    5    0    0 -0.12247844092E+03  0.28519972923E+03 -0.34810195807E+02  0.31233252116E+03  0.00000000000E+00 0. -1.
        -11    1    5    5    0    0  0.92522221894E+01  0.17236220849E+02  0.13903199986E+02  0.23999789467E+02  0.00000000000E+00 0.  1.
          3    1    6    6  503    0  0.50521227812E+03  0.15556780196E+03 -0.76265823525E+02  0.53409480695E+03  0.00000000000E+00 0. -1.
         -3    1    6    6    0  503  0.50414731596E+03  0.61713007108E+02 -0.63923474082E+02  0.51191720227E+03  0.00000000000E+00 0.  1.
<mgrwt>
<rscale>  0 0.26338983E+04</rscale>
<asrwt>0</asrwt>
<pdfrwt beam="1">  1        2 0.33083909E+00 0.26338983E+04</pdfrwt>
<pdfrwt beam="2">  1       -2 0.12407792E+00 0.26338983E+04</pdfrwt>
<totfact> 0.23721551E+00</totfact>
</mgrwt>
</event>
<event>
12    2  0.8147979E-008  0.1215098E+04  0.7818608E-02  0.9099743E-01
          2   -1    0    0  501    0  0.00000000000E+00  0.00000000000E+00  0.12747218426E+04  0.12747218426E+04  0.00000000000E+00 0. -1.
         -2   -1    0    0    0  501 -0.00000000000E+00 -0.00000000000E+00 -0.28956587885E+03  0.28956587885E+03  0.00000000000E+00 0.  1.
         23    2    1    2    0    0  0.25277555512E+03  0.39699330437E+02  0.16071830468E+03  0.31697999284E+03  0.95783215111E+02 0.  0.
        254    2    1    2    0    0 -0.25277555512E+03 -0.39699330437E+02  0.82443765908E+03  0.12473077286E+04  0.90033749122E+03 0.  0.
         23    2    4    4    0    0  0.16536995313E+03  0.14352668309E+03 -0.62910197499E+02  0.24540342899E+03  0.91203178950E+02 0.  0.
         23    2    4    4    0    0 -0.41814550825E+03 -0.18322601353E+03  0.88734785658E+03  0.10019042996E+04  0.89490608266E+02 0.  0.
          2    1    3    3  502    0  0.21748405380E+03  0.44192715626E+02  0.17075253123E+03  0.28001560080E+03  0.00000000000E+00 0. -1.
         -2    1    3    3    0  502  0.35291501320E+02 -0.44933851888E+01 -0.10034226552E+02  0.36964392033E+02  0.00000000000E+00 0.  1.
         11    1    5    5    0    0  0.64714620349E+02  0.20148567261E+02 -0.52685794178E+02  0.85847188409E+02  0.00000000000E+00 0. -1.
        -11    1    5    5    0    0  0.10065533278E+03  0.12337811583E+03 -0.10224403321E+02  0.15955624058E+03  0.00000000000E+00 0.  1.
          4    1    6    6  503    0 -0.15814729566E+03 -0.92118694290E+02  0.27374319407E+03  0.32928977704E+03  0.00000000000E+00 0. -1.
         -4    1    6    6    0  503 -0.25999821259E+03 -0.91107319241E+02  0.61360466250E+03  0.67261452260E+03  0.00000000000E+00 0.  1.
<mgrwt>
<rscale>  0 0.12150983E+04</rscale>
<asrwt>0</asrwt>
<pdfrwt beam="1">  1        2 0.19611105E+00 0.12150983E+04</pdfrwt>
<pdfrwt beam="2">  1       -2 0.44548597E-01 0.12150983E+04</pdfrwt>
<totfact> 0.80535031E+01</totfact>
</mgrwt>
</event>
<event>
12    2  0.8147979E-008  0.2949593E+04  0.7818608E-02  0.8258273E-01
          2   -1    0    0  501    0  0.00000000000E+00  0.00000000000E+00  0.33795031634E+04  0.33795031634E+04  0.00000000000E+00 0. -1.
         -2   -1    0    0    0  501 -0.00000000000E+00 -0.00000000000E+00 -0.64359284683E+03  0.64359284683E+03  0.00000000000E+00 0.  1.
         23    2    1    2    0    0 -0.12280425195E+04 -0.51885895902E+03  0.13824056842E+04  0.19226562285E+04  0.90876003867E+02 0.  0.
        254    2    1    2    0    0  0.12280425195E+04  0.51885895902E+03  0.13535046324E+04  0.21004397818E+04  0.89586239897E+03 0.  0.
         23    2    4    4    0    0  0.48141651130E+03  0.38301695211E+03  0.11534841206E+04  0.13102894590E+04  0.88707423882E+02 0.  0.
         23    2    4    4    0    0  0.74662600821E+03  0.13584200692E+03  0.20002051183E+03  0.79015032277E+03  0.91792594629E+02 0.  0.
          2    1    3    3  502    0 -0.24326574826E+03 -0.69358030458E+02  0.28801382364E+03  0.38332847960E+03  0.00000000000E+00 0. -1.
         -2    1    3    3    0  502 -0.98477677125E+03 -0.44950092857E+03  0.10943918605E+04  0.15393277489E+04  0.00000000000E+00 0.  1.
         11    1    5    5    0    0  0.95413516926E+01 -0.45347457288E+01  0.26152608637E+02  0.28205677611E+02  0.00000000000E+00 0. -1.
        -11    1    5    5    0    0  0.47187515961E+03  0.38755169783E+03  0.11273315119E+04  0.12820837814E+04  0.00000000000E+00 0.  1.
          3    1    6    6  503    0  0.16277974208E+03  0.55313962382E+02  0.15746799329E+02  0.17264078473E+03  0.00000000000E+00 0. -1.
         -3    1    6    6    0  503  0.58384626614E+03  0.80528044537E+02  0.18427371250E+03  0.61750953803E+03  0.00000000000E+00 0.  1.
<mgrwt>
<rscale>  0 0.29495926E+04</rscale>
<asrwt>0</asrwt>
<pdfrwt beam="1">  1        2 0.51992355E+00 0.29495926E+04</pdfrwt>
<pdfrwt beam="2">  1       -2 0.99014287E-01 0.29495926E+04</pdfrwt>
<totfact> 0.71516700E-01</totfact>
</mgrwt>
</event>
<event>
12    2  0.8147979E-008  0.1351090E+04  0.7818608E-02  0.8990004E-01
          2   -1    0    0  501    0  0.00000000000E+00  0.00000000000E+00  0.16090042352E+04  0.16090042352E+04  0.00000000000E+00 0. -1.
         -2   -1    0    0    0  501 -0.00000000000E+00 -0.00000000000E+00 -0.28362938470E+03  0.28362938470E+03  0.00000000000E+00 0.  1.
         23    2    1    2    0    0  0.32998150566E+03 -0.73300362723E+02  0.16960133819E+03  0.38971786636E+03  0.94099225267E+02 0.  0.
        254    2    1    2    0    0 -0.32998150566E+03  0.73300362723E+02  0.11557735123E+04  0.15029157536E+04  0.89926782066E+03 0.  0.
         23    2    4    4    0    0 -0.45250681715E+03 -0.12993273601E+03  0.11554077100E+04  0.12509921119E+04  0.91484163261E+02 0.  0.
         23    2    4    4    0    0  0.12252531150E+03  0.20323309873E+03  0.36580232418E+00  0.25192364171E+03  0.84553196656E+02 0.  0.
          4    1    3    3  502    0  0.21175667878E+03 -0.61026619045E+02  0.15617171254E+03  0.27010135697E+03  0.00000000000E+00 0. -1.
         -4    1    3    3    0  502  0.11822482688E+03 -0.12273743678E+02  0.13429625651E+02  0.11961650939E+03  0.00000000000E+00 0.  1.
         11    1    5    5    0    0 -0.21252830266E+03 -0.20614925569E+02  0.57929569311E+03  0.61739513655E+03  0.00000000000E+00 0. -1.
        -11    1    5    5    0    0 -0.23997851449E+03 -0.10931781044E+03  0.57611201692E+03  0.63359697532E+03  0.00000000000E+00 0.  1.
          2    1    6    6  503    0  0.23742320348E+02  0.78512534034E+01 -0.20032611981E+02  0.32041309247E+02  0.00000000000E+00 0. -1.
         -2    1    6    6    0  503  0.98782991149E+02  0.19538184532E+03  0.20398414305E+02  0.21988233246E+03  0.00000000000E+00 0.  1.
<mgrwt>
<rscale>  0 0.13510898E+04</rscale>
<asrwt>0</asrwt>
<pdfrwt beam="1">  1        2 0.24753911E+00 0.13510898E+04</pdfrwt>
<pdfrwt beam="2">  1       -2 0.43635291E-01 0.13510898E+04</pdfrwt>
<totfact> 0.53606401E+01</totfact>
</mgrwt>
</event>
<event>
12    2  0.8147979E-008  0.1576931E+04  0.7818608E-02  0.8834847E-01
          2   -1    0    0  501    0  0.00000000000E+00  0.00000000000E+00  0.64250404927E+03  0.64250404927E+03  0.00000000000E+00 0. -1.
         -2   -1    0    0    0  501 -0.00000000000E+00 -0.00000000000E+00 -0.96758569822E+03  0.96758569822E+03  0.00000000000E+00 0.  1.
         23    2    1    2    0    0  0.15519509707E+03 -0.47429505956E+03 -0.28150131627E+03  0.58029243879E+03  0.91951083608E+02 0.  0.
        254    2    1    2    0    0 -0.15519509707E+03  0.47429505956E+03 -0.43580332680E+02  0.10297973087E+04  0.89974548063E+03 0.  0.
         23    2    4    4    0    0 -0.36274795123E+03 -0.85108473951E+02 -0.15685867821E+03  0.41477701473E+03  0.92767443427E+02 0.  0.
         23    2    4    4    0    0  0.20755285416E+03  0.55940353351E+03  0.11327834553E+03  0.61502029396E+03  0.96992153501E+02 0.  0.
          2    1    3    3  502    0  0.83126431190E+01 -0.11032415351E+03 -0.31846114542E+02  0.11512903150E+03  0.00000000000E+00 0. -1.
         -2    1    3    3    0  502  0.14688245395E+03 -0.36397090606E+03 -0.24965520173E+03  0.46516340729E+03  0.00000000000E+00 0.  1.
         11    1    5    5    0    0 -0.19340908923E+03 -0.88136307202E+02 -0.10853360971E+03  0.23865168945E+03  0.00000000000E+00 0. -1.
        -11    1    5    5    0    0 -0.16933886201E+03  0.30278332509E+01 -0.48325068508E+02  0.17612532528E+03  0.00000000000E+00 0.  1.
          1    1    6    6  503    0  0.15057616831E+03  0.37580724217E+03  0.31372857816E+02  0.40606467704E+03  0.00000000000E+00 0. -1.
         -1    1    6    6    0  503  0.56976685845E+02  0.18359629134E+03  0.81905487717E+02  0.20895561692E+03  0.00000000000E+00 0.  1.
<mgrwt>
<rscale>  0 0.15769309E+04</rscale>
<asrwt>0</asrwt>
<pdfrwt beam="1">  1        2 0.98846777E-01 0.15769309E+04</pdfrwt>
<pdfrwt beam="2">  1       -2 0.14885934E+00 0.15769309E+04</pdfrwt>
<totfact> 0.13387849E+01</totfact>
</mgrwt>
</event>
<event>
12    2  0.8147979E-008  0.2240785E+04  0.7818608E-02  0.8501642E-01
         -2   -1    0    0    0  501 -0.00000000000E+00  0.00000000000E+00  0.13221765531E+04  0.13221765531E+04  0.00000000000E+00 0.  1.
          2   -1    0    0  501    0  0.00000000000E+00 -0.00000000000E+00 -0.94940388921E+03  0.94940388921E+03  0.00000000000E+00 0. -1.
         23    2    1    2    0    0 -0.69204356912E+03  0.48691948231E+03  0.53398601576E+03  0.10046235096E+04  0.90069124358E+02 0.  0.
        254    2    1    2    0    0  0.69204356912E+03 -0.48691948231E+03 -0.16121335182E+03  0.12669569328E+04  0.92907224739E+03 0.  0.
         23    2    4    4    0    0 -0.88431311236E+02 -0.56577912453E+01 -0.30789838910E+03  0.33306755897E+03  0.90997106683E+02 0.  0.
         23    2    4    4    0    0  0.78047488036E+03 -0.48126169107E+03  0.14668503727E+03  0.93388937380E+03  0.99393199794E+02 0.  0.
          2    1    3    3  502    0 -0.48270134027E+03  0.38758013238E+03  0.37895403996E+03  0.72582718833E+03  0.00000000000E+00 0. -1.
         -2    1    3    3    0  502 -0.20934222885E+03  0.99339349937E+02  0.15503197580E+03  0.27879632126E+03  0.00000000000E+00 0.  1.
         11    1    5    5    0    0 -0.91484422121E+02  0.22558906629E+02 -0.26817768640E+03  0.28424914290E+03  0.00000000000E+00 0.  1.
        -11    1    5    5    0    0  0.30531108847E+01 -0.28216697874E+02 -0.39720702699E+02  0.48818416073E+02  0.00000000000E+00 0. -1.
          2    1    6    6  503    0  0.88150163037E+01 -0.19894542764E+02 -0.44473685109E+01  0.22209827350E+02  0.00000000000E+00 0. -1.
         -2    1    6    6    0  503  0.77165986406E+03 -0.46136714831E+03  0.15113240578E+03  0.91167954645E+03  0.00000000000E+00 0.  1.
<mgrwt>
<rscale>  0 0.22407852E+04</rscale>
<asrwt>0</asrwt>
<pdfrwt beam="1">  1        2 0.14606214E+00 0.22407852E+04</pdfrwt>
<pdfrwt beam="2">  1       -2 0.20341178E+00 0.22407852E+04</pdfrwt>
<totfact> 0.31265807E+00</totfact>
</mgrwt>
</event>
<event>
12    2  0.8147979E-008  0.1794821E+04  0.7818608E-02  0.8709059E-01
          1   -1    0    0  501    0  0.00000000000E+00  0.00000000000E+00  0.11357205701E+04  0.11357205701E+04  0.00000000000E+00 0. -1.
         -1   -1    0    0    0  501 -0.00000000000E+00 -0.00000000000E+00 -0.70910531697E+03  0.70910531697E+03  0.00000000000E+00 0.  1.
         23    2    1    2    0    0 -0.22396611576E+03 -0.70274615847E+01 -0.48599325154E+03  0.54289318897E+03  0.91287282000E+02 0.  0.
        254    2    1    2    0    0  0.22396611576E+03  0.70274615847E+01  0.91260850463E+03  0.13019326981E+04  0.90109059551E+03 0.  0.
         23    2    4    4    0    0 -0.25283315887E+03  0.81843447858E+02  0.15533755456E+02  0.27879946185E+03  0.82854608739E+02 0.  0.
         23    2    4    4    0    0  0.47679927464E+03 -0.74815986273E+02  0.89707474917E+03  0.10231332362E+04  0.95517188600E+02 0.  0.
          4    1    3    3  502    0 -0.10369880567E+03 -0.34291806252E+02 -0.15452396504E+03  0.18922744527E+03  0.00000000000E+00 0. -1.
         -4    1    3    3    0  502 -0.12026731010E+03  0.27264344668E+02 -0.33146928650E+03  0.35366574369E+03  0.00000000000E+00 0.  1.
         11    1    5    5    0    0 -0.30478580239E+02 -0.14074301784E+02  0.14671788204E+02  0.36637292384E+02  0.00000000000E+00 0.  1.
        -11    1    5    5    0    0 -0.22235457863E+03  0.95917749641E+02  0.86196725217E+00  0.24216216947E+03  0.00000000000E+00 0. -1.
          1    1    6    6  503    0  0.40150106211E+03 -0.95170037265E+02  0.78069928977E+03  0.88303557115E+03  0.00000000000E+00 0. -1.
         -1    1    6    6    0  503  0.75298212525E+02  0.20354050992E+02  0.11637545941E+03  0.14009766505E+03  0.00000000000E+00 0.  1.
<mgrwt>
<rscale>  0 0.17948209E+04</rscale>
<asrwt>0</asrwt>
<pdfrwt beam="1">  1        1 0.17472624E+00 0.17948209E+04</pdfrwt>
<pdfrwt beam="2">  1       -1 0.10909313E+00 0.17948209E+04</pdfrwt>
<totfact> 0.87592057E+00</totfact>
</mgrwt>
</event>
<event>
12    2  0.8147979E-008  0.1198884E+04  0.7818608E-02  0.9113834E-01
         -2   -1    0    0    0  501 -0.00000000000E+00  0.00000000000E+00  0.22660765843E+03  0.22660765843E+03  0.00000000000E+00 0.  1.
          2   -1    0    0  501    0  0.00000000000E+00 -0.00000000000E+00 -0.15856962918E+04  0.15856962918E+04  0.00000000000E+00 0. -1.
         23    2    1    2    0    0  0.16767386348E+03  0.18426634213E+03 -0.31958790507E+03  0.41353788785E+03  0.82513915675E+02 0.  0.
        254    2    1    2    0    0 -0.16767386348E+03 -0.18426634213E+03 -0.10395007283E+04  0.13987660624E+04  0.90217300104E+03 0.  0.
         23    2    4    4    0    0  0.19749264400E+03  0.18883759111E+03 -0.74800682009E+02  0.29806237918E+03  0.92644803455E+02 0.  0.
         23    2    4    4    0    0 -0.36516650748E+03 -0.37310393324E+03 -0.96470004632E+03  0.11007036832E+04  0.91374480589E+02 0.  0.
          3    1    3    3  502    0  0.68447501176E+02  0.13525694030E+03 -0.17702557446E+03  0.23306126733E+03  0.00000000000E+00 0. -1.
         -3    1    3    3    0  502  0.99226362303E+02  0.49009401833E+02 -0.14256233061E+03  0.18047662051E+03  0.00000000000E+00 0.  1.
         11    1    5    5    0    0  0.27307292358E+02  0.74403386722E+02  0.14369968412E+01  0.79269269781E+02  0.00000000000E+00 0. -1.
        -11    1    5    5    0    0  0.17018535164E+03  0.11443420439E+03 -0.76237678850E+02  0.21879310940E+03  0.00000000000E+00 0.  1.
          3    1    6    6  503    0 -0.14990754004E+03 -0.19041503492E+03 -0.36871278278E+03  0.44122474122E+03  0.00000000000E+00 0. -1.
         -3    1    6    6    0  503 -0.21525896744E+03 -0.18268889832E+03 -0.59598726354E+03  0.65947894200E+03  0.00000000000E+00 0.  1.
<mgrwt>
<rscale>  0 0.11988844E+04</rscale>
<asrwt>0</asrwt>
<pdfrwt beam="1">  1        2 0.24395328E+00 0.11988844E+04</pdfrwt>
<pdfrwt beam="2">  1       -2 0.34862715E-01 0.11988844E+04</pdfrwt>
<totfact> 0.86486461E+01</totfact>
</mgrwt>
</event>
<event>
12    2  0.8147979E-008  0.1840717E+04  0.7818608E-02  0.8684941E-01
         -2   -1    0    0    0  501 -0.00000000000E+00  0.00000000000E+00  0.11094235321E+04  0.11094235321E+04  0.00000000000E+00 0.  1.
          2   -1    0    0  501    0  0.00000000000E+00 -0.00000000000E+00 -0.76351336396E+03  0.76351336396E+03  0.00000000000E+00 0. -1.
         23    2    1    2    0    0  0.54796675019E+03 -0.40992718106E+03  0.26366380465E+03  0.73890859607E+03  0.90329720321E+02 0.  0.
        254    2    1    2    0    0 -0.54796675019E+03  0.40992718106E+03  0.82246363479E+02  0.11340283000E+04  0.90052643924E+03 0.  0.
         23    2    4    4    0    0 -0.59208638621E+03  0.23837801574E+03  0.40038430290E+03  0.75885824913E+03  0.90376352815E+02 0.  0.
         23    2    4    4    0    0  0.44119636018E+02  0.17154916532E+03 -0.31813793942E+03  0.37517005085E+03  0.90361275743E+02 0.  0.
          2    1    3    3  502    0  0.35896705767E+03 -0.28987682314E+03  0.13532455527E+03  0.48083121399E+03  0.00000000000E+00 0. -1.
         -2    1    3    3    0  502  0.18899969252E+03 -0.12005035792E+03  0.12833924938E+03  0.25807738208E+03  0.00000000000E+00 0.  1.
         11    1    5    5    0    0 -0.14325092053E+03  0.91501976734E+02  0.13556939597E+03  0.21742239789E+03  0.00000000000E+00 0. -1.
        -11    1    5    5    0    0 -0.44883546567E+03  0.14687603900E+03  0.26481490693E+03  0.54143585124E+03  0.00000000000E+00 0.  1.
          2    1    6    6  503    0 -0.83142161872E+01  0.90342154644E+02 -0.91854827841E+02  0.12910515286E+03  0.00000000000E+00 0. -1.
         -2    1    6    6    0  503  0.52433852205E+02  0.81207010681E+02 -0.22628311158E+03  0.24606489800E+03  0.00000000000E+00 0.  1.
<mgrwt>
<rscale>  0 0.18407169E+04</rscale>
<asrwt>0</asrwt>
<pdfrwt beam="1">  1        2 0.11746359E+00 0.18407169E+04</pdfrwt>
<pdfrwt beam="2">  1       -2 0.17068054E+00 0.18407169E+04</pdfrwt>
<totfact> 0.72622625E+00</totfact>
</mgrwt>
</event>
<event>
12    2  0.8147979E-008  0.3339114E+04  0.7818608E-02  0.8153013E-01
          3   -1    0    0  501    0  0.00000000000E+00  0.00000000000E+00  0.24343490745E+04  0.24343490745E+04  0.00000000000E+00 0. -1.
         -3   -1    0    0    0  501 -0.00000000000E+00 -0.00000000000E+00 -0.11450375056E+04  0.11450375056E+04  0.00000000000E+00 0.  1.
         23    2    1    2    0    0  0.17710139750E+03 -0.10273282342E+04 -0.62498446877E+03  0.12189529210E+04  0.92045812861E+02 0.  0.
        254    2    1    2    0    0 -0.17710139750E+03  0.10273282342E+04  0.19142960376E+04  0.23604336591E+04  0.90573149091E+03 0.  0.
         23    2    4    4    0    0 -0.32792021284E+03  0.10026867606E+04  0.11017603871E+04  0.15282609353E+04  0.93771690476E+02 0.  0.
         23    2    4    4    0    0  0.15081881534E+03  0.24641473552E+02  0.81253565049E+03  0.83217272375E+03  0.94571356986E+02 0.  0.
          4    1    3    3  502    0  0.22711525459E+02 -0.31154723592E+03 -0.15353853594E+03  0.34806834906E+03  0.00000000000E+00 0. -1.
         -4    1    3    3    0  502  0.15438987204E+03 -0.71578099825E+03 -0.47144593283E+03  0.87088457193E+03  0.00000000000E+00 0.  1.
         11    1    5    5    0    0 -0.30816195877E+03  0.98665834031E+03  0.10749272050E+04  0.14912836649E+04  0.00000000000E+00 0.  1.
        -11    1    5    5    0    0 -0.19758254066E+02  0.16028420305E+02  0.26833182177E+02  0.36977270410E+02  0.00000000000E+00 0. -1.
          1    1    6    6  503    0  0.40355108924E+02  0.51728728737E+02  0.32340843112E+03  0.32999607499E+03  0.00000000000E+00 0. -1.
         -1    1    6    6    0  503  0.11046370642E+03 -0.27087255185E+02  0.48912721937E+03  0.50217664876E+03  0.00000000000E+00 0.  1.
<mgrwt>
<rscale>  0 0.33391142E+04</rscale>
<asrwt>0</asrwt>
<pdfrwt beam="1">  1        3 0.37451524E+00 0.33391142E+04</pdfrwt>
<pdfrwt beam="2">  1       -3 0.17615962E+00 0.33391142E+04</pdfrwt>
<totfact> 0.68805790E-03</totfact>
</mgrwt>
</event>
<event>
12    2  0.8147979E-008  0.2258425E+04  0.7818608E-02  0.8494496E-01
         -1   -1    0    0    0  501 -0.00000000000E+00  0.00000000000E+00  0.15470617763E+04  0.15470617763E+04  0.00000000000E+00 0.  1.
          1   -1    0    0  501    0  0.00000000000E+00 -0.00000000000E+00 -0.82422127467E+03  0.82422127467E+03  0.00000000000E+00 0. -1.
         23    2    1    2    0    0 -0.85871041081E+03 -0.67105363279E+02  0.72240135534E+03  0.11276787008E+04  0.88931628494E+02 0.  0.
        254    2    1    2    0    0  0.85871041081E+03  0.67105363279E+02  0.43914631376E+00  0.12436043502E+04  0.89703115199E+03 0.  0.
         23    2    4    4    0    0  0.77377285857E+03 -0.26216401592E+03 -0.18930570796E+03  0.84382085625E+03  0.93501756494E+02 0.  0.
         23    2    4    4    0    0  0.84937552233E+02  0.32926937920E+03  0.18974485427E+03  0.39978349397E+03  0.90504256667E+02 0.  0.
          3    1    3    3  502    0 -0.32456249880E+03 -0.30010680878E+02  0.21840990502E+03  0.39235741768E+03  0.00000000000E+00 0. -1.
         -3    1    3    3    0  502 -0.53414791200E+03 -0.37094682401E+02  0.50399145032E+03  0.73532128308E+03  0.00000000000E+00 0.  1.
         11    1    5    5    0    0  0.73838005838E+03 -0.22753527702E+03 -0.18175073047E+03  0.79373215944E+03  0.00000000000E+00 0.  1.
        -11    1    5    5    0    0  0.35392800189E+02 -0.34628738897E+02 -0.75549774916E+01  0.50088696806E+02  0.00000000000E+00 0. -1.
          3    1    6    6  503    0  0.22473747044E+02  0.74793802766E+02  0.32538369229E+01  0.78165015788E+02  0.00000000000E+00 0. -1.
         -3    1    6    6    0  503  0.62463805189E+02  0.25447557643E+03  0.18649101735E+03  0.32161847819E+03  0.00000000000E+00 0.  1.
<mgrwt>
<rscale>  0 0.22584253E+04</rscale>
<asrwt>0</asrwt>
<pdfrwt beam="1">  1        1 0.12680327E+00 0.22584253E+04</pdfrwt>
<pdfrwt beam="2">  1       -1 0.23800950E+00 0.22584253E+04</pdfrwt>
<totfact> 0.15966698E+00</totfact>
</mgrwt>
</event>
<event>
12    2  0.8147979E-008  0.2576842E+04  0.7818608E-02  0.8376110E-01
          2   -1    0    0  501    0  0.00000000000E+00  0.00000000000E+00  0.14356830407E+04  0.14356830407E+04  0.00000000000E+00 0. -1.
         -2   -1    0    0    0  501 -0.00000000000E+00 -0.00000000000E+00 -0.11562643627E+04  0.11562643627E+04  0.00000000000E+00 0.  1.
         23    2    1    2    0    0 -0.91826910945E+03  0.20501916776E+02  0.78395692752E+03  0.12109428862E+04  0.90309044396E+02 0.  0.
        254    2    1    2    0    0  0.91826910945E+03 -0.20501916776E+02 -0.50453824949E+03  0.13810045172E+04  0.89943101196E+03 0.  0.
         23    2    4    4    0    0  0.52409460151E+03 -0.26287974937E+03  0.11286601307E+03  0.60417575423E+03  0.92242566843E+02 0.  0.
         23    2    4    4    0    0  0.39417450794E+03  0.24237783260E+03 -0.61740426256E+03  0.77682876293E+03  0.90301423238E+02 0.  0.
          3    1    3    3  502    0 -0.80105890850E+03 -0.11736274399E+02  0.68946553033E+03  0.10569748495E+04  0.00000000000E+00 0. -1.
         -3    1    3    3    0  502 -0.11721020095E+03  0.32238191176E+02  0.94491397182E+02  0.15396803668E+03  0.00000000000E+00 0.  1.
         11    1    5    5    0    0  0.86433064422E+02 -0.63651208885E+02 -0.10139292714E+02  0.10781909049E+03  0.00000000000E+00 0.  1.
        -11    1    5    5    0    0  0.43766153709E+03 -0.19922854049E+03  0.12300530579E+03  0.49635666374E+03  0.00000000000E+00 0. -1.
          1    1    6    6  503    0  0.13946341375E+02  0.81186805701E+01 -0.62395774390E+02  0.64448786441E+02  0.00000000000E+00 0.  1.
         -1    1    6    6    0  503  0.38022816656E+03  0.23425915203E+03 -0.55500848817E+03  0.71237997649E+03  0.00000000000E+00 0. -1.
<mgrwt>
<rscale>  0 0.25768424E+04</rscale>
<asrwt>0</asrwt>
<pdfrwt beam="1">  1        2 0.22087431E+00 0.25768424E+04</pdfrwt>
<pdfrwt beam="2">  1       -2 0.17788683E+00 0.25768424E+04</pdfrwt>
<totfact> 0.22952697E+00</totfact>
</mgrwt>
</event>
<event>
12    2  0.8147979E-008  0.2185606E+04  0.7818608E-02  0.8524443E-01
         -2   -1    0    0    0  501 -0.00000000000E+00  0.00000000000E+00  0.86850649496E+03  0.86850649496E+03  0.00000000000E+00 0.  1.
          2   -1    0    0  501    0  0.00000000000E+00 -0.00000000000E+00 -0.13750247023E+04  0.13750247023E+04  0.00000000000E+00 0. -1.
         23    2    1    2    0    0 -0.64096668400E+03  0.63665042701E+03 -0.26862041802E+03  0.94681366528E+03  0.90206050624E+02 0.  0.
        254    2    1    2    0    0  0.64096668400E+03 -0.63665042701E+03 -0.23789778933E+03  0.12967175320E+04  0.89928802027E+03 0.  0.
         23    2    4    4    0    0  0.45641543146E+03 -0.78392502241E+03  0.49764159072E+02  0.91324645576E+03  0.93215506255E+02 0.  0.
         23    2    4    4    0    0  0.18455125254E+03  0.14727459540E+03 -0.28766194840E+03  0.38347107623E+03  0.92475393933E+02 0.  0.
          1    1    3    3  502    0 -0.43947743874E+03  0.47501600884E+03 -0.16015552215E+03  0.66665614757E+03  0.00000000000E+00 0. -1.
         -1    1    3    3    0  502 -0.20148924526E+03  0.16163441817E+03 -0.10846489587E+03  0.28015751770E+03  0.00000000000E+00 0.  1.
         11    1    5    5    0    0  0.35722911768E+03 -0.55837264447E+03  0.67013330345E+02  0.66624577976E+03  0.00000000000E+00 0.  1.
        -11    1    5    5    0    0  0.99186313780E+02 -0.22555237794E+03 -0.17249171272E+02  0.24700067600E+03  0.00000000000E+00 0. -1.
          4    1    6    6  503    0  0.55516442690E+01 -0.11654402960E+02 -0.24736997987E+02  0.27902776418E+02  0.00000000000E+00 0. -1.
         -4    1    6    6    0  503  0.17899960827E+03  0.15892899836E+03 -0.26292495041E+03  0.35556829981E+03  0.00000000000E+00 0.  1.
<mgrwt>
<rscale>  0 0.21856055E+04</rscale>
<asrwt>0</asrwt>
<pdfrwt beam="1">  1        2 0.21154226E+00 0.21856055E+04</pdfrwt>
<pdfrwt beam="2">  1       -2 0.13361638E+00 0.21856055E+04</pdfrwt>
<totfact> 0.55446841E+00</totfact>
</mgrwt>
</event>
<event>
12    2  0.8147979E-008  0.4179562E+04  0.7818608E-02  0.7969271E-01
         -1   -1    0    0    0  501 -0.00000000000E+00  0.00000000000E+00  0.14327036476E+04  0.14327036476E+04  0.00000000000E+00 0.  1.
          1   -1    0    0  501    0  0.00000000000E+00 -0.00000000000E+00 -0.30482123693E+04  0.30482123693E+04  0.00000000000E+00 0. -1.
         23    2    1    2    0    0  0.99115866580E+03  0.16231529758E+04 -0.14079821883E+04  0.23673037263E+04  0.68498219658E+02 0.  0.
        254    2    1    2    0    0 -0.99115866580E+03 -0.16231529758E+04 -0.20752653341E+03  0.21136122906E+04  0.89848125700E+03 0.  0.
         23    2    4    4    0    0 -0.22693586606E+03 -0.11505422819E+04 -0.27488231918E+03  0.12079458498E+04  0.91243941228E+02 0.  0.
         23    2    4    4    0    0 -0.76422279974E+03 -0.47261069390E+03  0.67355785771E+02  0.90566644081E+03  0.91090858493E+02 0.  0.
          4    1    3    3  502    0  0.61215666132E+03  0.96843748725E+03 -0.88327527991E+03  0.14466451413E+04  0.00000000000E+00 0.  1.
         -4    1    3    3    0  502  0.37900200447E+03  0.65471548859E+03 -0.52470690839E+03  0.92065858499E+03  0.00000000000E+00 0. -1.
         11    1    5    5    0    0  0.60597072971E+01 -0.81468167495E+01 -0.44168964817E+01  0.11072472633E+02  0.00000000000E+00 0.  1.
        -11    1    5    5    0    0 -0.23299557335E+03 -0.11423954652E+04 -0.27046542270E+03  0.11968733772E+04  0.00000000000E+00 0. -1.
          4    1    6    6  503    0 -0.71170648167E+03 -0.46477592940E+03  0.65285282860E+02  0.85252856184E+03  0.00000000000E+00 0. -1.
         -4    1    6    6    0  503 -0.52516318074E+02 -0.78347644934E+01  0.20705029115E+01  0.53137878966E+02  0.00000000000E+00 0.  1.
<mgrwt>
<rscale>  0 0.41795622E+04</rscale>
<asrwt>0</asrwt>
<pdfrwt beam="1">  1        1 0.46895575E+00 0.41795622E+04</pdfrwt>
<pdfrwt beam="2">  1       -1 0.22041595E+00 0.41795622E+04</pdfrwt>
<totfact> 0.46450202E-02</totfact>
</mgrwt>
</event>
<event>
12    2  0.8147979E-008  0.1902075E+04  0.7818608E-02  0.8653824E-01
          1   -1    0    0  501    0  0.00000000000E+00  0.00000000000E+00  0.38760708590E+03  0.38760708590E+03  0.00000000000E+00 0. -1.
         -1   -1    0    0    0  501 -0.00000000000E+00 -0.00000000000E+00 -0.23334766548E+04  0.23334766548E+04  0.00000000000E+00 0.  1.
         23    2    1    2    0    0 -0.55832190890E+03  0.42111612566E+03 -0.43808613930E+03  0.83041984888E+03  0.92819797062E+02 0.  0.
        254    2    1    2    0    0  0.55832190890E+03 -0.42111612566E+03 -0.15077834296E+04  0.18906638918E+04  0.90118640471E+03 0.  0.
         23    2    4    4    0    0  0.72551910697E+03 -0.62653450334E+02 -0.96221937930E+03  0.12100993071E+04  0.90392310394E+02 0.  0.
         23    2    4    4    0    0 -0.16719719807E+03 -0.35846267532E+03 -0.54556405030E+03  0.68056458470E+03  0.95276588577E+02 0.  0.
          2    1    3    3  502    0 -0.43743503834E+03  0.37104735683E+03 -0.33903227674E+03  0.66630956653E+03  0.00000000000E+00 0. -1.
         -2    1    3    3    0  502 -0.12088687056E+03  0.50068768822E+02 -0.99053862560E+02  0.16411028235E+03  0.00000000000E+00 0.  1.
         11    1    5    5    0    0  0.14781848416E+03 -0.38487789057E+02 -0.24669532462E+03  0.29015547101E+03  0.00000000000E+00 0.  1.
        -11    1    5    5    0    0  0.57770062281E+03 -0.24165661277E+02 -0.71552405467E+03  0.91994383611E+03  0.00000000000E+00 0. -1.
          2    1    6    6  503    0 -0.12055553854E+03 -0.26199094111E+03 -0.46222420484E+03  0.54481566299E+03  0.00000000000E+00 0. -1.
         -2    1    6    6    0  503 -0.46641659535E+02 -0.96471734213E+02 -0.83339845462E+02  0.13574892172E+03  0.00000000000E+00 0.  1.
<mgrwt>
<rscale>  0 0.19020747E+04</rscale>
<asrwt>0</asrwt>
<pdfrwt beam="1">  1        1 0.59631859E-01 0.19020747E+04</pdfrwt>
<pdfrwt beam="2">  1       -1 0.35899641E+00 0.19020747E+04</pdfrwt>
<totfact> 0.79403630E-01</totfact>
</mgrwt>
</event>
<event>
12    2  0.8147979E-008  0.2756987E+04  0.7818608E-02  0.8316748E-01
         -2   -1    0    0    0  501 -0.00000000000E+00  0.00000000000E+00  0.85020150570E+03  0.85020150570E+03  0.00000000000E+00 0.  1.
          2   -1    0    0  501    0  0.00000000000E+00 -0.00000000000E+00 -0.22350524627E+04  0.22350524627E+04  0.00000000000E+00 0. -1.
         23    2    1    2    0    0  0.10379892710E+04  0.51089198143E+03 -0.10813895813E+04  0.15862677986E+04  0.91704737833E+02 0.  0.
        254    2    1    2    0    0 -0.10379892710E+04 -0.51089198143E+03 -0.30346137573E+03  0.14989861698E+04  0.90356980220E+03 0.  0.
         23    2    4    4    0    0 -0.38978682904E+03  0.21270105071E+03  0.60038624952E+02  0.45761929969E+03  0.92926195970E+02 0.  0.
         23    2    4    4    0    0 -0.64820244194E+03 -0.72359303215E+03 -0.36350000068E+03  0.10413668702E+04  0.92517165084E+02 0.  0.
          4    1    3    3  502    0  0.10330152324E+04  0.50217037268E+03 -0.10790505619E+04  0.15759586507E+04  0.00000000000E+00 0. -1.
         -4    1    3    3    0  502  0.49740386221E+01  0.87216087488E+01 -0.23390194293E+01  0.10309147941E+02  0.00000000000E+00 0.  1.
         11    1    5    5    0    0 -0.30111522087E+03  0.15232794646E+03  0.83896034267E+02  0.34772506967E+03  0.00000000000E+00 0. -1.
        -11    1    5    5    0    0 -0.88671608167E+02  0.60373104259E+02 -0.23857409314E+02  0.10989423002E+03  0.00000000000E+00 0.  1.
          4    1    6    6  503    0 -0.40290489956E+03 -0.42624795887E+03 -0.26435679612E+03  0.64335386544E+03  0.00000000000E+00 0. -1.
         -4    1    6    6    0  503 -0.24529754239E+03 -0.29734507328E+03 -0.99143204563E+02  0.39801300471E+03  0.00000000000E+00 0.  1.
<mgrwt>
<rscale>  0 0.27569875E+04</rscale>
<asrwt>0</asrwt>
<pdfrwt beam="1">  1        2 0.34385423E+00 0.27569875E+04</pdfrwt>
<pdfrwt beam="2">  1       -2 0.13080023E+00 0.27569875E+04</pdfrwt>
<totfact> 0.18421754E+00</totfact>
</mgrwt>
</event>
<event>
12    2  0.8147979E-008  0.1527901E+04  0.7818608E-02  0.8866108E-01
         -2   -1    0    0    0  501 -0.00000000000E+00  0.00000000000E+00  0.13653887212E+04  0.13653887212E+04  0.00000000000E+00 0.  1.
          2   -1    0    0  501    0  0.00000000000E+00 -0.00000000000E+00 -0.42743916471E+03  0.42743916471E+03  0.00000000000E+00 0. -1.
         23    2    1    2    0    0  0.36096620974E+03 -0.18951623461E+02 -0.88058858167E+02  0.38263493712E+03  0.89439163661E+02 0.  0.
        254    2    1    2    0    0 -0.36096620974E+03  0.18951623461E+02  0.10260084147E+04  0.14101929488E+04  0.89738236962E+03 0.  0.
         23    2    4    4    0    0 -0.31199533927E+03 -0.16016494282E+03  0.11266138124E+04  0.11836734104E+04  0.93968929380E+02 0.  0.
         23    2    4    4    0    0 -0.48970870465E+02  0.17911656628E+03 -0.10060539768E+03  0.22651953840E+03  0.81907049541E+02 0.  0.
          2    1    3    3  502    0  0.32476664831E+03 -0.43623904264E+02 -0.85989964835E+02  0.33877823858E+03  0.00000000000E+00 0. -1.
         -2    1    3    3    0  502  0.36199561422E+02  0.24672280803E+02 -0.20688933323E+01  0.43856698540E+02  0.00000000000E+00 0.  1.
         11    1    5    5    0    0 -0.20770241888E+03 -0.13971436623E+03  0.88495069017E+03  0.91967283475E+03  0.00000000000E+00 0.  1.
        -11    1    5    5    0    0 -0.10429292039E+03 -0.20450576583E+02  0.24166312222E+03  0.26400057569E+03  0.00000000000E+00 0. -1.
          4    1    6    6  503    0 -0.50273082616E+01  0.22660936365E+02  0.14505509749E+02  0.27371548703E+02  0.00000000000E+00 0. -1.
         -4    1    6    6    0  503 -0.43943562203E+02  0.15645562991E+03 -0.11511090743E+03  0.19914798970E+03  0.00000000000E+00 0.  1.
<mgrwt>
<rscale>  0 0.15279013E+04</rscale>
<asrwt>0</asrwt>
<pdfrwt beam="1">  1        2 0.65759872E-01 0.15279013E+04</pdfrwt>
<pdfrwt beam="2">  1       -2 0.21005980E+00 0.15279013E+04</pdfrwt>
<totfact> 0.81288887E+00</totfact>
</mgrwt>
</event>
<event>
12    2  0.8147979E-008  0.2412103E+04  0.7818608E-02  0.8434986E-01
         -2   -1    0    0    0  501 -0.00000000000E+00  0.00000000000E+00  0.73092972341E+03  0.73092972341E+03  0.00000000000E+00 0.  1.
          2   -1    0    0  501    0  0.00000000000E+00 -0.00000000000E+00 -0.19900130992E+04  0.19900130992E+04  0.00000000000E+00 0. -1.
         23    2    1    2    0    0 -0.54620284210E+03 -0.81155686427E+03 -0.92546241155E+03  0.13503808499E+04  0.10042746641E+03 0.  0.
        254    2    1    2    0    0  0.54620284210E+03  0.81155686427E+03 -0.33362096423E+03  0.13705619727E+04  0.90009726389E+03 0.  0.
         23    2    4    4    0    0  0.56421803394E+03  0.54838610342E+03  0.15525058289E+03  0.80759681278E+03  0.95081860890E+02 0.  0.
         23    2    4    4    0    0 -0.18015191840E+02  0.26317076084E+03 -0.48887154711E+03  0.56296515987E+03  0.91383724791E+02 0.  0.
          3    1    3    3  502    0 -0.38171559122E+03 -0.50489710537E+03 -0.64203027799E+03  0.90157127142E+03  0.00000000000E+00 0. -1.
         -3    1    3    3    0  502 -0.16448725088E+03 -0.30665975890E+03 -0.28343213356E+03  0.44880957852E+03  0.00000000000E+00 0.  1.
         11    1    5    5    0    0  0.20434629644E+03  0.14784824991E+03  0.75378951449E+02  0.26324608296E+03  0.00000000000E+00 0. -1.
        -11    1    5    5    0    0  0.35987173750E+03  0.40053785352E+03  0.79871631438E+02  0.54435072983E+03  0.00000000000E+00 0.  1.
          4    1    6    6  503    0 -0.10139407350E+02  0.26896497015E+03 -0.47561287301E+03  0.54649114149E+03  0.00000000000E+00 0. -1.
         -4    1    6    6    0  503 -0.78757844902E+01 -0.57942093103E+01 -0.13258674099E+02  0.16474018384E+02  0.00000000000E+00 0.  1.
<mgrwt>
<rscale>  0 0.24121026E+04</rscale>
<asrwt>0</asrwt>
<pdfrwt beam="1">  1        2 0.30615586E+00 0.24121026E+04</pdfrwt>
<pdfrwt beam="2">  1       -2 0.11245073E+00 0.24121026E+04</pdfrwt>
<totfact> 0.37859962E+00</totfact>
</mgrwt>
</event>
<event>
12    2  0.8147979E-008  0.2481438E+04  0.7818608E-02  0.8409628E-01
          2   -1    0    0  501    0  0.00000000000E+00  0.00000000000E+00  0.22404132640E+04  0.22404132640E+04  0.00000000000E+00 0.  1.
         -2   -1    0    0    0  501 -0.00000000000E+00 -0.00000000000E+00 -0.68709822890E+03  0.68709822890E+03  0.00000000000E+00 0. -1.
         23    2    1    2    0    0  0.59951466038E+03  0.51986146532E+03 -0.18147307503E+03  0.81895450106E+03  0.89890081294E+02 0.  0.
        254    2    1    2    0    0 -0.59951466038E+03 -0.51986146532E+03  0.17347881101E+04  0.21085569918E+04  0.89824775517E+03 0.  0.
         23    2    4    4    0    0  0.59906519038E+02 -0.39689092076E+02 -0.63602583074E+02  0.13171876494E+03  0.90224882442E+02 0.  0.
         23    2    4    4    0    0 -0.65942117942E+03 -0.48017237324E+03  0.17983906932E+04  0.19768382269E+04  0.90986207993E+02 0.  0.
          1    1    3    3  502    0  0.93871261610E+02  0.43069460123E+02 -0.31422666169E+02  0.10795450940E+03  0.00000000000E+00 0. -1.
         -1    1    3    3    0  502  0.50564339877E+03  0.47679200520E+03 -0.15005040886E+03  0.71099999166E+03  0.00000000000E+00 0.  1.
         11    1    5    5    0    0  0.22338356388E+02  0.27959306989E+02 -0.86692887662E+01  0.36822297336E+02  0.00000000000E+00 0. -1.
        -11    1    5    5    0    0  0.37568162650E+02 -0.67648399065E+02 -0.54933294308E+02  0.94896467608E+02  0.00000000000E+00 0.  1.
          4    1    6    6  503    0 -0.51305081277E+03 -0.33038915006E+03  0.12925152779E+04  0.14293263695E+04  0.00000000000E+00 0.  1.
         -4    1    6    6    0  503 -0.14637036665E+03 -0.14978322318E+03  0.50587541530E+03  0.54751185739E+03  0.00000000000E+00 0. -1.
<mgrwt>
<rscale>  0 0.24814383E+04</rscale>
<asrwt>0</asrwt>
<pdfrwt beam="1">  1        2 0.34467896E+00 0.24814383E+04</pdfrwt>
<pdfrwt beam="2">  1       -2 0.10570742E+00 0.24814383E+04</pdfrwt>
<totfact> 0.31653222E+00</totfact>
</mgrwt>
</event>
<event>
12    2  0.8147979E-008  0.1662251E+04  0.7818608E-02  0.8783192E-01
         -2   -1    0    0    0  501 -0.00000000000E+00  0.00000000000E+00  0.35809826986E+03  0.35809826986E+03  0.00000000000E+00 0.  1.
          2   -1    0    0  501    0  0.00000000000E+00 -0.00000000000E+00 -0.19289953636E+04  0.19289953636E+04  0.00000000000E+00 0. -1.
         23    2    1    2    0    0 -0.49000666788E+03  0.20090415481E+03 -0.89306323751E+03  0.10422683243E+04  0.91062064902E+02 0.  0.
        254    2    1    2    0    0  0.49000666788E+03 -0.20090415481E+03 -0.67783385620E+03  0.12448253091E+04  0.89981236915E+03 0.  0.
         23    2    4    4    0    0  0.15634696331E+03  0.33138238058E+03 -0.40661521058E+03  0.55429029142E+03  0.87425068473E+02 0.  0.
         23    2    4    4    0    0  0.33365970457E+03 -0.53228653539E+03 -0.27121864563E+03  0.69053501772E+03  0.92850970604E+02 0.  0.
          3    1    3    3  502    0 -0.37926923716E+03  0.11682046057E+03 -0.62638254753E+03  0.74151687110E+03  0.00000000000E+00 0. -1.
         -3    1    3    3    0  502 -0.11073743072E+03  0.84083694239E+02 -0.26668068998E+03  0.30075145320E+03  0.00000000000E+00 0.  1.
         11    1    5    5    0    0 -0.25032168251E+01  0.39025817704E+02 -0.19065336535E+02  0.43505949008E+02  0.00000000000E+00 0.  1.
        -11    1    5    5    0    0  0.15885018013E+03  0.29235656288E+03 -0.38754987404E+03  0.51078434242E+03  0.00000000000E+00 0. -1.
          3    1    6    6  503    0  0.82864433830E+02 -0.16224807408E+03 -0.37118676095E+02  0.18592672764E+03  0.00000000000E+00 0. -1.
         -3    1    6    6    0  503  0.25079527074E+03 -0.37003846131E+03 -0.23409996953E+03  0.50460829007E+03  0.00000000000E+00 0.  1.
<mgrwt>
<rscale>  0 0.16622514E+04</rscale>
<asrwt>0</asrwt>
<pdfrwt beam="1">  1        2 0.29676852E+00 0.16622514E+04</pdfrwt>
<pdfrwt beam="2">  1       -2 0.55092040E-01 0.16622514E+04</pdfrwt>
<totfact> 0.21635555E+01</totfact>
</mgrwt>
</event>
<event>
12    2  0.8147979E-008  0.2085147E+04  0.7818608E-02  0.8567815E-01
          1   -1    0    0  501    0  0.00000000000E+00  0.00000000000E+00  0.25581736205E+04  0.25581736205E+04  0.00000000000E+00 0. -1.
         -1   -1    0    0    0  501 -0.00000000000E+00 -0.00000000000E+00 -0.42489666830E+03  0.42489666830E+03  0.00000000000E+00 0.  1.
         23    2    1    2    0    0  0.41436631867E+03  0.17627444767E+03 -0.15356277688E+03  0.48452701061E+03  0.91721156873E+02 0.  0.
        254    2    1    2    0    0 -0.41436631867E+03 -0.17627444767E+03  0.22868397291E+04  0.24985432782E+04  0.90017244988E+03 0.  0.
         23    2    4    4    0    0 -0.30455305108E+02  0.33509457085E+03  0.63456510786E+03  0.72448684796E+03  0.94828369909E+02 0.  0.
         23    2    4    4    0    0 -0.38391101356E+03 -0.51136901853E+03  0.16522746212E+04  0.17740564302E+04  0.91536081571E+02 0.  0.
          3    1    3    3  502    0  0.17232850818E+03  0.84721350368E+02 -0.19301031348E+02  0.19299572987E+03  0.00000000000E+00 0. -1.
         -3    1    3    3    0  502  0.24203781049E+03  0.91553097307E+02 -0.13426174554E+03  0.29153128074E+03  0.00000000000E+00 0.  1.
         11    1    5    5    0    0  0.25093499131E+02  0.11675541195E+03  0.27993589505E+03  0.30434456666E+03  0.00000000000E+00 0. -1.
        -11    1    5    5    0    0 -0.55548804239E+02  0.21833915891E+03  0.35462921281E+03  0.42014228131E+03  0.00000000000E+00 0.  1.
          4    1    6    6  503    0 -0.29565279670E+03 -0.32303582808E+03  0.11319543842E+04  0.12137064926E+04  0.00000000000E+00 0. -1.
         -4    1    6    6    0  503 -0.88258216858E+02 -0.18833319044E+03  0.52032023710E+03  0.56034993763E+03  0.00000000000E+00 0.  1.
<mgrwt>
<rscale>  0 0.20851469E+04</rscale>
<asrwt>0</asrwt>
<pdfrwt beam="1">  1        1 0.39356516E+00 0.20851469E+04</pdfrwt>
<pdfrwt beam="2">  1       -1 0.65368720E-01 0.20851469E+04</pdfrwt>
<totfact> 0.26972216E+00</totfact>
</mgrwt>
</event>
<event>
12    2  0.8147979E-008  0.2446857E+04  0.7818608E-02  0.8422167E-01
         -1   -1    0    0    0  501 -0.00000000000E+00  0.00000000000E+00  0.86452047795E+03  0.86452047795E+03  0.00000000000E+00 0.  1.
          1   -1    0    0  501    0  0.00000000000E+00 -0.00000000000E+00 -0.17313375673E+04  0.17313375673E+04  0.00000000000E+00 0. -1.
         23    2    1    2    0    0 -0.84308052792E+03 -0.58414061619E+03 -0.63945132283E+03  0.12118838586E+04  0.88087776873E+02 0.  0.
        254    2    1    2    0    0  0.84308052792E+03  0.58414061619E+03 -0.22736576650E+03  0.13839741866E+04  0.90093524818E+03 0.  0.
         23    2    4    4    0    0  0.40801716793E+03 -0.11036063422E+03 -0.34256677745E+03  0.55146494713E+03  0.90022841492E+02 0.  0.
         23    2    4    4    0    0  0.43506335998E+03  0.69450125042E+03  0.11520101095E+03  0.83250923949E+03  0.90488932350E+02 0.  0.
          4    1    3    3  502    0 -0.84296921240E+03 -0.57623060813E+03 -0.63112598498E+03  0.12003994401E+04  0.00000000000E+00 0. -1.
         -4    1    3    3    0  502 -0.11131551431E+00 -0.79100080647E+01 -0.83253378511E+01  0.11484418534E+02  0.00000000000E+00 0.  1.
         11    1    5    5    0    0  0.12252601974E+02 -0.20116078488E+02 -0.63812887964E+01  0.24402944814E+02  0.00000000000E+00 0. -1.
        -11    1    5    5    0    0  0.39576456596E+03 -0.90244555734E+02 -0.33618548865E+03  0.52706200232E+03  0.00000000000E+00 0.  1.
          2    1    6    6  503    0  0.13164252771E+03  0.13869491124E+03  0.23095907063E+02  0.19261218661E+03  0.00000000000E+00 0. -1.
         -2    1    6    6    0  503  0.30342083228E+03  0.55580633917E+03  0.92105103891E+02  0.63989705288E+03  0.00000000000E+00 0.  1.
<mgrwt>
<rscale>  0 0.24468566E+04</rscale>
<asrwt>0</asrwt>
<pdfrwt beam="1">  1        1 0.26635962E+00 0.24468566E+04</pdfrwt>
<pdfrwt beam="2">  1       -1 0.13300315E+00 0.24468566E+04</pdfrwt>
<totfact> 0.19377033E+00</totfact>
</mgrwt>
</event>
<event>
12    2  0.8147979E-008  0.2014714E+04  0.7818608E-02  0.8599772E-01
         -1   -1    0    0    0  501 -0.00000000000E+00  0.00000000000E+00  0.98377923644E+03  0.98377923644E+03  0.00000000000E+00 0.  1.
          1   -1    0    0  501    0  0.00000000000E+00 -0.00000000000E+00 -0.10314999697E+04  0.10314999697E+04  0.00000000000E+00 0. -1.
         23    2    1    2    0    0 -0.74705006199E+03 -0.26200606821E+03 -0.15266471688E+03  0.81166164774E+03  0.93579590345E+02 0.  0.
        254    2    1    2    0    0  0.74705006199E+03  0.26200606821E+03  0.10494398361E+03  0.12036175584E+04  0.90052818519E+03 0.  0.
         23    2    4    4    0    0  0.50175031203E+03  0.40006722890E+02  0.47563157097E+03  0.69866553463E+03  0.92489050512E+02 0.  0.
         23    2    4    4    0    0  0.24529974996E+03  0.22199934532E+03 -0.37068758737E+03  0.50495202378E+03  0.90064322812E+02 0.  0.
          3    1    3    3  502    0 -0.52140677917E+03 -0.20845276112E+03 -0.14346178115E+03  0.57956782660E+03  0.00000000000E+00 0. -1.
         -3    1    3    3    0  502 -0.22564328283E+03 -0.53553307089E+02 -0.92029357295E+01  0.23209382114E+03  0.00000000000E+00 0.  1.
         11    1    5    5    0    0  0.17671189445E+03  0.49874330629E+02  0.13631780572E+03  0.22868556285E+03  0.00000000000E+00 0. -1.
        -11    1    5    5    0    0  0.32503841758E+03 -0.98676077390E+01  0.33931376525E+03  0.46997997178E+03  0.00000000000E+00 0.  1.
          1    1    6    6  503    0  0.52841344222E+02  0.53794736135E+01 -0.57635526273E+02  0.78377294443E+02  0.00000000000E+00 0. -1.
         -1    1    6    6    0  503  0.19245840574E+03  0.21661987171E+03 -0.31305206109E+03  0.42657472934E+03  0.00000000000E+00 0.  1.
<mgrwt>
<rscale>  0 0.20147141E+04</rscale>
<asrwt>0</asrwt>
<pdfrwt beam="1">  1        1 0.15869230E+00 0.20147141E+04</pdfrwt>
<pdfrwt beam="2">  1       -1 0.15135065E+00 0.20147141E+04</pdfrwt>
<totfact> 0.45123267E+00</totfact>
</mgrwt>
</event>
<event>
12    2  0.8147979E-008  0.4165556E+04  0.7818608E-02  0.7971957E-01
          1   -1    0    0  501    0  0.00000000000E+00  0.00000000000E+00  0.16956653264E+04  0.16956653264E+04  0.00000000000E+00 0. -1.
         -1   -1    0    0    0  501 -0.00000000000E+00 -0.00000000000E+00 -0.25582670860E+04  0.25582670860E+04  0.00000000000E+00 0.  1.
         23    2    1    2    0    0  0.13332539124E+04 -0.80129727395E+03 -0.16696767516E+04  0.22837555040E+04  0.89863403876E+02 0.  0.
        254    2    1    2    0    0 -0.13332539124E+04  0.80129727395E+03  0.80707499197E+03  0.19701769084E+04  0.90032421466E+03 0.  0.
         23    2    4    4    0    0  0.47779587045E+02  0.33518035686E+02 -0.98003907373E+02  0.14695384139E+03  0.92651594607E+02 0.  0.
         23    2    4    4    0    0 -0.13810334994E+04  0.76777923826E+03  0.90507889934E+03  0.18232230670E+04  0.90752700943E+02 0.  0.
          1    1    3    3  502    0  0.81751992472E+03 -0.43997304271E+03 -0.99854601253E+03  0.13634548928E+04  0.00000000000E+00 0. -1.
         -1    1    3    3    0  502  0.51573398763E+03 -0.36132423124E+03 -0.67113073907E+03  0.92030061121E+03  0.00000000000E+00 0.  1.
         11    1    5    5    0    0  0.42744370249E+02 -0.83674517801E+00 -0.10333068036E+03  0.11182580576E+03  0.00000000000E+00 0. -1.
        -11    1    5    5    0    0  0.50352167963E+01  0.34354780864E+02  0.53267729869E+01  0.35128035625E+02  0.00000000000E+00 0.  1.
          3    1    6    6  503    0 -0.10335764103E+04  0.60620671919E+03  0.65385579857E+03  0.13650253432E+04  0.00000000000E+00 0. -1.
         -3    1    6    6    0  503 -0.34745708912E+03  0.16157251907E+03  0.25122310078E+03  0.45819772377E+03  0.00000000000E+00 0.  1.
<mgrwt>
<rscale>  0 0.41655563E+04</rscale>
<asrwt>0</asrwt>
<pdfrwt beam="1">  1        1 0.26087159E+00 0.41655563E+04</pdfrwt>
<pdfrwt beam="2">  1       -1 0.39357955E+00 0.41655563E+04</pdfrwt>
<totfact> 0.29305709E-02</totfact>
</mgrwt>
</event>
<event>
12    2  0.8147979E-008  0.3463878E+04  0.7818608E-02  0.8122404E-01
          1   -1    0    0  501    0  0.00000000000E+00  0.00000000000E+00  0.66453892591E+03  0.66453892591E+03  0.00000000000E+00 0. -1.
         -1   -1    0    0    0  501 -0.00000000000E+00 -0.00000000000E+00 -0.45138267039E+04  0.45138267039E+04  0.00000000000E+00 0.  1.
         23    2    1    2    0    0 -0.12806430736E+04  0.96205931314E+03 -0.20908537255E+04  0.26354368949E+04  0.90848892815E+02 0.  0.
        254    2    1    2    0    0  0.12806430736E+04 -0.96205931314E+03 -0.17584340525E+04  0.25429287350E+04  0.89932832168E+03 0.  0.
         23    2    4    4    0    0  0.14032570377E+03 -0.42880841486E+03 -0.91676926402E+03  0.10258827944E+04  0.91660594862E+02 0.  0.
         23    2    4    4    0    0  0.11403173698E+04 -0.53325089828E+03 -0.84166478846E+03  0.15170459405E+04  0.91370373082E+02 0.  0.
          4    1    3    3  502    0 -0.55725996446E+03  0.46559722704E+03 -0.90556163004E+03  0.11607589378E+04  0.00000000000E+00 0. -1.
         -4    1    3    3    0  502 -0.72338310914E+03  0.49646208610E+03 -0.11852920955E+04  0.14746779571E+04  0.00000000000E+00 0.  1.
         11    1    5    5    0    0  0.13355614427E+03 -0.28710826764E+03 -0.67462624884E+03  0.74524423959E+03  0.00000000000E+00 0. -1.
        -11    1    5    5    0    0  0.67695594953E+01 -0.14170014722E+03 -0.24214301519E+03  0.28063855484E+03  0.00000000000E+00 0.  1.
          3    1    6    6  503    0  0.66225773420E+02 -0.41519916350E+02 -0.29768077239E+02  0.83641466638E+02  0.00000000000E+00 0. -1.
         -3    1    6    6    0  503  0.10740915964E+04 -0.49173098193E+03 -0.81189671122E+03  0.14334044739E+04  0.00000000000E+00 0.  1.
<mgrwt>
<rscale>  0 0.34638785E+04</rscale>
<asrwt>0</asrwt>
<pdfrwt beam="1">  1        1 0.10223676E+00 0.34638785E+04</pdfrwt>
<pdfrwt beam="2">  1       -1 0.69443485E+00 0.34638785E+04</pdfrwt>
<totfact> 0.50235109E-03</totfact>
</mgrwt>
</event>
<event>
12    2  0.8147979E-008  0.1361286E+04  0.7818608E-02  0.8982328E-01
          2   -1    0    0  501    0  0.00000000000E+00  0.00000000000E+00  0.34487104461E+03  0.34487104461E+03  0.00000000000E+00 0. -1.
         -2   -1    0    0    0  501 -0.00000000000E+00 -0.00000000000E+00 -0.13433284385E+04  0.13433284385E+04  0.00000000000E+00 0.  1.
         23    2    1    2    0    0 -0.26349469569E+03  0.18753313394E+03 -0.52125391184E+03  0.62008450681E+03  0.90559505277E+02 0.  0.
        254    2    1    2    0    0  0.26349469569E+03 -0.18753313394E+03 -0.47720348204E+03  0.10681149763E+04  0.89919314294E+03 0.  0.
         23    2    4    4    0    0  0.15910590819E+03 -0.25075290854E+02 -0.72054301479E+03  0.74407759881E+03  0.92335132255E+02 0.  0.
         23    2    4    4    0    0  0.10438878751E+03 -0.16245784309E+03  0.24333953275E+03  0.32403737748E+03  0.92176591743E+02 0.  0.
          1    1    3    3  502    0 -0.76232527514E+02  0.10579088719E+03 -0.22828694750E+03  0.26290310090E+03  0.00000000000E+00 0. -1.
         -1    1    3    3    0  502 -0.18726216818E+03  0.81742246747E+02 -0.29296696434E+03  0.35718140591E+03  0.00000000000E+00 0.  1.
         11    1    5    5    0    0  0.13631413515E+03 -0.31026183815E+02 -0.69659975345E+03  0.71048953830E+03  0.00000000000E+00 0.  1.
        -11    1    5    5    0    0  0.22791773034E+02  0.59508929611E+01 -0.23943261346E+02  0.33588060512E+02  0.00000000000E+00 0. -1.
          1    1    6    6  503    0 -0.12660800697E+01 -0.62737568304E+02  0.41056916654E+02  0.74988504723E+02  0.00000000000E+00 0. -1.
         -1    1    6    6    0  503  0.10565486757E+03 -0.99720274783E+02  0.20228261610E+03  0.24904887275E+03  0.00000000000E+00 0.  1.
<mgrwt>
<rscale>  0 0.13612863E+04</rscale>
<asrwt>0</asrwt>
<pdfrwt beam="1">  1        2 0.53057083E-01 0.13612863E+04</pdfrwt>
<pdfrwt beam="2">  1       -2 0.20666592E+00 0.13612863E+04</pdfrwt>
<totfact> 0.11025250E+01</totfact>
</mgrwt>
</event>
<event>
12    2  0.8147979E-008  0.2961080E+04  0.7818608E-02  0.8254933E-01
         -1   -1    0    0    0  501 -0.00000000000E+00  0.00000000000E+00  0.14479069869E+04  0.14479069869E+04  0.00000000000E+00 0.  1.
          1   -1    0    0  501    0  0.00000000000E+00 -0.00000000000E+00 -0.15139089721E+04  0.15139089721E+04  0.00000000000E+00 0. -1.
         23    2    1    2    0    0 -0.10925079031E+04  0.78136016076E+03  0.24685235708E+02  0.13466189556E+04  0.93145217936E+02 0.  0.
        254    2    1    2    0    0  0.10925079031E+04 -0.78136016076E+03 -0.90687220938E+02  0.16151970033E+04  0.89249087853E+03 0.  0.
         23    2    4    4    0    0  0.11692213745E+04 -0.68373586875E+03 -0.26410061805E+03  0.13830193191E+04  0.91760230602E+02 0.  0.
         23    2    4    4    0    0 -0.76713471345E+02 -0.97624292008E+02  0.17341339712E+03  0.23217768417E+03  0.91754082492E+02 0.  0.
          2    1    3    3  502    0 -0.18045688666E+03  0.14925540871E+03  0.35660645398E+02  0.23688298082E+03  0.00000000000E+00 0. -1.
         -2    1    3    3    0  502 -0.91205101647E+03  0.63210475205E+03 -0.10975409690E+02  0.11097359748E+04  0.00000000000E+00 0.  1.
         11    1    5    5    0    0  0.10023924238E+04 -0.54795275406E+03 -0.21669003982E+03  0.11627542153E+04  0.00000000000E+00 0. -1.
        -11    1    5    5    0    0  0.16682895070E+03 -0.13578311469E+03 -0.47410578234E+02  0.22026510380E+03  0.00000000000E+00 0.  1.
          4    1    6    6  503    0 -0.26944076660E+02 -0.99318322930E+02  0.13223390861E+03  0.16755870352E+03  0.00000000000E+00 0. -1.
         -4    1    6    6    0  503 -0.49769394686E+02  0.16940309224E+01  0.41179488501E+02  0.64618980658E+02  0.00000000000E+00 0.  1.
<mgrwt>
<rscale>  0 0.29610805E+04</rscale>
<asrwt>0</asrwt>
<pdfrwt beam="1">  1        1 0.23290907E+00 0.29610805E+04</pdfrwt>
<pdfrwt beam="2">  1       -1 0.22275492E+00 0.29610805E+04</pdfrwt>
<totfact> 0.57625616E-01</totfact>
</mgrwt>
</event>
<event>
12    2  0.8147979E-008  0.5370486E+04  0.7818608E-02  0.7773766E-01
          1   -1    0    0  501    0  0.00000000000E+00  0.00000000000E+00  0.32676413674E+04  0.32676413674E+04  0.00000000000E+00 0. -1.
         -1   -1    0    0    0  501 -0.00000000000E+00 -0.00000000000E+00 -0.22066462995E+04  0.22066462995E+04  0.00000000000E+00 0.  1.
         23    2    1    2    0    0 -0.25666567072E+04 -0.41234699861E+03  0.28908052780E+03  0.26170702272E+04  0.87933624693E+02 0.  0.
        254    2    1    2    0    0  0.25666567072E+04  0.41234699861E+03  0.77191454009E+03  0.28572174398E+04  0.90004596598E+03 0.  0.
         23    2    4    4    0    0  0.19517305207E+04  0.58050150874E+03  0.30335257143E+03  0.20607234405E+04  0.91237537572E+02 0.  0.
         23    2    4    4    0    0  0.61492618648E+03 -0.16815451013E+03  0.46856196866E+03  0.79649399929E+03  0.91881545117E+02 0.  0.
          4    1    3    3  502    0 -0.18180376683E+04 -0.30927203004E+03  0.16863336541E+03  0.18518497142E+04  0.00000000000E+00 0. -1.
         -4    1    3    3    0  502 -0.74861903892E+03 -0.10307496857E+03  0.12044716240E+03  0.76522051300E+03  0.00000000000E+00 0.  1.
         11    1    5    5    0    0  0.14933450265E+04  0.47224533548E+03  0.20535321721E+03  0.15796407721E+04  0.00000000000E+00 0. -1.
        -11    1    5    5    0    0  0.45838549428E+03  0.10825617326E+03  0.97999354216E+02  0.48108266841E+03  0.00000000000E+00 0.  1.
          2    1    6    6  503    0  0.46489639439E+03 -0.16630383752E+03  0.36956468234E+03  0.61673631182E+03  0.00000000000E+00 0. -1.
         -2    1    6    6    0  503  0.15002979210E+03 -0.18506726125E+01  0.98997286321E+02  0.17975768747E+03  0.00000000000E+00 0.  1.
<mgrwt>
<rscale>  0 0.53704855E+04</rscale>
<asrwt>0</asrwt>
<pdfrwt beam="1">  1        1 0.50271406E+00 0.53704855E+04</pdfrwt>
<pdfrwt beam="2">  1       -1 0.33948405E+00 0.53704855E+04</pdfrwt>
<totfact> 0.48309499E-03</totfact>
</mgrwt>
</event>
<event>
12    2  0.8147979E-008  0.1094053E+04  0.7818608E-02  0.9211007E-01
          2   -1    0    0  501    0  0.00000000000E+00  0.00000000000E+00  0.14783566827E+04  0.14783566827E+04  0.00000000000E+00 0. -1.
         -2   -1    0    0    0  501 -0.00000000000E+00 -0.00000000000E+00 -0.20241268264E+03  0.20241268264E+03  0.00000000000E+00 0.  1.
         23    2    1    2    0    0  0.14571931184E+02 -0.10745376837E+03  0.36544473183E+02  0.14542452922E+03  0.89744869842E+02 0.  0.
        254    2    1    2    0    0 -0.14571931184E+02  0.10745376837E+03  0.12393995269E+04  0.15353448362E+04  0.89967434390E+03 0.  0.
         23    2    4    4    0    0  0.60508863044E+00  0.29833831272E+03  0.12824635059E+04  0.13197807897E+04  0.90014298651E+02 0.  0.
         23    2    4    4    0    0 -0.15177019814E+02 -0.19088454435E+03 -0.43063979017E+02  0.21556404641E+03  0.89140903155E+02 0.  0.
          4    1    3    3  502    0  0.94826831848E+01 -0.10266221758E+03  0.61133414229E+02  0.11986136381E+03  0.00000000000E+00 0. -1.
         -4    1    3    3    0  502  0.50892479989E+01 -0.47915507941E+01 -0.24588941046E+02  0.25563165413E+02  0.00000000000E+00 0.  1.
         11    1    5    5    0    0  0.92501824971E+01  0.64869448116E+02  0.15356315077E+03  0.16695883459E+03  0.00000000000E+00 0.  1.
        -11    1    5    5    0    0 -0.86450938667E+01  0.23346886460E+03  0.11289003552E+04  0.11528219552E+04  0.00000000000E+00 0. -1.
          2    1    6    6  503    0 -0.38623625004E+01 -0.11016342317E+03 -0.68977422619E+02  0.13003377438E+03  0.00000000000E+00 0. -1.
         -2    1    6    6    0  503 -0.11314657314E+02 -0.80721121181E+02  0.25913443601E+02  0.85530272034E+02  0.00000000000E+00 0.  1.
<mgrwt>
<rscale>  0 0.10940533E+04</rscale>
<asrwt>0</asrwt>
<pdfrwt beam="1">  1        2 0.22743948E+00 0.10940533E+04</pdfrwt>
<pdfrwt beam="2">  1       -2 0.31140414E-01 0.10940533E+04</pdfrwt>
<totfact> 0.12390198E+02</totfact>
</mgrwt>
</event>
<event>
12    2  0.8147979E-008  0.2789325E+04  0.7818608E-02  0.8306590E-01
          2   -1    0    0  501    0  0.00000000000E+00  0.00000000000E+00  0.22343014458E+04  0.22343014458E+04  0.00000000000E+00 0. -1.
         -2   -1    0    0    0  501 -0.00000000000E+00 -0.00000000000E+00 -0.87055527681E+03  0.87055527681E+03  0.00000000000E+00 0.  1.
         23    2    1    2    0    0  0.45292600852E+03 -0.11598384627E+04  0.54182591129E+03  0.13612243016E+04  0.94810612918E+02 0.  0.
        254    2    1    2    0    0 -0.45292600852E+03  0.11598384627E+04  0.82192025768E+03  0.17436324210E+04  0.90240449945E+03 0.  0.
         23    2    4    4    0    0 -0.39674055640E+03  0.12858224934E+04  0.62524482835E+03  0.14869161643E+04  0.96156282879E+02 0.  0.
         23    2    4    4    0    0 -0.56185452118E+02 -0.12598403063E+03  0.19667542933E+03  0.25671625666E+03  0.90516467735E+02 0.  0.
          2    1    3    3  502    0  0.96206979030E+02 -0.26303502886E+03  0.80012454079E+02  0.29128199743E+03  0.00000000000E+00 0. -1.
         -2    1    3    3    0  502  0.35671902949E+03 -0.89680343389E+03  0.46181345721E+03  0.10699423042E+04  0.00000000000E+00 0.  1.
         11    1    5    5    0    0 -0.17982292694E+03  0.64137512117E+03  0.25996488032E+03  0.71503850953E+03  0.00000000000E+00 0.  1.
        -11    1    5    5    0    0 -0.21691762946E+03  0.64444737221E+03  0.36527994803E+03  0.77187765478E+03  0.00000000000E+00 0. -1.
          3    1    6    6  503    0  0.10035270835E+02 -0.38296949612E+01  0.62987700450E+02  0.63896976707E+02  0.00000000000E+00 0. -1.
         -3    1    6    6    0  503 -0.66220722954E+02 -0.12215433567E+03  0.13368772888E+03  0.19281927996E+03  0.00000000000E+00 0.  1.
<mgrwt>
<rscale>  0 0.27893246E+04</rscale>
<asrwt>0</asrwt>
<pdfrwt beam="1">  1        2 0.34373868E+00 0.27893246E+04</pdfrwt>
<pdfrwt beam="2">  1       -2 0.13393158E+00 0.27893246E+04</pdfrwt>
<totfact> 0.17316468E+00</totfact>
</mgrwt>
</event>
<event>
12    2  0.8498578E-008  0.2210823E+04  0.7818608E-02  0.8513937E-01
         -1   -1    0    0    0  501 -0.00000000000E+00  0.00000000000E+00  0.50913911136E+03  0.50913911136E+03  0.00000000000E+00 0.  1.
          1   -1    0    0  501    0  0.00000000000E+00 -0.00000000000E+00 -0.24000021277E+04  0.24000021277E+04  0.00000000000E+00 0. -1.
         23    2    1    2    0    0 -0.66127135182E+03  0.55721767014E+03 -0.12010728343E+04  0.14828303330E+04  0.91861365388E+02 0.  0.
        254    2    1    2    0    0  0.66127135182E+03 -0.55721767014E+03 -0.68979018201E+03  0.14263109060E+04  0.90043376928E+03 0.  0.
         23    2    4    4    0    0  0.51677416985E+03 -0.70646235723E+03 -0.22366060663E+03  0.90792667810E+03  0.90344789866E+02 0.  0.
         23    2    4    4    0    0  0.14449718198E+03  0.14924468709E+03 -0.46612957538E+03  0.51838422795E+03  0.91060499212E+02 0.  0.
          3    1    3    3  502    0 -0.26997466141E+03  0.28065969914E+03 -0.57416278695E+03  0.69377164142E+03  0.00000000000E+00 0. -1.
         -3    1    3    3    0  502 -0.39129669042E+03  0.27655797100E+03 -0.62691004739E+03  0.78905869159E+03  0.00000000000E+00 0.  1.
         11    1    5    5    0    0  0.16060366957E+03 -0.28277693544E+03 -0.10613257289E+03  0.34208252941E+03  0.00000000000E+00 0. -1.
        -11    1    5    5    0    0  0.35617050027E+03 -0.42368542179E+03 -0.11752803374E+03  0.56584414870E+03  0.00000000000E+00 0.  1.
          3    1    6    6  503    0  0.89159889484E+02  0.78896815994E+02 -0.15997557305E+03  0.19941508829E+03  0.00000000000E+00 0. -1.
         -3    1    6    6    0  503  0.55337292492E+02  0.70347871095E+02 -0.30615400233E+03  0.31896913965E+03  0.00000000000E+00 0.  1.
<mgrwt>
<rscale>  0 0.22108233E+04</rscale>
<asrwt>0</asrwt>
<pdfrwt beam="1">  1        1 0.36923110E+00 0.22108233E+04</pdfrwt>
<pdfrwt beam="2">  1       -1 0.78329093E-01 0.22108233E+04</pdfrwt>
<totfact> 0.23607623E+00</totfact>
</mgrwt>
</event>
<event>
12    2  0.8147979E-008  0.6658093E+04  0.7818608E-02  0.7613762E-01
          1   -1    0    0  501    0  0.00000000000E+00  0.00000000000E+00  0.24088541135E+04  0.24088541135E+04  0.00000000000E+00 0. -1.
         -1   -1    0    0    0  501 -0.00000000000E+00 -0.00000000000E+00 -0.46007563074E+04  0.46007563074E+04  0.00000000000E+00 0.  1.
         23    2    1    2    0    0  0.32128945696E+04 -0.85115523457E+02 -0.45139056690E+03  0.32468421082E+04  0.91071751199E+02 0.  0.
        254    2    1    2    0    0 -0.32128945696E+04  0.85115523457E+02 -0.17405116270E+04  0.37627683127E+04  0.89392867927E+03 0.  0.
         23    2    4    4    0    0 -0.28084898687E+04  0.13525478742E+03 -0.11490542224E+04  0.30388348231E+04  0.91007007817E+02 0.  0.
         23    2    4    4    0    0 -0.40440470086E+03 -0.50139263959E+02 -0.59145740453E+03  0.72393348962E+03  0.90557871770E+02 0.  0.
          1    1    3    3  502    0  0.24629404141E+04 -0.61641240829E+02 -0.38465600354E+03  0.24935587755E+04  0.00000000000E+00 0. -1.
         -1    1    3    3    0  502  0.74995415553E+03 -0.23474282628E+02 -0.66734563359E+02  0.75328333268E+03  0.00000000000E+00 0.  1.
         11    1    5    5    0    0 -0.16590489048E+04  0.57189917582E+02 -0.63654545934E+03  0.17778931568E+04  0.00000000000E+00 0. -1.
        -11    1    5    5    0    0 -0.11494409639E+04  0.78064869834E+02 -0.51250876309E+03  0.12609416663E+04  0.00000000000E+00 0.  1.
          3    1    6    6  503    0 -0.39050622325E+03 -0.46323856891E+02 -0.59053991209E+03  0.70949164751E+03  0.00000000000E+00 0. -1.
         -3    1    6    6    0  503 -0.13898477613E+02 -0.38154070674E+01 -0.91749244391E+00  0.14441842107E+02  0.00000000000E+00 0.  1.
<mgrwt>
<rscale>  0 0.66580930E+04</rscale>
<asrwt>0</asrwt>
<pdfrwt beam="1">  1        1 0.37059295E+00 0.66580930E+04</pdfrwt>
<pdfrwt beam="2">  1       -1 0.70780865E+00 0.66580930E+04</pdfrwt>
<totfact> 0.19131308E-04</totfact>
</mgrwt>
</event>
<event>
12    2  0.8147979E-008  0.1107662E+04  0.7818608E-02  0.9197756E-01
         -2   -1    0    0    0  501 -0.00000000000E+00  0.00000000000E+00  0.27076861317E+03  0.27076861317E+03  0.00000000000E+00 0.  1.
          2   -1    0    0  501    0  0.00000000000E+00 -0.00000000000E+00 -0.11328076038E+04  0.11328076038E+04  0.00000000000E+00 0. -1.
         23    2    1    2    0    0 -0.57605426476E+02 -0.14547970947E+03 -0.22795873248E+03  0.29136866349E+03  0.91911823635E+02 0.  0.
        254    2    1    2    0    0  0.57605426476E+02  0.14547970947E+03 -0.63408025810E+03  0.11122075534E+04  0.90025837244E+03 0.  0.
         23    2    4    4    0    0  0.34865434389E+03  0.46827095212E+02  0.40205258213E+02  0.36565031661E+03  0.91274656315E+02 0.  0.
         23    2    4    4    0    0 -0.29104891742E+03  0.98652614257E+02 -0.67428551632E+03  0.74655723682E+03  0.90801650305E+02 0.  0.
          4    1    3    3  502    0 -0.18319023067E+02 -0.80896215258E+02 -0.18883921941E+03  0.20625235765E+03  0.00000000000E+00 0. -1.
         -4    1    3    3    0  502 -0.39286403410E+02 -0.64583494211E+02 -0.39119513074E+02  0.85116305844E+02  0.00000000000E+00 0.  1.
         11    1    5    5    0    0  0.25678752413E+03  0.45273804619E+02 -0.10016695671E+02  0.26094038424E+03  0.00000000000E+00 0.  1.
        -11    1    5    5    0    0  0.91866819764E+02  0.15532905928E+01  0.50221953884E+02  0.10470993237E+03  0.00000000000E+00 0. -1.
          4    1    6    6  503    0 -0.77969000782E+01  0.24957055569E+02 -0.78942699457E+02  0.83160062957E+02  0.00000000000E+00 0. -1.
         -4    1    6    6    0  503 -0.28325201734E+03  0.73695558688E+02 -0.59534281686E+03  0.66339717386E+03  0.00000000000E+00 0.  1.
<mgrwt>
<rscale>  0 0.11076619E+04</rscale>
<asrwt>0</asrwt>
<pdfrwt beam="1">  1        2 0.17427809E+00 0.11076619E+04</pdfrwt>
<pdfrwt beam="2">  1       -2 0.41656710E-01 0.11076619E+04</pdfrwt>
<totfact> 0.11262530E+02</totfact>
</mgrwt>
</event>
<event>
12    2  0.8147979E-008  0.2482347E+04  0.7818608E-02  0.8409302E-01
         -2   -1    0    0    0  501 -0.00000000000E+00  0.00000000000E+00  0.18194106812E+04  0.18194106812E+04  0.00000000000E+00 0. -1.
          2   -1    0    0  501    0  0.00000000000E+00 -0.00000000000E+00 -0.84670897455E+03  0.84670897455E+03  0.00000000000E+00 0.  1.
         23    2    1    2    0    0  0.78579955007E+03 -0.47390383247E+03  0.10259707795E+04  0.13795187127E+04  0.91597287048E+02 0.  0.
        254    2    1    2    0    0 -0.78579955007E+03  0.47390383247E+03 -0.53269072859E+02  0.12866009430E+04  0.90024364324E+03 0.  0.
         23    2    4    4    0    0 -0.29025459506E+03 -0.10191316235E+03  0.30405921008E+03  0.44223294524E+03  0.92108371007E+02 0.  0.
         23    2    4    4    0    0 -0.49554495501E+03  0.57581699483E+03 -0.35732828294E+03  0.84436799780E+03  0.90243004964E+02 0.  0.
          3    1    3    3  502    0  0.46517680542E+03 -0.24810807443E+03  0.53434002453E+03  0.75064394936E+03  0.00000000000E+00 0. -1.
         -3    1    3    3    0  502  0.32062274464E+03 -0.22579575804E+03  0.49163075499E+03  0.62887476336E+03  0.00000000000E+00 0.  1.
         11    1    5    5    0    0 -0.18523197713E+03 -0.10357862489E+03  0.16994976762E+03  0.27188663152E+03  0.00000000000E+00 0. -1.
        -11    1    5    5    0    0 -0.10502261793E+03  0.16654625316E+01  0.13410944246E+03  0.17034631373E+03  0.00000000000E+00 0.  1.
          2    1    6    6  503    0 -0.35501953491E+03  0.46950857038E+03 -0.28312210724E+03  0.65317325071E+03  0.00000000000E+00 0. -1.
         -2    1    6    6    0  503 -0.14052542010E+03  0.10630842444E+03 -0.74206175698E+02  0.19119474709E+03  0.00000000000E+00 0.  1.
<mgrwt>
<rscale>  0 0.24823468E+04</rscale>
<asrwt>0</asrwt>
<pdfrwt beam="1">  1        2 0.13026292E+00 0.24823468E+04</pdfrwt>
<pdfrwt beam="2">  1       -2 0.27990933E+00 0.24823468E+04</pdfrwt>
<totfact> 0.12017288E+00</totfact>
</mgrwt>
</event>
<event>
12    2  0.8147979E-008  0.1878210E+04  0.7818608E-02  0.8665779E-01
          2   -1    0    0  501    0  0.00000000000E+00  0.00000000000E+00  0.23907100147E+04  0.23907100147E+04  0.00000000000E+00 0. -1.
         -2   -1    0    0    0  501 -0.00000000000E+00 -0.00000000000E+00 -0.36889390713E+03  0.36889390713E+03  0.00000000000E+00 0.  1.
         23    2    1    2    0    0  0.37752087557E+03 -0.59806898761E+03  0.99111841442E+03  0.12213640063E+04  0.95946855974E+02 0.  0.
        254    2    1    2    0    0 -0.37752087557E+03  0.59806898761E+03  0.10306976931E+04  0.15382399154E+04  0.89645734836E+03 0.  0.
         23    2    4    4    0    0 -0.65339844373E+03  0.43880832751E+03  0.84440060502E+03  0.11579439521E+04  0.91321081419E+02 0.  0.
         23    2    4    4    0    0  0.27587756816E+03  0.15926066010E+03  0.18629708809E+03  0.38029596333E+03  0.91902253646E+02 0.  0.
          3    1    3    3  502    0  0.22827632266E+03 -0.44380347647E+03  0.69707478113E+03  0.85731257759E+03  0.00000000000E+00 0. -1.
         -3    1    3    3    0  502  0.14924455291E+03 -0.15426551114E+03  0.29404363329E+03  0.36405142876E+03  0.00000000000E+00 0.  1.
         11    1    5    5    0    0 -0.29690205362E+02  0.96697919868E+01  0.13975270856E+02  0.34209960056E+02  0.00000000000E+00 0. -1.
        -11    1    5    5    0    0 -0.62370823836E+03  0.42913853552E+03  0.83042533417E+03  0.11237339921E+04  0.00000000000E+00 0.  1.
          1    1    6    6  503    0 -0.25230936967E+01  0.18084644585E+02  0.18118324334E+02  0.25723414397E+02  0.00000000000E+00 0. -1.
         -1    1    6    6    0  503  0.27840066185E+03  0.14117601552E+03  0.16817876376E+03  0.35457254893E+03  0.00000000000E+00 0.  1.
<mgrwt>
<rscale>  0 0.18782102E+04</rscale>
<asrwt>0</asrwt>
<pdfrwt beam="1">  1        2 0.36780153E+00 0.18782102E+04</pdfrwt>
<pdfrwt beam="2">  1       -2 0.56752910E-01 0.18782102E+04</pdfrwt>
<totfact> 0.11000770E+01</totfact>
</mgrwt>
</event>
<event>
12    2  0.8147979E-008  0.2724551E+04  0.7818608E-02  0.8327083E-01
          2   -1    0    0  501    0  0.00000000000E+00  0.00000000000E+00  0.39809384822E+04  0.39809384822E+04  0.00000000000E+00 0. -1.
         -2   -1    0    0    0  501 -0.00000000000E+00 -0.00000000000E+00 -0.46617027524E+03  0.46617027524E+03  0.00000000000E+00 0.  1.
         23    2    1    2    0    0 -0.40239045967E+03 -0.10976907670E+04  0.20964976820E+04  0.24021861763E+04  0.91393614603E+02 0.  0.
        254    2    1    2    0    0  0.40239045967E+03  0.10976907670E+04  0.14182705249E+04  0.20449225811E+04  0.89631131819E+03 0.  0.
         23    2    4    4    0    0 -0.16856271132E+02  0.59499900982E+03  0.15925121108E+03  0.62288669764E+03  0.91208192118E+02 0.  0.
         23    2    4    4    0    0  0.41924673080E+03  0.50269175716E+03  0.12590193138E+04  0.14220358835E+04  0.92680080906E+02 0.  0.
          1    1    3    3  502    0 -0.30083241160E+03 -0.76743671540E+03  0.15519335415E+04  0.17572583673E+04  0.00000000000E+00 0. -1.
         -1    1    3    3    0  502 -0.10155804807E+03 -0.33025405158E+03  0.54456414052E+03  0.64492780902E+03  0.00000000000E+00 0.  1.
         11    1    5    5    0    0  0.20850504241E+02  0.43290722177E+02  0.25497567828E+01  0.48117890782E+02  0.00000000000E+00 0.  1.
        -11    1    5    5    0    0 -0.37706775374E+02  0.55170828764E+03  0.15670145430E+03  0.57476880686E+03  0.00000000000E+00 0. -1.
          4    1    6    6  503    0  0.67031459759E+02  0.74440989543E+02  0.27306555231E+03  0.29085988616E+03  0.00000000000E+00 0.  1.
         -4    1    6    6    0  503  0.35221527104E+03  0.42825076761E+03  0.98595376149E+03  0.11311759973E+04  0.00000000000E+00 0. -1.
<mgrwt>
<rscale>  0 0.27245515E+04</rscale>
<asrwt>0</asrwt>
<pdfrwt beam="1">  1        2 0.61245205E+00 0.27245515E+04</pdfrwt>
<pdfrwt beam="2">  1       -2 0.71718507E-01 0.27245515E+04</pdfrwt>
<totfact> 0.54771102E-01</totfact>
</mgrwt>
</event>
<event>
12    2  0.8147979E-008  0.2769820E+04  0.7818608E-02  0.8312700E-01
         -1   -1    0    0    0  501 -0.00000000000E+00  0.00000000000E+00  0.95971173096E+03  0.95971173096E+03  0.00000000000E+00 0.  1.
          1   -1    0    0  501    0  0.00000000000E+00 -0.00000000000E+00 -0.19984916848E+04  0.19984916848E+04  0.00000000000E+00 0. -1.
         23    2    1    2    0    0  0.40580254905E+02 -0.12353090680E+04 -0.50438013240E+03  0.13379890526E+04  0.90444106061E+02 0.  0.
        254    2    1    2    0    0 -0.40580254905E+02  0.12353090680E+04 -0.53439982148E+03  0.16202143632E+04  0.90104170999E+03 0.  0.
         23    2    4    4    0    0  0.41979948253E+03  0.54782341644E+03 -0.25108949989E+03  0.74023570257E+03  0.92524900833E+02 0.  0.
         23    2    4    4    0    0 -0.46037973744E+03  0.68748565154E+03 -0.28331032159E+03  0.87997866067E+03  0.97527848332E+02 0.  0.
          1    1    3    3  502    0  0.69183778663E+02 -0.78375504210E+03 -0.31670608995E+03  0.84815158354E+03  0.00000000000E+00 0. -1.
         -1    1    3    3    0  502 -0.28603523758E+02 -0.45155402588E+03 -0.18767404246E+03  0.48983746903E+03  0.00000000000E+00 0.  1.
         11    1    5    5    0    0  0.39031609954E+03  0.53628650072E+03 -0.24907559756E+03  0.70851148312E+03  0.00000000000E+00 0. -1.
        -11    1    5    5    0    0  0.29483382992E+02  0.11536915715E+02 -0.20139023243E+01  0.31724219446E+02  0.00000000000E+00 0.  1.
          1    1    6    6  503    0 -0.40089294990E+03  0.62894328208E+03 -0.27928398552E+03  0.79641970965E+03  0.00000000000E+00 0. -1.
         -1    1    6    6    0  503 -0.59486787539E+02  0.58542369456E+02 -0.40263360761E+01  0.83558951019E+02  0.00000000000E+00 0.  1.
<mgrwt>
<rscale>  0 0.27698201E+04</rscale>
<asrwt>0</asrwt>
<pdfrwt beam="1">  1        1 0.30746026E+00 0.27698201E+04</pdfrwt>
<pdfrwt beam="2">  1       -1 0.14764796E+00 0.27698201E+04</pdfrwt>
<totfact> 0.94376098E-01</totfact>
</mgrwt>
</event>
<event>
12    2  0.8147979E-008  0.1936087E+04  0.7818608E-02  0.8637099E-01
         -1   -1    0    0    0  501 -0.00000000000E+00  0.00000000000E+00  0.27785001183E+03  0.27785001183E+03  0.00000000000E+00 0.  1.
          1   -1    0    0  501    0  0.00000000000E+00 -0.00000000000E+00 -0.33727116392E+04  0.33727116392E+04  0.00000000000E+00 0. -1.
         23    2    1    2    0    0  0.59097154912E+03 -0.26180288167E+03 -0.19512186125E+04  0.20574506983E+04  0.89784081904E+02 0.  0.
        254    2    1    2    0    0 -0.59097154912E+03  0.26180288167E+03 -0.11436430149E+04  0.15931109528E+04  0.90127412123E+03 0.  0.
         23    2    4    4    0    0 -0.44407209732E+03 -0.17511870769E+03 -0.98316494093E+03  0.10966243520E+04  0.90028212199E+02 0.  0.
         23    2    4    4    0    0 -0.14689945181E+03  0.43692158936E+03 -0.16047807398E+03  0.49648660075E+03  0.90916490826E+02 0.  0.
          2    1    3    3  502    0  0.87021337185E+02 -0.26037898988E+02 -0.37758768710E+03  0.38835955860E+03  0.00000000000E+00 0. -1.
         -2    1    3    3    0  502  0.50395021194E+03 -0.23576498268E+03 -0.15736309254E+04  0.16690911397E+04  0.00000000000E+00 0.  1.
         11    1    5    5    0    0 -0.36985127217E+03 -0.16613599250E+03 -0.76183513191E+03  0.86300863248E+03  0.00000000000E+00 0. -1.
        -11    1    5    5    0    0 -0.74220825145E+02 -0.89827151904E+01 -0.22132980902E+03  0.23361571955E+03  0.00000000000E+00 0.  1.
          3    1    6    6  503    0 -0.65786871013E+02  0.20735279923E+03 -0.12369428366E+03  0.25024662147E+03  0.00000000000E+00 0. -1.
         -3    1    6    6    0  503 -0.81112580794E+02  0.22956879013E+03 -0.36783790315E+02  0.24623997928E+03  0.00000000000E+00 0.  1.
<mgrwt>
<rscale>  0 0.19360867E+04</rscale>
<asrwt>0</asrwt>
<pdfrwt beam="1">  1        1 0.51887873E+00 0.19360867E+04</pdfrwt>
<pdfrwt beam="2">  1       -1 0.42746155E-01 0.19360867E+04</pdfrwt>
<totfact> 0.15855004E+00</totfact>
</mgrwt>
</event>
<event>
12    2  0.8147979E-008  0.2397208E+04  0.7818608E-02  0.8440550E-01
         -2   -1    0    0    0  501 -0.00000000000E+00  0.00000000000E+00  0.51424112209E+03  0.51424112209E+03  0.00000000000E+00 0.  1.
          2   -1    0    0  501    0  0.00000000000E+00 -0.00000000000E+00 -0.27937310579E+04  0.27937310579E+04  0.00000000000E+00 0. -1.
         23    2    1    2    0    0 -0.51641331009E+03 -0.56594170400E+03 -0.19232555770E+04  0.20722080729E+04  0.90341373257E+02 0.  0.
        254    2    1    2    0    0  0.51641331009E+03  0.56594170400E+03 -0.35623435876E+03  0.12357641070E+04  0.90179670144E+03 0.  0.
         23    2    4    4    0    0  0.53690051801E+03  0.48414403995E+03 -0.61406501422E+03  0.95283835466E+03  0.90374060149E+02 0.  0.
         23    2    4    4    0    0 -0.20487207919E+02  0.81797664041E+02  0.25783065546E+03  0.28292575238E+03  0.80372575775E+02 0.  0.
          3    1    3    3  502    0 -0.32866737874E+03 -0.34147304572E+03 -0.12991700792E+04  0.13829204538E+04  0.00000000000E+00 0. -1.
         -3    1    3    3    0  502 -0.18774593135E+03 -0.22446865827E+03 -0.62408549776E+03  0.68928761907E+03  0.00000000000E+00 0.  1.
         11    1    5    5    0    0  0.35085878162E+03  0.26362250996E+03 -0.39704199443E+03  0.59181167421E+03  0.00000000000E+00 0. -1.
        -11    1    5    5    0    0  0.18604173640E+03  0.22052152999E+03 -0.21702301979E+03  0.36102668044E+03  0.00000000000E+00 0.  1.
          4    1    6    6  503    0 -0.38827740073E+02  0.11439242922E+02  0.62109299838E+02  0.74135111817E+02  0.00000000000E+00 0. -1.
         -4    1    6    6    0  503  0.18340532154E+02  0.70358421119E+02  0.19572135562E+03  0.20879064057E+03  0.00000000000E+00 0.  1.
<mgrwt>
<rscale>  0 0.23972079E+04</rscale>
<asrwt>0</asrwt>
<pdfrwt beam="1">  1        2 0.42980478E+00 0.23972079E+04</pdfrwt>
<pdfrwt beam="2">  1       -2 0.79114018E-01 0.23972079E+04</pdfrwt>
<totfact> 0.29741685E+00</totfact>
</mgrwt>
</event>
<event>
12    2  0.8147979E-008  0.1161248E+04  0.7818608E-02  0.9147469E-01
         -2   -1    0    0    0  501 -0.00000000000E+00  0.00000000000E+00  0.40297530156E+03  0.40297530156E+03  0.00000000000E+00 0.  1.
          2   -1    0    0  501    0  0.00000000000E+00 -0.00000000000E+00 -0.83658820447E+03  0.83658820447E+03  0.00000000000E+00 0. -1.
         23    2    1    2    0    0  0.10393932527E+03  0.17180986582E+03  0.23759588574E+01  0.22010115832E+03  0.90093625650E+02 0.  0.
        254    2    1    2    0    0 -0.10393932527E+03 -0.17180986582E+03 -0.43598886176E+03  0.10194623477E+04  0.89938600028E+03 0.  0.
         23    2    4    4    0    0 -0.35858731741E+03  0.57922150106E+02  0.89016531203E+02  0.38556083857E+03  0.93773011748E+02 0.  0.
         23    2    4    4    0    0  0.25464799214E+03 -0.22973201592E+03 -0.52500539297E+03  0.63390150914E+03  0.92617825527E+02 0.  0.
          3    1    3    3  502    0  0.82935782424E+02  0.61339974004E+02  0.23221808074E+02  0.10573641183E+03  0.00000000000E+00 0. -1.
         -3    1    3    3    0  502  0.21003542850E+02  0.11046989181E+03 -0.20845849217E+02  0.11436474649E+03  0.00000000000E+00 0.  1.
         11    1    5    5    0    0 -0.12822683745E+03  0.66832286468E+02  0.35887348494E+02  0.14898516080E+03  0.00000000000E+00 0. -1.
        -11    1    5    5    0    0 -0.23036047996E+03 -0.89101363615E+01  0.53129182709E+02  0.23657567777E+03  0.00000000000E+00 0.  1.
          1    1    6    6  503    0  0.12213116785E+03 -0.85793233171E+02 -0.15394093761E+03  0.21441621508E+03  0.00000000000E+00 0. -1.
         -1    1    6    6    0  503  0.13251682428E+03 -0.14393878275E+03 -0.37106445536E+03  0.41948529405E+03  0.00000000000E+00 0.  1.
<mgrwt>
<rscale>  0 0.11612483E+04</rscale>
<asrwt>0</asrwt>
<pdfrwt beam="1">  1        2 0.12870588E+00 0.11612483E+04</pdfrwt>
<pdfrwt beam="2">  1       -2 0.61996200E-01 0.11612483E+04</pdfrwt>
<totfact> 0.77538451E+01</totfact>
</mgrwt>
</event>
<event>
12    2  0.8147979E-008  0.1539180E+04  0.7818608E-02  0.8858809E-01
          2   -1    0    0  501    0  0.00000000000E+00  0.00000000000E+00  0.65608002203E+03  0.65608002203E+03  0.00000000000E+00 0.  1.
         -2   -1    0    0    0  501 -0.00000000000E+00 -0.00000000000E+00 -0.90273852170E+03  0.90273852170E+03  0.00000000000E+00 0. -1.
         23    2    1    2    0    0 -0.32022616873E+03  0.21590393041E+03 -0.40384830048E+03  0.56639037574E+03  0.92440800695E+02 0.  0.
        254    2    1    2    0    0  0.32022616873E+03 -0.21590393041E+03  0.15718980081E+03  0.99242816799E+03  0.90058077307E+03 0.  0.
         23    2    4    4    0    0  0.58754347689E+03 -0.27599993126E+03  0.23069122774E+03  0.69561967777E+03  0.96358674995E+02 0.  0.
         23    2    4    4    0    0 -0.26731730816E+03  0.60096000852E+02 -0.73501426934E+02  0.29680849022E+03  0.87308347505E+02 0.  0.
          2    1    3    3  502    0 -0.17340192776E+03  0.15798490368E+03 -0.28313213624E+03  0.36768364787E+03  0.00000000000E+00 0. -1.
         -2    1    3    3    0  502 -0.14682424097E+03  0.57919026732E+02 -0.12071616424E+03  0.19870672788E+03  0.00000000000E+00 0.  1.
         11    1    5    5    0    0  0.39049990801E+03 -0.22600324556E+03  0.18250806304E+03  0.48669994682E+03  0.00000000000E+00 0. -1.
        -11    1    5    5    0    0  0.19704356888E+03 -0.49996685698E+02  0.48183164698E+02  0.20891973094E+03  0.00000000000E+00 0.  1.
          2    1    6    6  503    0 -0.24997112829E+03  0.53721252514E+02 -0.90968693659E+02  0.27137951503E+03  0.00000000000E+00 0. -1.
         -2    1    6    6    0  503 -0.17346179870E+02  0.63747483373E+01  0.17467266725E+02  0.25428975191E+02  0.00000000000E+00 0.  1.
<mgrwt>
<rscale>  0 0.15391799E+04</rscale>
<asrwt>0</asrwt>
<pdfrwt beam="1">  1        2 0.10093539E+00 0.15391799E+04</pdfrwt>
<pdfrwt beam="2">  1       -2 0.13888285E+00 0.15391799E+04</pdfrwt>
<totfact> 0.15694046E+01</totfact>
</mgrwt>
</event>
<event>
12    2  0.8147979E-008  0.1921984E+04  0.7818608E-02  0.8643990E-01
         -2   -1    0    0    0  501 -0.00000000000E+00  0.00000000000E+00  0.64538142798E+03  0.64538142798E+03  0.00000000000E+00 0. -1.
          2   -1    0    0  501    0  0.00000000000E+00 -0.00000000000E+00 -0.14309450693E+04  0.14309450693E+04  0.00000000000E+00 0.  1.
         23    2    1    2    0    0  0.61672447157E+02 -0.65824416000E+03  0.68477296135E+02  0.67108605043E+03  0.92620095451E+02 0.  0.
        254    2    1    2    0    0 -0.61672447157E+02  0.65824416000E+03 -0.85404093744E+03  0.14052404468E+04  0.89901386289E+03 0.  0.
         23    2    4    4    0    0  0.31622028970E+03  0.58410439473E+03 -0.73003567812E+03  0.99100449274E+03  0.89244595018E+02 0.  0.
         23    2    4    4    0    0 -0.37789273686E+03  0.74139765271E+02 -0.12400525932E+03  0.41423595409E+03  0.88963452905E+02 0.  0.
          4    1    3    3  502    0  0.46665220849E+02 -0.11738360808E+03  0.19332001370E+02  0.12778998614E+03  0.00000000000E+00 0.  1.
         -4    1    3    3    0  502  0.15007226308E+02 -0.54086055193E+03  0.49145294765E+02  0.54329606429E+03  0.00000000000E+00 0. -1.
         11    1    5    5    0    0  0.46452457859E+02  0.15831990660E+03 -0.20549949743E+03  0.26353949820E+03  0.00000000000E+00 0. -1.
        -11    1    5    5    0    0  0.26976783184E+03  0.42578448813E+03 -0.52453618069E+03  0.72746499455E+03  0.00000000000E+00 0.  1.
          3    1    6    6  503    0 -0.22481496836E+03 -0.84929799230E-01 -0.62577948923E+02  0.23336190114E+03  0.00000000000E+00 0. -1.
         -3    1    6    6    0  503 -0.15307776850E+03  0.74224695070E+02 -0.61427310395E+02  0.18087405295E+03  0.00000000000E+00 0.  1.
<mgrwt>
<rscale>  0 0.19219837E+04</rscale>
<asrwt>0</asrwt>
<pdfrwt beam="1">  1        2 0.22014539E+00 0.19219837E+04</pdfrwt>
<pdfrwt beam="2">  1       -2 0.99289452E-01 0.19219837E+04</pdfrwt>
<totfact> 0.10912905E+01</totfact>
</mgrwt>
</event>
<event>
12    2  0.8147979E-008  0.2699803E+04  0.7818608E-02  0.8335069E-01
         -2   -1    0    0    0  501 -0.00000000000E+00  0.00000000000E+00  0.15069266754E+04  0.15069266754E+04  0.00000000000E+00 0. -1.
          2   -1    0    0  501    0  0.00000000000E+00 -0.00000000000E+00 -0.12092386848E+04  0.12092386848E+04  0.00000000000E+00 0.  1.
         23    2    1    2    0    0  0.66059420566E+03  0.96715682293E+03 -0.11910561474E+03  0.11808215850E+04  0.91522911900E+02 0.  0.
        254    2    1    2    0    0 -0.66059420566E+03 -0.96715682293E+03  0.41679360539E+03  0.15353437752E+04  0.90099199429E+03 0.  0.
         23    2    4    4    0    0 -0.80945180419E+03 -0.71842094314E+03  0.53299631422E+03  0.12099127051E+04  0.91993522094E+02 0.  0.
         23    2    4    4    0    0  0.14885759853E+03 -0.24873587980E+03 -0.11620270883E+03  0.32543107009E+03  0.91510596668E+02 0.  0.
          3    1    3    3  502    0  0.12642685997E+03  0.12803217015E+03 -0.24995325853E+02  0.18166109608E+03  0.00000000000E+00 0. -1.
         -3    1    3    3    0  502  0.53416734569E+03  0.83912465278E+03 -0.94110288885E+02  0.99916048890E+03  0.00000000000E+00 0.  1.
         11    1    5    5    0    0 -0.12419953968E+03 -0.14464997243E+03  0.12071008758E+03  0.22565474828E+03  0.00000000000E+00 0. -1.
        -11    1    5    5    0    0 -0.68525226451E+03 -0.57377097071E+03  0.41228622664E+03  0.98425795680E+03  0.00000000000E+00 0.  1.
          3    1    6    6  503    0  0.18151741521E+02 -0.11017501381E+03 -0.60372161781E+02  0.12693627262E+03  0.00000000000E+00 0. -1.
         -3    1    6    6    0  503  0.13070585701E+03 -0.13856086599E+03 -0.55830547046E+02  0.19849479747E+03  0.00000000000E+00 0.  1.
<mgrwt>
<rscale>  0 0.26998030E+04</rscale>
<asrwt>0</asrwt>
<pdfrwt beam="1">  1        2 0.18603672E+00 0.26998030E+04</pdfrwt>
<pdfrwt beam="2">  1       -2 0.23183487E+00 0.26998030E+04</pdfrwt>
<totfact> 0.13661569E+00</totfact>
</mgrwt>
</event>
<event>
12    2  0.8147979E-008  0.1241121E+04  0.7818608E-02  0.9077606E-01
         -1   -1    0    0    0  501 -0.00000000000E+00  0.00000000000E+00  0.36234759477E+03  0.36234759477E+03  0.00000000000E+00 0.  1.
          1   -1    0    0  501    0  0.00000000000E+00 -0.00000000000E+00 -0.10627792466E+04  0.10627792466E+04  0.00000000000E+00 0. -1.
         23    2    1    2    0    0 -0.19366361560E+03 -0.19842300192E+03 -0.21631616719E+03  0.36723001910E+03  0.10577295988E+03 0.  0.
        254    2    1    2    0    0  0.19366361560E+03  0.19842300192E+03 -0.48411548460E+03  0.10578968222E+04  0.89883291015E+03 0.  0.
         23    2    4    4    0    0  0.53590889238E+03  0.33067203647E+02 -0.23530280832E+03  0.59452459666E+03  0.98996482432E+02 0.  0.
         23    2    4    4    0    0 -0.34224527678E+03  0.16535579827E+03 -0.24881267627E+03  0.46337222558E+03  0.91278157648E+02 0.  0.
          4    1    3    3  502    0 -0.55560474653E+02 -0.39007207978E+02 -0.11429339079E+03  0.13293422357E+03  0.00000000000E+00 0. -1.
         -4    1    3    3    0  502 -0.13810314095E+03 -0.15941579394E+03 -0.10202277640E+03  0.23429579553E+03  0.00000000000E+00 0.  1.
         11    1    5    5    0    0  0.15419869129E+03 -0.77947726355E+01 -0.23779918699E+02  0.15621613044E+03  0.00000000000E+00 0.  1.
        -11    1    5    5    0    0  0.38171020109E+03  0.40861976282E+02 -0.21152288962E+03  0.43830846622E+03  0.00000000000E+00 0. -1.
          3    1    6    6  503    0 -0.51401020029E+01  0.21271089653E+02 -0.32520907391E+01  0.22123652452E+02  0.00000000000E+00 0.  1.
         -3    1    6    6    0  503 -0.33710517478E+03  0.14408470862E+03 -0.24556058553E+03  0.44124857313E+03  0.00000000000E+00 0. -1.
<mgrwt>
<rscale>  0 0.12411213E+04</rscale>
<asrwt>0</asrwt>
<pdfrwt beam="1">  1        1 0.16350450E+00 0.12411213E+04</pdfrwt>
<pdfrwt beam="2">  1       -1 0.55745784E-01 0.12411213E+04</pdfrwt>
<totfact> 0.43451652E+01</totfact>
</mgrwt>
</event>
<event>
12    2  0.8147979E-008  0.2616056E+04  0.7818608E-02  0.8362768E-01
          2   -1    0    0  501    0  0.00000000000E+00  0.00000000000E+00  0.31830298217E+04  0.31830298217E+04  0.00000000000E+00 0. -1.
         -2   -1    0    0    0  501 -0.00000000000E+00 -0.00000000000E+00 -0.53751846552E+03  0.53751846552E+03  0.00000000000E+00 0.  1.
         23    2    1    2    0    0 -0.53798262208E+03  0.55369477591E+03  0.23790676044E+04  0.25028918065E+04  0.92203698285E+02 0.  0.
        254    2    1    2    0    0  0.53798262208E+03 -0.55369477591E+03  0.26644375179E+03  0.12176564808E+04  0.90315658985E+03 0.  0.
         23    2    4    4    0    0 -0.76699248721E+02 -0.55557899664E+03  0.14458548929E+03  0.58516512261E+03  0.83441361097E+02 0.  0.
         23    2    4    4    0    0  0.61468187080E+03  0.18842207285E+01  0.12185826250E+03  0.63249135817E+03  0.85781871299E+02 0.  0.
          1    1    3    3  502    0 -0.41916811271E+03  0.42168972632E+03  0.16997871910E+04  0.18007777838E+04  0.00000000000E+00 0. -1.
         -1    1    3    3    0  502 -0.11881450937E+03  0.13200504959E+03  0.67928041346E+03  0.70211402269E+03  0.00000000000E+00 0.  1.
         11    1    5    5    0    0 -0.15945689912E+01 -0.19218999248E+03  0.17735759668E+02  0.19301319393E+03  0.00000000000E+00 0. -1.
        -11    1    5    5    0    0 -0.75104679729E+02 -0.36338900417E+03  0.12684972962E+03  0.39215192868E+03  0.00000000000E+00 0.  1.
          4    1    6    6  503    0  0.55993541953E+02  0.21912724932E+02  0.24985226730E+02  0.65113023345E+02  0.00000000000E+00 0. -1.
         -4    1    6    6    0  503  0.55868832885E+03 -0.20028504204E+02  0.96873035771E+02  0.56737833483E+03  0.00000000000E+00 0.  1.
<mgrwt>
<rscale>  0 0.26160560E+04</rscale>
<asrwt>0</asrwt>
<pdfrwt beam="1">  1        2 0.48969688E+00 0.26160560E+04</pdfrwt>
<pdfrwt beam="2">  1       -2 0.82695150E-01 0.26160560E+04</pdfrwt>
<totfact> 0.15072855E+00</totfact>
</mgrwt>
</event>
<event>
12    2  0.8147979E-008  0.3251450E+04  0.7818608E-02  0.8175360E-01
         -2   -1    0    0    0  501 -0.00000000000E+00  0.00000000000E+00  0.14865163565E+04  0.14865163565E+04  0.00000000000E+00 0.  1.
          2   -1    0    0  501    0  0.00000000000E+00 -0.00000000000E+00 -0.17779703736E+04  0.17779703736E+04  0.00000000000E+00 0. -1.
         23    2    1    2    0    0 -0.17733171100E+02  0.14019327817E+04  0.39984197619E+03  0.14610231681E+04  0.94789777995E+02 0.  0.
        254    2    1    2    0    0  0.17733171100E+02 -0.14019327817E+04 -0.69129599334E+03  0.18034635620E+04  0.89936682128E+03 0.  0.
         23    2    4    4    0    0  0.42371250416E+03 -0.98779303229E+03 -0.43978863119E+03  0.11650280837E+04  0.92784884669E+02 0.  0.
         23    2    4    4    0    0 -0.40597933306E+03 -0.41413974944E+03 -0.25150736216E+03  0.63843547832E+03  0.89515115071E+02 0.  0.
          3    1    3    3  502    0 -0.32607313377E+02  0.11127620588E+04  0.28194578734E+03  0.11483884636E+04  0.00000000000E+00 0. -1.
         -3    1    3    3    0  502  0.14874142277E+02  0.28917072293E+03  0.11789618885E+03  0.31263470450E+03  0.00000000000E+00 0.  1.
         11    1    5    5    0    0  0.91752600610E+02 -0.32278448950E+03 -0.13629521846E+03  0.36219435798E+03  0.00000000000E+00 0. -1.
        -11    1    5    5    0    0  0.33195990355E+03 -0.66500854279E+03 -0.30349341273E+03  0.80283372570E+03  0.00000000000E+00 0.  1.
          3    1    6    6  503    0 -0.23087007724E+03 -0.18483683329E+03 -0.97608487088E+02  0.31143709519E+03  0.00000000000E+00 0. -1.
         -3    1    6    6    0  503 -0.17510925582E+03 -0.22930291615E+03 -0.15389887507E+03  0.32699838314E+03  0.00000000000E+00 0.  1.
<mgrwt>
<rscale>  0 0.32514502E+04</rscale>
<asrwt>0</asrwt>
<pdfrwt beam="1">  1        2 0.27353390E+00 0.32514502E+04</pdfrwt>
<pdfrwt beam="2">  1       -2 0.22869483E+00 0.32514502E+04</pdfrwt>
<totfact> 0.64843660E-01</totfact>
</mgrwt>
</event>
<event>
12    2  0.8147979E-008  0.4632319E+04  0.7818608E-02  0.7887872E-01
         -2   -1    0    0    0  501 -0.00000000000E+00  0.00000000000E+00  0.27629505079E+04  0.27629505079E+04  0.00000000000E+00 0. -1.
          2   -1    0    0  501    0  0.00000000000E+00 -0.00000000000E+00 -0.19416185200E+04  0.19416185200E+04  0.00000000000E+00 0.  1.
         23    2    1    2    0    0 -0.20241796995E+04 -0.10690028956E+02  0.13404725075E+04  0.24295295501E+04  0.91266417531E+02 0.  0.
        254    2    1    2    0    0  0.20241796995E+04  0.10690028956E+02 -0.51914051963E+03  0.22750394779E+04  0.89937757047E+03 0.  0.
         23    2    4    4    0    0  0.17609330622E+03  0.18145931917E+03  0.14044907252E+03  0.30334775343E+03  0.91419803825E+02 0.  0.
         23    2    4    4    0    0  0.18480863932E+04 -0.17076929022E+03 -0.65958959214E+03  0.19716917244E+04  0.89018867311E+02 0.  0.
          1    1    3    3  502    0 -0.95288435175E+03 -0.47910822519E+02  0.61280615915E+03  0.11339380157E+04  0.00000000000E+00 0. -1.
         -1    1    3    3    0  502 -0.10712953477E+04  0.37220793563E+02  0.72766634833E+03  0.12955915344E+04  0.00000000000E+00 0.  1.
         11    1    5    5    0    0  0.90197332774E+02  0.15432496496E+03  0.90764881745E+02  0.20047448069E+03  0.00000000000E+00 0. -1.
        -11    1    5    5    0    0  0.85895973447E+02  0.27134354220E+02  0.49684190775E+02  0.10287327275E+03  0.00000000000E+00 0.  1.
          1    1    6    6  503    0  0.17160578751E+04 -0.14044075609E+03 -0.62657716053E+03  0.18322601274E+04  0.00000000000E+00 0. -1.
         -1    1    6    6    0  503  0.13202851817E+03 -0.30328534131E+02 -0.33012431620E+02  0.13943159697E+03  0.00000000000E+00 0.  1.
<mgrwt>
<rscale>  0 0.46323195E+04</rscale>
<asrwt>0</asrwt>
<pdfrwt beam="1">  1        2 0.29871054E+00 0.46323195E+04</pdfrwt>
<pdfrwt beam="2">  1       -2 0.42506931E+00 0.46323195E+04</pdfrwt>
<totfact> 0.27418321E-02</totfact>
</mgrwt>
</event>
<event>
12    2  0.8147979E-008  0.1479786E+04  0.7818608E-02  0.8898008E-01
          1   -1    0    0  501    0  0.00000000000E+00  0.00000000000E+00  0.44083159898E+04  0.44083159898E+04  0.00000000000E+00 0. -1.
         -1   -1    0    0    0  501 -0.00000000000E+00 -0.00000000000E+00 -0.12418381195E+03  0.12418381195E+03  0.00000000000E+00 0.  1.
         23    2    1    2    0    0  0.12190171064E+03 -0.37349414046E+03  0.20960129979E+04  0.21344933380E+04  0.91833669311E+02 0.  0.
        254    2    1    2    0    0 -0.12190171064E+03  0.37349414046E+03  0.21881191800E+04  0.23980064638E+04  0.89900586997E+03 0.  0.
         23    2    4    4    0    0 -0.63097416441E+02  0.42214849504E+03  0.22294249335E+04  0.22716955286E+04  0.89857690433E+02 0.  0.
         23    2    4    4    0    0 -0.58804294200E+02 -0.48654354578E+02 -0.41305753500E+02  0.12631093518E+03  0.91777425537E+02 0.  0.
          2    1    3    3  502    0  0.31812215698E+02 -0.24060878905E+03  0.12962988954E+04  0.13188235032E+04  0.00000000000E+00 0.  1.
         -2    1    3    3    0  502  0.90089494943E+02 -0.13288535141E+03  0.79971410249E+03  0.81566983482E+03  0.00000000000E+00 0. -1.
         11    1    5    5    0    0 -0.66808107499E+02  0.22121112696E+03  0.13467247531E+04  0.13664059596E+04  0.00000000000E+00 0.  1.
        -11    1    5    5    0    0  0.37106910586E+01  0.20093736808E+03  0.88270018045E+03  0.90528956897E+03  0.00000000000E+00 0. -1.
          4    1    6    6  503    0 -0.76466240740E+02 -0.59957136227E+02 -0.26747819990E+02  0.10078387784E+03  0.00000000000E+00 0. -1.
         -4    1    6    6    0  503  0.17661946539E+02  0.11302781650E+02 -0.14557933511E+02  0.25527057345E+02  0.00000000000E+00 0.  1.
<mgrwt>
<rscale>  0 0.14797858E+04</rscale>
<asrwt>0</asrwt>
<pdfrwt beam="1">  1        1 0.67820234E+00 0.14797858E+04</pdfrwt>
<pdfrwt beam="2">  1       -1 0.19105205E-01 0.14797858E+04</pdfrwt>
<totfact> 0.87816882E-01</totfact>
</mgrwt>
</event>
<event>
12    2  0.8147979E-008  0.1429222E+04  0.7818608E-02  0.8932933E-01
          2   -1    0    0  501    0  0.00000000000E+00  0.00000000000E+00  0.27622581821E+04  0.27622581821E+04  0.00000000000E+00 0.  1.
         -2   -1    0    0    0  501 -0.00000000000E+00 -0.00000000000E+00 -0.18487379402E+03  0.18487379402E+03  0.00000000000E+00 0. -1.
         23    2    1    2    0    0 -0.17156147628E+03  0.30871647702E+02 -0.14988021317E+02  0.19722978839E+03  0.91041473353E+02 0.  0.
        254    2    1    2    0    0  0.17156147628E+03 -0.30871647702E+02  0.25923724094E+04  0.27499021877E+04  0.90065583564E+03 0.  0.
         23    2    4    4    0    0  0.14010206110E+03 -0.31798814575E+03  0.40284157661E+03  0.53947536988E+03  0.89483464978E+02 0.  0.
         23    2    4    4    0    0  0.31459415177E+02  0.28711649804E+03  0.21895308328E+04  0.22104268179E+04  0.92281477234E+02 0.  0.
          1    1    3    3  502    0 -0.10907047025E+03  0.62776804120E+02 -0.17283990796E+02  0.12702767790E+03  0.00000000000E+00 0. -1.
         -1    1    3    3    0  502 -0.62491006030E+02 -0.31905156419E+02  0.22959694785E+01  0.70202110485E+02  0.00000000000E+00 0.  1.
         11    1    5    5    0    0  0.45078854553E+02 -0.15666841038E+03  0.24662788366E+03  0.29563898074E+03  0.00000000000E+00 0. -1.
        -11    1    5    5    0    0  0.95023206549E+02 -0.16131973537E+03  0.15621369295E+03  0.24383638914E+03  0.00000000000E+00 0.  1.
          4    1    6    6  503    0 -0.17012727549E+02  0.11876928282E+03  0.11494938786E+04  0.11557386177E+04  0.00000000000E+00 0.  1.
         -4    1    6    6    0  503  0.48472142727E+02  0.16834721522E+03  0.10400369542E+04  0.10546882002E+04  0.00000000000E+00 0. -1.
<mgrwt>
<rscale>  0 0.14292224E+04</rscale>
<asrwt>0</asrwt>
<pdfrwt beam="1">  1        2 0.42496277E+00 0.14292224E+04</pdfrwt>
<pdfrwt beam="2">  1       -2 0.28442124E-01 0.14292224E+04</pdfrwt>
<totfact> 0.26959586E+01</totfact>
</mgrwt>
</event>
<event>
12    2  0.8147979E-008  0.1773095E+04  0.7818608E-02  0.8720740E-01
          2   -1    0    0  501    0  0.00000000000E+00  0.00000000000E+00  0.96332999378E+03  0.96332999378E+03  0.00000000000E+00 0. -1.
         -2   -1    0    0    0  501 -0.00000000000E+00 -0.00000000000E+00 -0.81588460520E+03  0.81588460520E+03  0.00000000000E+00 0.  1.
         23    2    1    2    0    0  0.62393168887E+03 -0.76981450001E+02  0.23845099266E+03  0.67859435357E+03  0.91730718806E+02 0.  0.
        254    2    1    2    0    0 -0.62393168887E+03  0.76981450001E+02 -0.91005604074E+02  0.11006202454E+04  0.89881366735E+03 0.  0.
         23    2    4    4    0    0 -0.78076453501E+03  0.22335775050E+02 -0.27732551146E+03  0.83507640118E+03  0.10173991606E+03 0.  0.
         23    2    4    4    0    0  0.15683284614E+03  0.54645674952E+02  0.18631990739E+03  0.26554384423E+03  0.90640685691E+02 0.  0.
          2    1    3    3  502    0  0.61102456893E+03 -0.62137401816E+02  0.22238924888E+03  0.65319909565E+03  0.00000000000E+00 0. -1.
         -2    1    3    3    0  502  0.12907119949E+02 -0.14844048186E+02  0.16061743777E+02  0.25395257925E+02  0.00000000000E+00 0.  1.
         11    1    5    5    0    0 -0.17681267676E+03  0.41887166923E+02 -0.41248310215E+02  0.18632949447E+03  0.00000000000E+00 0.  1.
        -11    1    5    5    0    0 -0.60395185826E+03 -0.19551391874E+02 -0.23607720124E+03  0.64874690671E+03  0.00000000000E+00 0. -1.
          2    1    6    6  503    0  0.12762245368E+03  0.79846676553E+02  0.15144213705E+03  0.21353618736E+03  0.00000000000E+00 0. -1.
         -2    1    6    6    0  503  0.29210392461E+02 -0.25201001602E+02  0.34877770339E+02  0.52007656872E+02  0.00000000000E+00 0.  1.
<mgrwt>
<rscale>  0 0.17730946E+04</rscale>
<asrwt>0</asrwt>
<pdfrwt beam="1">  1        2 0.14820461E+00 0.17730946E+04</pdfrwt>
<pdfrwt beam="2">  1       -2 0.12552071E+00 0.17730946E+04</pdfrwt>
<totfact> 0.11944735E+01</totfact>
</mgrwt>
</event>
<event>
12    2  0.8147979E-008  0.2696994E+04  0.7818608E-02  0.8335981E-01
         -2   -1    0    0    0  501 -0.00000000000E+00  0.00000000000E+00  0.10120891833E+04  0.10120891833E+04  0.00000000000E+00 0.  1.
          2   -1    0    0  501    0  0.00000000000E+00 -0.00000000000E+00 -0.17967230392E+04  0.17967230392E+04  0.00000000000E+00 0. -1.
         23    2    1    2    0    0  0.89598666551E+03  0.44215350060E+03 -0.10339543075E+04  0.14406726935E+04  0.90468099298E+02 0.  0.
        254    2    1    2    0    0 -0.89598666551E+03 -0.44215350060E+03  0.24932045162E+03  0.13681395289E+04  0.90075149744E+03 0.  0.
         23    2    4    4    0    0 -0.88370652962E+03 -0.55209023374E+03 -0.38295637901E+02  0.10468923325E+04  0.93681072347E+02 0.  0.
         23    2    4    4    0    0 -0.12280135891E+02  0.10993673314E+03  0.28761608953E+03  0.32124719641E+03  0.90773670280E+02 0.  0.
          1    1    3    3  502    0  0.66596035338E+02  0.83332277123E+01 -0.74888314699E+02  0.10056209169E+03  0.00000000000E+00 0. -1.
         -1    1    3    3    0  502  0.82939063018E+03  0.43382027289E+03 -0.95906599279E+03  0.13401106018E+04  0.00000000000E+00 0.  1.
         11    1    5    5    0    0 -0.73588981133E+03 -0.45215579380E+03  0.31820599592E+01  0.86370643265E+03  0.00000000000E+00 0. -1.
        -11    1    5    5    0    0 -0.14781671829E+03 -0.99934439938E+02 -0.41477697860E+02  0.18318589987E+03  0.00000000000E+00 0.  1.
          4    1    6    6  503    0 -0.51271517913E+02  0.54759172270E+02  0.16489829471E+03  0.18115955149E+03  0.00000000000E+00 0.  1.
         -4    1    6    6    0  503  0.38991382023E+02  0.55177560867E+02  0.12271779482E+03  0.14008764492E+03  0.00000000000E+00 0. -1.
<mgrwt>
<rscale>  0 0.26969938E+04</rscale>
<asrwt>0</asrwt>
<pdfrwt beam="1">  1        2 0.27641893E+00 0.26969938E+04</pdfrwt>
<pdfrwt beam="2">  1       -2 0.15570603E+00 0.26969938E+04</pdfrwt>
<totfact> 0.20622812E+00</totfact>
</mgrwt>
</event>
<event>
12    2  0.8147979E-008  0.3823074E+04  0.7818608E-02  0.8041221E-01
         -1   -1    0    0    0  501 -0.00000000000E+00  0.00000000000E+00  0.21450707757E+04  0.21450707757E+04  0.00000000000E+00 0.  1.
          1   -1    0    0  501    0  0.00000000000E+00 -0.00000000000E+00 -0.17034284765E+04  0.17034284765E+04  0.00000000000E+00 0. -1.
         23    2    1    2    0    0 -0.91939876240E+03  0.14733673642E+04 -0.28144359938E+03  0.17617068837E+04  0.91077825172E+02 0.  0.
        254    2    1    2    0    0  0.91939876240E+03 -0.14733673642E+04  0.72308589862E+03  0.20867923685E+04  0.90318530655E+03 0.  0.
         23    2    4    4    0    0  0.57990542772E+03 -0.56008843835E+03 -0.87878295324E+02  0.81568690789E+03  0.87368032170E+02 0.  0.
         23    2    4    4    0    0  0.33949333468E+03 -0.91327892589E+03  0.81096419395E+03  0.12711054606E+04  0.93338348244E+02 0.  0.
          2    1    3    3  502    0 -0.22245689309E+03  0.31427869672E+03 -0.93433700295E+02  0.39621714355E+03  0.00000000000E+00 0. -1.
         -2    1    3    3    0  502 -0.69694186931E+03  0.11590886675E+04 -0.18800989909E+03  0.13654897402E+04  0.00000000000E+00 0.  1.
         11    1    5    5    0    0  0.49083445669E+03 -0.43317725178E+03 -0.53173201832E+02  0.65680163270E+03  0.00000000000E+00 0.  1.
        -11    1    5    5    0    0  0.89070971037E+02 -0.12691118657E+03 -0.34705093492E+02  0.15888527519E+03  0.00000000000E+00 0. -1.
          1    1    6    6  503    0  0.41413768758E+02 -0.21365997827E+03  0.20060891687E+03  0.29598922968E+03  0.00000000000E+00 0. -1.
         -1    1    6    6    0  503  0.29807956592E+03 -0.69961894761E+03  0.61035527707E+03  0.97511623088E+03  0.00000000000E+00 0.  1.
<mgrwt>
<rscale>  0 0.38230745E+04</rscale>
<asrwt>0</asrwt>
<pdfrwt beam="1">  1        1 0.26206592E+00 0.38230745E+04</pdfrwt>
<pdfrwt beam="2">  1       -1 0.33001089E+00 0.38230745E+04</pdfrwt>
<totfact> 0.79214992E-02</totfact>
</mgrwt>
</event>
<event>
12    2  0.8147979E-008  0.1906259E+04  0.7818608E-02  0.8651747E-01
          1   -1    0    0  501    0  0.00000000000E+00  0.00000000000E+00  0.83061400118E+03  0.83061400118E+03  0.00000000000E+00 0. -1.
         -1   -1    0    0    0  501 -0.00000000000E+00 -0.00000000000E+00 -0.10937165951E+04  0.10937165951E+04  0.00000000000E+00 0.  1.
         23    2    1    2    0    0  0.58997519649E+03  0.37695848748E+03  0.13225296924E+03  0.71807977838E+03  0.89326851979E+02 0.  0.
        254    2    1    2    0    0 -0.58997519649E+03 -0.37695848748E+03 -0.39535556315E+03  0.12062508179E+04  0.89920330327E+03 0.  0.
         23    2    4    4    0    0  0.99837250311E+02 -0.12318762242E+03  0.18868308157E+03  0.26312514344E+03  0.92145911307E+02 0.  0.
         23    2    4    4    0    0 -0.68981244680E+03 -0.25377086507E+03 -0.58403864472E+03  0.94312567446E+03  0.90244310556E+02 0.  0.
          1    1    3    3  502    0  0.34832082605E+03  0.24723097081E+03  0.11934851375E+03  0.44350267025E+03  0.00000000000E+00 0. -1.
         -1    1    3    3    0  502  0.24165437044E+03  0.12972751668E+03  0.12904455489E+02  0.27457710813E+03  0.00000000000E+00 0.  1.
         11    1    5    5    0    0  0.21209999073E+02 -0.15949517930E+02  0.99585254871E+02  0.10306053644E+03  0.00000000000E+00 0.  1.
        -11    1    5    5    0    0  0.78627251238E+02 -0.10723810449E+03  0.89097826702E+02  0.16006460700E+03  0.00000000000E+00 0. -1.
          1    1    6    6  503    0 -0.33910870593E+02  0.33233355410E+01 -0.13758751322E+02  0.36746359567E+02  0.00000000000E+00 0. -1.
         -1    1    6    6    0  503 -0.65590157620E+03 -0.25709420061E+03 -0.57027989340E+03  0.90637931489E+03  0.00000000000E+00 0.  1.
<mgrwt>
<rscale>  0 0.19062595E+04</rscale>
<asrwt>0</asrwt>
<pdfrwt beam="1">  1        1 0.12778677E+00 0.19062595E+04</pdfrwt>
<pdfrwt beam="2">  1       -1 0.16826409E+00 0.19062595E+04</pdfrwt>
<totfact> 0.49298747E+00</totfact>
</mgrwt>
</event>
<event>
12    2  0.8147979E-008  0.2149586E+04  0.7818608E-02  0.8539710E-01
          2   -1    0    0  501    0  0.00000000000E+00  0.00000000000E+00  0.24654073047E+04  0.24654073047E+04  0.00000000000E+00 0.  1.
         -2   -1    0    0    0  501 -0.00000000000E+00 -0.00000000000E+00 -0.46855524593E+03  0.46855524593E+03  0.00000000000E+00 0. -1.
         23    2    1    2    0    0  0.36113708429E+03  0.63887176025E+03  0.14940941394E+04  0.16674019044E+04  0.96616217655E+02 0.  0.
        254    2    1    2    0    0 -0.36113708429E+03 -0.63887176025E+03  0.50275791936E+03  0.12665606463E+04  0.90157264019E+03 0.  0.
         23    2    4    4    0    0 -0.16601295900E+03  0.18048707267E+03  0.29516302155E+03  0.39428107888E+03  0.90556468071E+02 0.  0.
         23    2    4    4    0    0 -0.19512412529E+03 -0.81935883292E+03  0.20759489781E+03  0.87227956741E+03  0.91398472460E+02 0.  0.
          4    1    3    3  502    0  0.25443895066E+03  0.39174051103E+03  0.86328379288E+03  0.98155932813E+03  0.00000000000E+00 0. -1.
         -4    1    3    3    0  502  0.10669813363E+03  0.24713124921E+03  0.63081034656E+03  0.68584257625E+03  0.00000000000E+00 0.  1.
         11    1    5    5    0    0 -0.12407834380E+03  0.93706903097E+02  0.12831764935E+03  0.20159820987E+03  0.00000000000E+00 0.  1.
        -11    1    5    5    0    0 -0.41934615207E+02  0.86780169576E+02  0.16684537220E+03  0.19268286901E+03  0.00000000000E+00 0. -1.
          4    1    6    6  503    0 -0.18893886573E+03 -0.62916115535E+03  0.16079288114E+03  0.67631058324E+03  0.00000000000E+00 0. -1.
         -4    1    6    6    0  503 -0.61852595518E+01 -0.19019767757E+03  0.46802016664E+02  0.19596898416E+03  0.00000000000E+00 0.  1.
<mgrwt>
<rscale>  0 0.21495856E+04</rscale>
<asrwt>0</asrwt>
<pdfrwt beam="1">  1        2 0.37929342E+00 0.21495856E+04</pdfrwt>
<pdfrwt beam="2">  1       -2 0.72085424E-01 0.21495856E+04</pdfrwt>
<totfact> 0.58326157E+00</totfact>
</mgrwt>
</event>
<event>
12    2  0.8147979E-008  0.1216946E+04  0.7818608E-02  0.9098152E-01
         -1   -1    0    0    0  501 -0.00000000000E+00  0.00000000000E+00  0.19033682877E+03  0.19033682877E+03  0.00000000000E+00 0.  1.
          1   -1    0    0  501    0  0.00000000000E+00 -0.00000000000E+00 -0.19451786517E+04  0.19451786517E+04  0.00000000000E+00 0. -1.
         23    2    1    2    0    0 -0.13076215864E+03  0.67335972402E+02 -0.79096493714E+03  0.80972521989E+03  0.91632552268E+02 0.  0.
        254    2    1    2    0    0  0.13076215864E+03 -0.67335972402E+02 -0.96387688578E+03  0.13257902606E+04  0.89834753229E+03 0.  0.
         23    2    4    4    0    0  0.80220806727E+02 -0.43231534152E+03 -0.24142888497E+03  0.50977984882E+03  0.90860637357E+02 0.  0.
         23    2    4    4    0    0  0.50541351913E+02  0.36497936912E+03 -0.72244800081E+03  0.81601041175E+03  0.90429586324E+02 0.  0.
          1    1    3    3  502    0 -0.77501974529E+02  0.25827802738E+02 -0.62849367981E+03  0.63378066948E+03  0.00000000000E+00 0. -1.
         -1    1    3    3    0  502 -0.53260184111E+02  0.41508169663E+02 -0.16247125732E+03  0.17594455040E+03  0.00000000000E+00 0.  1.
         11    1    5    5    0    0  0.89940314756E+02 -0.42917761906E+03 -0.23313633175E+03  0.49662383964E+03  0.00000000000E+00 0.  1.
        -11    1    5    5    0    0 -0.97195080291E+01 -0.31377224595E+01 -0.82925532224E+01  0.13156009179E+02  0.00000000000E+00 0. -1.
          2    1    6    6  503    0  0.61771474971E+02  0.12793833255E+03 -0.27457377141E+03  0.30915156154E+03  0.00000000000E+00 0. -1.
         -2    1    6    6    0  503 -0.11230123057E+02  0.23704103657E+03 -0.44787422940E+03  0.50685885021E+03  0.00000000000E+00 0.  1.
<mgrwt>
<rscale>  0 0.12169456E+04</rscale>
<asrwt>0</asrwt>
<pdfrwt beam="1">  1        1 0.29925825E+00 0.12169456E+04</pdfrwt>
<pdfrwt beam="2">  1       -1 0.29282590E-01 0.12169456E+04</pdfrwt>
<totfact> 0.34218034E+01</totfact>
</mgrwt>
</event>
<event>
12    2  0.8147979E-008  0.1455401E+04  0.7818608E-02  0.8914665E-01
          1   -1    0    0  501    0  0.00000000000E+00  0.00000000000E+00  0.17508402506E+04  0.17508402506E+04  0.00000000000E+00 0. -1.
         -1   -1    0    0    0  501 -0.00000000000E+00 -0.00000000000E+00 -0.30245373198E+03  0.30245373198E+03  0.00000000000E+00 0.  1.
         23    2    1    2    0    0  0.15100393651E+03 -0.30914560721E+03  0.83820982364E+03  0.91069377902E+03  0.91620169164E+02 0.  0.
        254    2    1    2    0    0 -0.15100393651E+03  0.30914560721E+03  0.61017669500E+03  0.11426002036E+04  0.90268844614E+03 0.  0.
         23    2    4    4    0    0  0.91644330741E+01 -0.96211387014E+02 -0.18579829474E+03  0.23047753953E+03  0.96219915163E+02 0.  0.
         23    2    4    4    0    0 -0.16016836958E+03  0.40535699423E+03  0.79597498975E+03  0.91212266405E+03  0.91778922315E+02 0.  0.
          4    1    3    3  502    0  0.56112739961E+02 -0.97899644917E+02  0.39269209383E+03  0.40858299110E+03  0.00000000000E+00 0. -1.
         -4    1    3    3    0  502  0.94891196547E+02 -0.21124596230E+03  0.44551772982E+03  0.50211078793E+03  0.00000000000E+00 0.  1.
         11    1    5    5    0    0 -0.62829999791E-01  0.11277382790E+02  0.41607722148E+01  0.12020621267E+02  0.00000000000E+00 0. -1.
        -11    1    5    5    0    0  0.92272630739E+01 -0.10748876980E+03 -0.18995906696E+03  0.21845691826E+03  0.00000000000E+00 0.  1.
          3    1    6    6  503    0 -0.45164236893E+02  0.33691483826E+02  0.10308036795E+03  0.11747547247E+03  0.00000000000E+00 0. -1.
         -3    1    6    6    0  503 -0.11500413269E+03  0.37166551040E+03  0.69289462180E+03  0.79464719157E+03  0.00000000000E+00 0.  1.
<mgrwt>
<rscale>  0 0.14554012E+04</rscale>
<asrwt>0</asrwt>
<pdfrwt beam="1">  1        1 0.26936003E+00 0.14554012E+04</pdfrwt>
<pdfrwt beam="2">  1       -1 0.46531344E-01 0.14554012E+04</pdfrwt>
<totfact> 0.19651676E+01</totfact>
</mgrwt>
</event>
<event>
12    2  0.8147979E-008  0.2024182E+04  0.7818608E-02  0.8595398E-01
         -1   -1    0    0    0  501 -0.00000000000E+00  0.00000000000E+00  0.85346544412E+03  0.85346544412E+03  0.00000000000E+00 0.  1.
          1   -1    0    0  501    0  0.00000000000E+00 -0.00000000000E+00 -0.12001987541E+04  0.12001987541E+04  0.00000000000E+00 0. -1.
         23    2    1    2    0    0  0.59818434507E+02  0.80146507990E+03 -0.27609111793E+03  0.85467130544E+03  0.91171352677E+02 0.  0.
        254    2    1    2    0    0 -0.59818434507E+02 -0.80146507990E+03 -0.70642192010E+02  0.11989928927E+04  0.88694369502E+03 0.  0.
         23    2    4    4    0    0 -0.76669285496E+02  0.14969359361E+03 -0.14086330108E+03  0.24064529217E+03  0.98900635733E+02 0.  0.
         23    2    4    4    0    0  0.16850850989E+02 -0.95115867350E+03  0.70221109072E+02  0.95834760056E+03  0.92262375788E+02 0.  0.
          1    1    3    3  502    0  0.40278524125E+02  0.52155252568E+03 -0.22510138395E+03  0.56948224696E+03  0.00000000000E+00 0. -1.
         -1    1    3    3    0  502  0.19539910382E+02  0.27991255421E+03 -0.50989733973E+02  0.28518905848E+03  0.00000000000E+00 0.  1.
         11    1    5    5    0    0 -0.86625574984E+02  0.11073594197E+03 -0.14279157596E+03  0.20038930423E+03  0.00000000000E+00 0.  1.
        -11    1    5    5    0    0  0.99562894888E+01  0.38957651637E+02  0.19282748733E+01  0.40255987945E+02  0.00000000000E+00 0. -1.
          1    1    6    6  503    0 -0.10934432488E+02 -0.57893747318E+03  0.27823071283E+01  0.57904740816E+03  0.00000000000E+00 0. -1.
         -1    1    6    6    0  503  0.27785283477E+02 -0.37222120032E+03  0.67438801943E+02  0.37930019240E+03  0.00000000000E+00 0.  1.
<mgrwt>
<rscale>  0 0.20241820E+04</rscale>
<asrwt>0</asrwt>
<pdfrwt beam="1">  1        1 0.18464596E+00 0.20241820E+04</pdfrwt>
<pdfrwt beam="2">  1       -1 0.13130238E+00 0.20241820E+04</pdfrwt>
<totfact> 0.48902931E+00</totfact>
</mgrwt>
</event>
<event>
12    2  0.8147979E-008  0.2496000E+04  0.7818608E-02  0.8404412E-01
          2   -1    0    0  501    0  0.00000000000E+00  0.00000000000E+00  0.18113808728E+04  0.18113808728E+04  0.00000000000E+00 0. -1.
         -2   -1    0    0    0  501 -0.00000000000E+00 -0.00000000000E+00 -0.85984343450E+03  0.85984343450E+03  0.00000000000E+00 0.  1.
         23    2    1    2    0    0  0.59959930816E+03 -0.19161709879E+03  0.13585772760E+04  0.15000856142E+04  0.91039509377E+02 0.  0.
        254    2    1    2    0    0 -0.59959930816E+03  0.19161709879E+03 -0.40703983774E+03  0.11711386930E+04  0.89980440425E+03 0.  0.
         23    2    4    4    0    0 -0.61819438577E+03 -0.96891855756E+02 -0.54912728055E+03  0.83740625828E+03  0.90311355095E+02 0.  0.
         23    2    4    4    0    0  0.18595077616E+02  0.28850895455E+03  0.14208744281E+03  0.33373243475E+03  0.87208387394E+02 0.  0.
          1    1    3    3  502    0  0.38318749607E+02 -0.54553903239E+01  0.14533875948E+03  0.15040426477E+03  0.00000000000E+00 0. -1.
         -1    1    3    3    0  502  0.56128055855E+03 -0.18616170847E+03  0.12132385165E+04  0.13496813495E+04  0.00000000000E+00 0.  1.
         11    1    5    5    0    0 -0.36588540563E+03 -0.75013005547E+02 -0.38030223144E+03  0.53303739859E+03  0.00000000000E+00 0. -1.
        -11    1    5    5    0    0 -0.25230898014E+03 -0.21878850209E+02 -0.16882504910E+03  0.30436885969E+03  0.00000000000E+00 0.  1.
          2    1    6    6  503    0  0.25158287319E+02  0.25367050598E+03  0.15216474480E+03  0.29687669930E+03  0.00000000000E+00 0. -1.
         -2    1    6    6    0  503 -0.65632097030E+01  0.34838448562E+02 -0.10077301990E+02  0.36855735445E+02  0.00000000000E+00 0.  1.
<mgrwt>
<rscale>  0 0.24960000E+04</rscale>
<asrwt>0</asrwt>
<pdfrwt beam="1">  1        2 0.27867398E+00 0.24960000E+04</pdfrwt>
<pdfrwt beam="2">  1       -2 0.13228361E+00 0.24960000E+04</pdfrwt>
<totfact> 0.31529104E+00</totfact>
</mgrwt>
</event>
<event>
12    2  0.8147979E-008  0.1953191E+04  0.7818608E-02  0.8628823E-01
         -2   -1    0    0    0  501 -0.00000000000E+00  0.00000000000E+00  0.11827047020E+04  0.11827047020E+04  0.00000000000E+00 0. -1.
          2   -1    0    0  501    0  0.00000000000E+00 -0.00000000000E+00 -0.80640514662E+03  0.80640514662E+03  0.00000000000E+00 0.  1.
         23    2    1    2    0    0  0.35776129883E+03  0.64038836955E+03  0.37208922681E+03  0.82769232164E+03  0.92378437946E+02 0.  0.
        254    2    1    2    0    0 -0.35776129883E+03 -0.64038836955E+03  0.42103285793E+01  0.11614175270E+04  0.90043463634E+03 0.  0.
         23    2    4    4    0    0 -0.36151415852E+03  0.65737424894E+01 -0.26100316499E+03  0.45575833895E+03  0.94113285360E+02 0.  0.
         23    2    4    4    0    0  0.37528596901E+01 -0.64696211204E+03  0.26521349357E+03  0.70565918804E+03  0.95092765889E+02 0.  0.
          3    1    3    3  502    0  0.13644992969E+03  0.24103591762E+03  0.91075766133E+02  0.29156764579E+03  0.00000000000E+00 0. -1.
         -3    1    3    3    0  502  0.22131136915E+03  0.39935245194E+03  0.28101346067E+03  0.53612467586E+03  0.00000000000E+00 0.  1.
         11    1    5    5    0    0 -0.95347495942E+02  0.20483330207E+02 -0.11868170027E+03  0.15361008358E+03  0.00000000000E+00 0. -1.
        -11    1    5    5    0    0 -0.26616666258E+03 -0.13909587718E+02 -0.14232146472E+03  0.30214825537E+03  0.00000000000E+00 0.  1.
          4    1    6    6  503    0 -0.34666992407E+02 -0.11994063300E+03  0.38437773258E+02  0.13063314365E+03  0.00000000000E+00 0. -1.
         -4    1    6    6    0  503  0.38419852097E+02 -0.52702147904E+03  0.22677572031E+03  0.57502604439E+03  0.00000000000E+00 0.  1.
<mgrwt>
<rscale>  0 0.19531914E+04</rscale>
<asrwt>0</asrwt>
<pdfrwt beam="1">  1        2 0.12406233E+00 0.19531914E+04</pdfrwt>
<pdfrwt beam="2">  1       -2 0.18195457E+00 0.19531914E+04</pdfrwt>
<totfact> 0.55842526E+00</totfact>
</mgrwt>
</event>
<event>
12    2  0.8147979E-008  0.3103144E+04  0.7818608E-02  0.8214876E-01
          2   -1    0    0  501    0  0.00000000000E+00  0.00000000000E+00  0.26247026532E+04  0.26247026532E+04  0.00000000000E+00 0.  1.
         -2   -1    0    0    0  501 -0.00000000000E+00 -0.00000000000E+00 -0.91719924150E+03  0.91719924150E+03  0.00000000000E+00 0. -1.
         23    2    1    2    0    0 -0.63835848291E+03 -0.12596869257E+04  0.94498048220E+03  0.17016266119E+04  0.90732085145E+02 0.  0.
        254    2    1    2    0    0  0.63835848291E+03  0.12596869257E+04  0.76252292955E+03  0.18402752828E+04  0.90047720410E+03 0.  0.
         23    2    4    4    0    0  0.43411229910E+02  0.10080272633E+04  0.55723747573E+03  0.11562151986E+04  0.91194752155E+02 0.  0.
         23    2    4    4    0    0  0.59494725300E+03  0.25165966239E+03  0.20528545382E+03  0.68406008419E+03  0.92202286856E+02 0.  0.
          4    1    3    3  502    0 -0.27126680994E+03 -0.61484230108E+03  0.48229258212E+03  0.82717765453E+03  0.00000000000E+00 0. -1.
         -4    1    3    3    0  502 -0.36709167298E+03 -0.64484462457E+03  0.46268790008E+03  0.87444895739E+03  0.00000000000E+00 0.  1.
         11    1    5    5    0    0 -0.11613770195E+02  0.18829055176E+02  0.15854581312E+02  0.27217287256E+02  0.00000000000E+00 0. -1.
        -11    1    5    5    0    0  0.55025000105E+02  0.98919820809E+03  0.54138289442E+03  0.11289979114E+04  0.00000000000E+00 0.  1.
          3    1    6    6  503    0  0.15007578382E+03  0.10498941578E+03  0.74430626328E+02  0.19770037039E+03  0.00000000000E+00 0. -1.
         -3    1    6    6    0  503  0.44487146918E+03  0.14667024661E+03  0.13085482749E+03  0.48635971380E+03  0.00000000000E+00 0.  1.
<mgrwt>
<rscale>  0 0.31031437E+04</rscale>
<asrwt>0</asrwt>
<pdfrwt beam="1">  1        2 0.40380040E+00 0.31031437E+04</pdfrwt>
<pdfrwt beam="2">  1       -2 0.14110758E+00 0.31031437E+04</pdfrwt>
<totfact> 0.87869872E-01</totfact>
</mgrwt>
</event>
<event>
12    2  0.8147979E-008  0.2501086E+04  0.7818608E-02  0.8402599E-01
         -2   -1    0    0    0  501 -0.00000000000E+00  0.00000000000E+00  0.46702906089E+03  0.46702906089E+03  0.00000000000E+00 0.  1.
          2   -1    0    0  501    0  0.00000000000E+00 -0.00000000000E+00 -0.33485236932E+04  0.33485236932E+04  0.00000000000E+00 0. -1.
         23    2    1    2    0    0 -0.34232356034E+03  0.99076534419E+03 -0.82789022951E+03  0.13391386555E+04  0.95334774349E+02 0.  0.
        254    2    1    2    0    0  0.34232356034E+03 -0.99076534419E+03 -0.20536044028E+04  0.24764140986E+04  0.90362290669E+03 0.  0.
         23    2    4    4    0    0 -0.16746670606E+03  0.18269662594E+02 -0.62168906175E+03  0.64973526061E+03  0.85321399208E+02 0.  0.
         23    2    4    4    0    0  0.50979026640E+03 -0.10090350068E+04 -0.14319153410E+04  0.18266788380E+04  0.91303191264E+02 0.  0.
          3    1    3    3  502    0 -0.28556391098E+03  0.70731778772E+03 -0.62194003776E+03  0.98420252522E+03  0.00000000000E+00 0. -1.
         -3    1    3    3    0  502 -0.56759649364E+02  0.28344755647E+03 -0.20595019175E+03  0.35493613023E+03  0.00000000000E+00 0.  1.
         11    1    5    5    0    0 -0.93692071583E+02  0.35673048396E+02 -0.46487436246E+03  0.47556171370E+03  0.00000000000E+00 0.  1.
        -11    1    5    5    0    0 -0.73774634479E+02 -0.17403385802E+02 -0.15681469929E+03  0.17417354691E+03  0.00000000000E+00 0. -1.
          1    1    6    6  503    0  0.42867588808E+03 -0.83342396485E+03 -0.12384142443E+04  0.15530706238E+04  0.00000000000E+00 0. -1.
         -1    1    6    6    0  503  0.81114378319E+02 -0.17561104193E+03 -0.19350109678E+03  0.27360821420E+03  0.00000000000E+00 0.  1.
<mgrwt>
<rscale>  0 0.25010861E+04</rscale>
<asrwt>0</asrwt>
<pdfrwt beam="1">  1        2 0.51515747E+00 0.25010861E+04</pdfrwt>
<pdfrwt beam="2">  1       -2 0.71850628E-01 0.25010861E+04</pdfrwt>
<totfact> 0.16191882E+00</totfact>
</mgrwt>
</event>
<event>
12    2  0.8147979E-008  0.2344570E+04  0.7818608E-02  0.8460552E-01
         -2   -1    0    0    0  501 -0.00000000000E+00  0.00000000000E+00  0.54734304355E+03  0.54734304355E+03  0.00000000000E+00 0.  1.
          2   -1    0    0  501    0  0.00000000000E+00 -0.00000000000E+00 -0.25107699962E+04  0.25107699962E+04  0.00000000000E+00 0. -1.
         23    2    1    2    0    0 -0.90983776797E+03 -0.31605757144E+03 -0.50225240976E+03  0.10900621595E+04  0.90999318151E+02 0.  0.
        254    2    1    2    0    0  0.90983776797E+03  0.31605757144E+03 -0.14611745429E+04  0.19680508803E+04  0.90027555234E+03 0.  0.
         23    2    4    4    0    0  0.51731643363E+03  0.37149718455E+03 -0.25240168139E+03  0.69270907308E+03  0.10253194879E+03 0.  0.
         23    2    4    4    0    0  0.39252133434E+03 -0.55439613106E+02 -0.12087728615E+04  0.12753418072E+04  0.90655093095E+02 0.  0.
          3    1    3    3  502    0 -0.28455169129E+03 -0.12390058455E+03 -0.20196413420E+03  0.37028439255E+03  0.00000000000E+00 0. -1.
         -3    1    3    3    0  502 -0.62528607668E+03 -0.19215698689E+03 -0.30028827556E+03  0.71977776691E+03  0.00000000000E+00 0.  1.
         11    1    5    5    0    0  0.40854644368E+03  0.29103115048E+03 -0.24222077568E+03  0.55702803463E+03  0.00000000000E+00 0. -1.
        -11    1    5    5    0    0  0.10876998995E+03  0.80466034068E+02 -0.10180905709E+02  0.13568103844E+03  0.00000000000E+00 0.  1.
          3    1    6    6  503    0  0.14641368604E+03 -0.63606929140E+02 -0.51433813554E+03  0.53854110944E+03  0.00000000000E+00 0. -1.
         -3    1    6    6    0  503  0.24610764830E+03  0.81673160348E+01 -0.69443472599E+03  0.73680069779E+03  0.00000000000E+00 0.  1.
<mgrwt>
<rscale>  0 0.23445703E+04</rscale>
<asrwt>0</asrwt>
<pdfrwt beam="1">  1        2 0.38627231E+00 0.23445703E+04</pdfrwt>
<pdfrwt beam="2">  1       -2 0.84206622E-01 0.23445703E+04</pdfrwt>
<totfact> 0.38151419E+00</totfact>
</mgrwt>
</event>
<event>
12    2  0.8147979E-008  0.1433103E+04  0.7818608E-02  0.8930199E-01
          2   -1    0    0  501    0  0.00000000000E+00  0.00000000000E+00  0.89597898808E+03  0.89597898808E+03  0.00000000000E+00 0. -1.
         -2   -1    0    0    0  501 -0.00000000000E+00 -0.00000000000E+00 -0.57305614730E+03  0.57305614730E+03  0.00000000000E+00 0.  1.
         23    2    1    2    0    0 -0.30844107560E+03 -0.29366207531E+03  0.58703302156E+02  0.43895405931E+03  0.88663842145E+02 0.  0.
        254    2    1    2    0    0  0.30844107560E+03  0.29366207531E+03  0.26421953862E+03  0.10300810761E+04  0.89993430155E+03 0.  0.
         23    2    4    4    0    0 -0.24773511638E+03 -0.90229013604E+02  0.20703709360E+03  0.34724739949E+03  0.90567298412E+02 0.  0.
         23    2    4    4    0    0  0.55617619198E+03  0.38389108892E+03  0.57182445017E+02  0.68283367658E+03  0.79294849640E+02 0.  0.
          4    1    3    3  502    0 -0.16046759485E+03 -0.19924405023E+03  0.68303382150E+01  0.25591931164E+03  0.00000000000E+00 0. -1.
         -4    1    3    3    0  502 -0.14797348075E+03 -0.94418025078E+02  0.51872963941E+02  0.18303474767E+03  0.00000000000E+00 0.  1.
         11    1    5    5    0    0 -0.22635508312E+03 -0.10499866933E+03  0.16971082060E+03  0.30176664303E+03  0.00000000000E+00 0.  1.
        -11    1    5    5    0    0 -0.21380033259E+02  0.14769655724E+02  0.37326272994E+02  0.45480756458E+02  0.00000000000E+00 0. -1.
          1    1    6    6  503    0  0.30540068454E+03  0.17528345817E+03  0.28369663732E+01  0.35213905946E+03  0.00000000000E+00 0. -1.
         -1    1    6    6    0  503  0.25077550745E+03  0.20860763075E+03  0.54345478644E+02  0.33069461712E+03  0.00000000000E+00 0.  1.
<mgrwt>
<rscale>  0 0.14331033E+04</rscale>
<asrwt>0</asrwt>
<pdfrwt beam="1">  1        2 0.13784292E+00 0.14331033E+04</pdfrwt>
<pdfrwt beam="2">  1       -2 0.88162484E-01 0.14331033E+04</pdfrwt>
<totfact> 0.31760860E+01</totfact>
</mgrwt>
</event>
<event>
12    2  0.8147979E-008  0.2580367E+04  0.7818608E-02  0.8374901E-01
         -2   -1    0    0    0  501 -0.00000000000E+00  0.00000000000E+00  0.45169255377E+03  0.45169255377E+03  0.00000000000E+00 0. -1.
          2   -1    0    0  501    0  0.00000000000E+00 -0.00000000000E+00 -0.36851922128E+04  0.36851922128E+04  0.00000000000E+00 0.  1.
         23    2    1    2    0    0 -0.11288474385E+04  0.57865250159E+02 -0.13529554426E+04  0.17652884418E+04  0.90055130457E+02 0.  0.
        254    2    1    2    0    0  0.11288474385E+04 -0.57865250159E+02 -0.18805442164E+04  0.23715963248E+04  0.90020978173E+03 0.  0.
         23    2    4    4    0    0  0.54467652800E+03 -0.22219216809E+03 -0.28177816148E+03  0.65897957810E+03  0.93879030378E+02 0.  0.
         23    2    4    4    0    0  0.58417091048E+03  0.16432691793E+03 -0.15987660550E+04  0.17126167467E+04  0.93510608397E+02 0.  0.
          2    1    3    3  502    0 -0.87111989579E+03  0.62776995095E+02 -0.99117923877E+03  0.13210704400E+04  0.00000000000E+00 0. -1.
         -2    1    3    3    0  502 -0.25772754269E+03 -0.49117449361E+01 -0.36177620379E+03  0.44421800181E+03  0.00000000000E+00 0.  1.
         11    1    5    5    0    0  0.69607915075E+02  0.11334782631E+00 -0.18101746848E+02  0.71923208548E+02  0.00000000000E+00 0.  1.
        -11    1    5    5    0    0  0.47506861293E+03 -0.22230551592E+03 -0.26367641463E+03  0.58705636955E+03  0.00000000000E+00 0. -1.
          4    1    6    6  503    0  0.49495500567E+03  0.13428608910E+03 -0.12438380705E+04  0.13454167968E+04  0.00000000000E+00 0. -1.
         -4    1    6    6    0  503  0.89215904816E+02  0.30040828827E+02 -0.35492798445E+03  0.36719994991E+03  0.00000000000E+00 0.  1.
<mgrwt>
<rscale>  0 0.25803673E+04</rscale>
<asrwt>0</asrwt>
<pdfrwt beam="1">  1        2 0.56695263E+00 0.25803673E+04</pdfrwt>
<pdfrwt beam="2">  1       -2 0.69491164E-01 0.25803673E+04</pdfrwt>
<totfact> 0.10030561E+00</totfact>
</mgrwt>
</event>
<event>
12    2  0.8147979E-008  0.3912461E+04  0.7818608E-02  0.8022443E-01
          2   -1    0    0  501    0  0.00000000000E+00  0.00000000000E+00  0.24743976694E+04  0.24743976694E+04  0.00000000000E+00 0. -1.
         -2   -1    0    0    0  501 -0.00000000000E+00 -0.00000000000E+00 -0.15465733138E+04  0.15465733138E+04  0.00000000000E+00 0.  1.
         23    2    1    2    0    0  0.75850849293E+03  0.94355450136E+03  0.18787837141E+04  0.22370065359E+04  0.93486717707E+02 0.  0.
        254    2    1    2    0    0 -0.75850849293E+03 -0.94355450136E+03 -0.95095935850E+03  0.17839644473E+04  0.90142954071E+03 0.  0.
         23    2    4    4    0    0 -0.60229241551E+03 -0.10952263668E+04 -0.68367397584E+03  0.14274585478E+04  0.89167551164E+02 0.  0.
         23    2    4    4    0    0 -0.15621607742E+03  0.15167186548E+03 -0.26728538266E+03  0.35650589947E+03  0.90813891832E+02 0.  0.
          4    1    3    3  502    0  0.49862497669E+03  0.66857685525E+03  0.13484869150E+04  0.15855720857E+04  0.00000000000E+00 0.  1.
         -4    1    3    3    0  502  0.25988351624E+03  0.27497764611E+03  0.53029679904E+03  0.65143445023E+03  0.00000000000E+00 0. -1.
         11    1    5    5    0    0 -0.20570038585E+03 -0.29445087508E+03 -0.21018643754E+03  0.41616379600E+03  0.00000000000E+00 0.  1.
        -11    1    5    5    0    0 -0.39659202966E+03 -0.80077549176E+03 -0.47348753830E+03  0.10112947518E+04  0.00000000000E+00 0. -1.
          4    1    6    6  503    0 -0.16797292140E+03  0.13748318675E+03 -0.24021077513E+03  0.32375568791E+03  0.00000000000E+00 0. -1.
         -4    1    6    6    0  503  0.11756843982E+02  0.14188678728E+02 -0.27074607529E+02  0.32750211561E+02  0.00000000000E+00 0.  1.
<mgrwt>
<rscale>  0 0.39124608E+04</rscale>
<asrwt>0</asrwt>
<pdfrwt beam="1">  1        2 0.38067657E+00 0.39124608E+04</pdfrwt>
<pdfrwt beam="2">  1       -2 0.23793435E+00 0.39124608E+04</pdfrwt>
<totfact> 0.21833013E-01</totfact>
</mgrwt>
</event>
<event>
12    2  0.8147979E-008  0.1222242E+04  0.7818608E-02  0.9093608E-01
         -1   -1    0    0    0  501 -0.00000000000E+00  0.00000000000E+00  0.22822050504E+03  0.22822050504E+03  0.00000000000E+00 0. -1.
          1   -1    0    0  501    0  0.00000000000E+00 -0.00000000000E+00 -0.16364392663E+04  0.16364392663E+04  0.00000000000E+00 0.  1.
         23    2    1    2    0    0 -0.65749804429E+00 -0.22991925191E+03 -0.11178896243E+03  0.27071673827E+03  0.89036428283E+02 0.  0.
        254    2    1    2    0    0  0.65749804429E+00  0.22991925191E+03 -0.12964297988E+04  0.15939430331E+04  0.89836566867E+03 0.  0.
         23    2    4    4    0    0  0.35999867894E+03 -0.14197303738E+03 -0.47802568346E+03  0.62156209643E+03  0.89863749593E+02 0.  0.
         23    2    4    4    0    0 -0.35934118089E+03  0.37189228928E+03 -0.81840411539E+03  0.97238093664E+03  0.91156079071E+02 0.  0.
          2    1    3    3  502    0 -0.21754757677E+02 -0.90386682418E+02 -0.38445684369E+01  0.93047313484E+02  0.00000000000E+00 0. -1.
         -2    1    3    3    0  502  0.21097259633E+02 -0.13953256949E+03 -0.10794439399E+03  0.17766942479E+03  0.00000000000E+00 0.  1.
         11    1    5    5    0    0  0.32385138653E+01 -0.72843003854E+01 -0.40056148584E+02  0.40841694915E+02  0.00000000000E+00 0.  1.
        -11    1    5    5    0    0  0.35676016507E+03 -0.13468873699E+03 -0.43796953488E+03  0.58072040151E+03  0.00000000000E+00 0. -1.
          4    1    6    6  503    0 -0.31932394149E+03  0.34379347050E+03 -0.77979732324E+03  0.91007999390E+03  0.00000000000E+00 0. -1.
         -4    1    6    6    0  503 -0.40017239407E+02  0.28098818786E+02 -0.38606792144E+02  0.62300942742E+02  0.00000000000E+00 0.  1.
<mgrwt>
<rscale>  0 0.12222422E+04</rscale>
<asrwt>0</asrwt>
<pdfrwt beam="1">  1        1 0.25175990E+00 0.12222422E+04</pdfrwt>
<pdfrwt beam="2">  1       -1 0.35110846E-01 0.12222422E+04</pdfrwt>
<totfact> 0.40168109E+01</totfact>
</mgrwt>
</event>
<event>
12    2  0.8147979E-008  0.2793482E+04  0.7818608E-02  0.8305295E-01
         -1   -1    0    0    0  501 -0.00000000000E+00  0.00000000000E+00  0.69696772748E+03  0.69696772748E+03  0.00000000000E+00 0.  1.
          1   -1    0    0  501    0  0.00000000000E+00 -0.00000000000E+00 -0.27991047899E+04  0.27991047899E+04  0.00000000000E+00 0. -1.
         23    2    1    2    0    0 -0.10721614809E+04 -0.61338769844E+03 -0.70878665061E+03  0.14271515196E+04  0.92780570488E+02 0.  0.
        254    2    1    2    0    0  0.10721614809E+04  0.61338769844E+03 -0.13933504118E+04  0.20689209977E+04  0.90179488522E+03 0.  0.
         23    2    4    4    0    0 -0.42623379165E+02  0.19323773467E+03  0.19326457043E+02  0.21845355394E+03  0.90503418347E+02 0.  0.
         23    2    4    4    0    0  0.11147848600E+04  0.42014996377E+03 -0.14126768688E+04  0.18504674438E+04  0.96449719894E+02 0.  0.
          2    1    3    3  502    0 -0.94241197134E+03 -0.53060020130E+03 -0.65344477259E+03  0.12635928807E+04  0.00000000000E+00 0. -1.
         -2    1    3    3    0  502 -0.12974950955E+03 -0.82787497143E+02 -0.55341878020E+02  0.16355863894E+03  0.00000000000E+00 0.  1.
         11    1    5    5    0    0 -0.65950710603E+02  0.91138263232E+02  0.36526822999E+01  0.11255674721E+03  0.00000000000E+00 0. -1.
        -11    1    5    5    0    0  0.23327331438E+02  0.10209947144E+03  0.15673774743E+02  0.10589680673E+03  0.00000000000E+00 0.  1.
          1    1    6    6  503    0  0.64213180356E+03  0.28994029409E+03 -0.80899786637E+03  0.10727889704E+04  0.00000000000E+00 0. -1.
         -1    1    6    6    0  503  0.47265305649E+03  0.13020966968E+03 -0.60367900245E+03  0.77767847333E+03  0.00000000000E+00 0.  1.
<mgrwt>
<rscale>  0 0.27934822E+04</rscale>
<asrwt>0</asrwt>
<pdfrwt beam="1">  1        1 0.43063150E+00 0.27934822E+04</pdfrwt>
<pdfrwt beam="2">  1       -1 0.10722581E+00 0.27934822E+04</pdfrwt>
<totfact> 0.58567018E-01</totfact>
</mgrwt>
</event>
<event>
12    2  0.8147979E-008  0.2227505E+04  0.7818608E-02  0.8507066E-01
         -2   -1    0    0    0  501 -0.00000000000E+00  0.00000000000E+00  0.35713098845E+03  0.35713098845E+03  0.00000000000E+00 0.  1.
          2   -1    0    0  501    0  0.00000000000E+00 -0.00000000000E+00 -0.34733602794E+04  0.34733602794E+04  0.00000000000E+00 0. -1.
         23    2    1    2    0    0  0.61304309337E+03  0.58825720788E+03 -0.19427883992E+04  0.21224089282E+04  0.91238794912E+02 0.  0.
        254    2    1    2    0    0 -0.61304309337E+03 -0.58825720788E+03 -0.11734408918E+04  0.17080823396E+04  0.90482781536E+03 0.  0.
         23    2    4    4    0    0 -0.27492751120E+03 -0.77677359062E+03 -0.66626846278E+03  0.10636210003E+04  0.91725788408E+02 0.  0.
         23    2    4    4    0    0 -0.33811558217E+03  0.18851638274E+03 -0.50717242899E+03  0.64446133932E+03  0.90807332779E+02 0.  0.
          4    1    3    3  502    0  0.25166925025E+03  0.28092361745E+03 -0.94888369002E+03  0.10210953665E+04  0.00000000000E+00 0. -1.
         -4    1    3    3    0  502  0.36137384312E+03  0.30733359043E+03 -0.99390470916E+03  0.11013135617E+04  0.00000000000E+00 0.  1.
         11    1    5    5    0    0 -0.18377427154E+03 -0.53348391534E+03 -0.40033703559E+03  0.69184377780E+03  0.00000000000E+00 0.  1.
        -11    1    5    5    0    0 -0.91153239659E+02 -0.24328967527E+03 -0.26593142719E+03  0.37177722249E+03  0.00000000000E+00 0. -1.
          1    1    6    6  503    0 -0.33109343702E+03  0.16390346997E+03 -0.45300866719E+03  0.58455458603E+03  0.00000000000E+00 0. -1.
         -1    1    6    6    0  503 -0.70221451583E+01  0.24612912772E+02 -0.54163761796E+02  0.59906753289E+02  0.00000000000E+00 0.  1.
<mgrwt>
<rscale>  0 0.22275050E+04</rscale>
<asrwt>0</asrwt>
<pdfrwt beam="1">  1        2 0.53436314E+00 0.22275050E+04</pdfrwt>
<pdfrwt beam="2">  1       -2 0.54943227E-01 0.22275050E+04</pdfrwt>
<totfact> 0.24186332E+00</totfact>
</mgrwt>
</event>
<event>
12    2  0.8147979E-008  0.2592843E+04  0.7818608E-02  0.8370636E-01
         -2   -1    0    0    0  501 -0.00000000000E+00  0.00000000000E+00  0.67130265435E+03  0.67130265435E+03  0.00000000000E+00 0.  1.
          2   -1    0    0  501    0  0.00000000000E+00 -0.00000000000E+00 -0.25036519234E+04  0.25036519234E+04  0.00000000000E+00 0. -1.
         23    2    1    2    0    0  0.45704185134E+03 -0.85987101265E+03 -0.86701871168E+02  0.98171180477E+03  0.89305323996E+02 0.  0.
        254    2    1    2    0    0 -0.45704185134E+03  0.85987101265E+03 -0.17456473979E+04  0.21932427730E+04  0.90264257110E+03 0.  0.
         23    2    4    4    0    0 -0.19882659581E+03 -0.11374722891E+03 -0.68565884892E+03  0.72821488851E+03  0.87740637420E+02 0.  0.
         23    2    4    4    0    0 -0.25821525552E+03  0.97361824156E+03 -0.10599885490E+04  0.14650278845E+04  0.90129794325E+02 0.  0.
          2    1    3    3  502    0  0.38805212941E+03 -0.67783577447E+03 -0.43246803933E+02  0.78225064930E+03  0.00000000000E+00 0. -1.
         -2    1    3    3    0  502  0.68989721930E+02 -0.18203523819E+03 -0.43455067235E+02  0.19946115547E+03  0.00000000000E+00 0.  1.
         11    1    5    5    0    0 -0.22951617084E+02 -0.35028676281E+02 -0.57278066605E+02  0.70954646097E+02  0.00000000000E+00 0. -1.
        -11    1    5    5    0    0 -0.17587497873E+03 -0.78718552627E+02 -0.62838078232E+03  0.65726024241E+03  0.00000000000E+00 0.  1.
          1    1    6    6  503    0 -0.48652034479E+02  0.10385410698E+03 -0.15105841517E+03  0.18966112092E+03  0.00000000000E+00 0. -1.
         -1    1    6    6    0  503 -0.20956322105E+03  0.86976413458E+03 -0.90893013379E+03  0.12753667635E+04  0.00000000000E+00 0.  1.
<mgrwt>
<rscale>  0 0.25928426E+04</rscale>
<asrwt>0</asrwt>
<pdfrwt beam="1">  1        2 0.38517722E+00 0.25928426E+04</pdfrwt>
<pdfrwt beam="2">  1       -2 0.10327733E+00 0.25928426E+04</pdfrwt>
<totfact> 0.23445526E+00</totfact>
</mgrwt>
</event>
<event>
12    2  0.8147979E-008  0.3294655E+04  0.7818608E-02  0.8164257E-01
         -2   -1    0    0    0  501 -0.00000000000E+00  0.00000000000E+00  0.73240493164E+03  0.73240493164E+03  0.00000000000E+00 0.  1.
          2   -1    0    0  501    0  0.00000000000E+00 -0.00000000000E+00 -0.37051739315E+04  0.37051739315E+04  0.00000000000E+00 0. -1.
         23    2    1    2    0    0  0.48849130549E+02  0.69647064812E+03 -0.31991473033E+04  0.32757021755E+04  0.90684471269E+02 0.  0.
        254    2    1    2    0    0 -0.48849130549E+02 -0.69647064812E+03  0.22637830340E+03  0.11618766877E+04  0.90069567547E+03 0.  0.
         23    2    4    4    0    0  0.39445274471E+03 -0.18066186083E+03  0.14235778529E+02  0.44376739144E+03  0.92169216906E+02 0.  0.
         23    2    4    4    0    0 -0.44330187526E+03 -0.51580878729E+03  0.21214252487E+03  0.71810929621E+03  0.90006959689E+02 0.  0.
          2    1    3    3  502    0 -0.18044169814E+02  0.38405865198E+03 -0.17240912337E+04  0.17664419669E+04  0.00000000000E+00 0. -1.
         -2    1    3    3    0  502  0.66893300363E+02  0.31241199614E+03 -0.14750560696E+04  0.15092602086E+04  0.00000000000E+00 0.  1.
         11    1    5    5    0    0  0.82387841344E+02 -0.81241760766E+02 -0.36049886811E+01  0.11576258479E+03  0.00000000000E+00 0. -1.
        -11    1    5    5    0    0  0.31206490337E+03 -0.99420100063E+02  0.17840767210E+02  0.32800480665E+03  0.00000000000E+00 0.  1.
          2    1    6    6  503    0 -0.87324240199E+02 -0.81170911843E+02  0.71290257804E+02  0.13891198909E+03  0.00000000000E+00 0. -1.
         -2    1    6    6    0  503 -0.35597763506E+03 -0.43463787544E+03  0.14085226707E+03  0.57919730712E+03  0.00000000000E+00 0.  1.
<mgrwt>
<rscale>  0 0.32946549E+04</rscale>
<asrwt>0</asrwt>
<pdfrwt beam="1">  1        2 0.57002677E+00 0.32946549E+04</pdfrwt>
<pdfrwt beam="2">  1       -2 0.11267768E+00 0.32946549E+04</pdfrwt>
<totfact> 0.29909943E-01</totfact>
</mgrwt>
</event>
<event>
12    2  0.8147979E-008  0.1423136E+04  0.7818608E-02  0.8937240E-01
          1   -1    0    0  501    0  0.00000000000E+00  0.00000000000E+00  0.25204602420E+03  0.25204602420E+03  0.00000000000E+00 0. -1.
         -1   -1    0    0    0  501 -0.00000000000E+00 -0.00000000000E+00 -0.20088743399E+04  0.20088743399E+04  0.00000000000E+00 0.  1.
         23    2    1    2    0    0  0.35027690468E+03  0.20640037847E+03 -0.70598875789E+03  0.81987422120E+03  0.92079238369E+02 0.  0.
        254    2    1    2    0    0 -0.35027690468E+03 -0.20640037847E+03 -0.10508395578E+04  0.14410461429E+04  0.89836250120E+03 0.  0.
         23    2    4    4    0    0 -0.24784852152E+02  0.30311228577E+03 -0.14448380797E+03  0.34838454094E+03  0.89469944228E+02 0.  0.
         23    2    4    4    0    0 -0.32549205252E+03 -0.50951266424E+03 -0.90635574987E+03  0.10926616020E+04  0.82948175791E+02 0.  0.
          4    1    3    3  502    0  0.25897757839E+03  0.10796729819E+03 -0.43852401627E+03  0.52060506763E+03  0.00000000000E+00 0.  1.
         -4    1    3    3    0  502  0.91299326282E+02  0.98433080277E+02 -0.26746474162E+03  0.29926915357E+03  0.00000000000E+00 0. -1.
         11    1    5    5    0    0 -0.14708198603E+02  0.28719048270E+03 -0.15513086416E+03  0.32674193100E+03  0.00000000000E+00 0. -1.
        -11    1    5    5    0    0 -0.10076653549E+02  0.15921803074E+02  0.10647056184E+02  0.21642609945E+02  0.00000000000E+00 0.  1.
          1    1    6    6  503    0 -0.24425461379E+03 -0.40662532071E+03 -0.76277657025E+03  0.89823858964E+03  0.00000000000E+00 0. -1.
         -1    1    6    6    0  503 -0.81237438736E+02 -0.10288734353E+03 -0.14357917963E+03  0.19442301236E+03  0.00000000000E+00 0.  1.
<mgrwt>
<rscale>  0 0.14231357E+04</rscale>
<asrwt>0</asrwt>
<pdfrwt beam="1">  1        1 0.38776312E-01 0.14231357E+04</pdfrwt>
<pdfrwt beam="2">  1       -1 0.30905759E+00 0.14231357E+04</pdfrwt>
<totfact> 0.31004659E+00</totfact>
</mgrwt>
</event>
<event>
12    2  0.8147979E-008  0.1614765E+04  0.7818608E-02  0.8811528E-01
         -1   -1    0    0    0  501 -0.00000000000E+00  0.00000000000E+00  0.47494346251E+03  0.47494346251E+03  0.00000000000E+00 0.  1.
          1   -1    0    0  501    0  0.00000000000E+00 -0.00000000000E+00 -0.13725135594E+04  0.13725135594E+04  0.00000000000E+00 0. -1.
         23    2    1    2    0    0 -0.38286658936E+03  0.35847754071E+03 -0.50541695896E+03  0.73422136392E+03  0.92421514824E+02 0.  0.
        254    2    1    2    0    0  0.38286658936E+03 -0.35847754071E+03 -0.39215313790E+03  0.11132356580E+04  0.90023140034E+03 0.  0.
         23    2    4    4    0    0  0.30200279783E+03 -0.27050496634E+03 -0.67519754469E+03  0.79270628030E+03  0.90071614630E+02 0.  0.
         23    2    4    4    0    0  0.80863791528E+02 -0.87972574373E+02  0.28304440678E+03  0.32052937767E+03  0.91360927718E+02 0.  0.
          1    1    3    3  502    0 -0.11916874833E+03  0.14114432434E+03 -0.23215728344E+03  0.29668150452E+03  0.00000000000E+00 0. -1.
         -1    1    3    3    0  502 -0.26369784103E+03  0.21733321637E+03 -0.27325967551E+03  0.43753985940E+03  0.00000000000E+00 0.  1.
         11    1    5    5    0    0  0.22468662033E+03 -0.24799213328E+03 -0.55260397518E+03  0.64603043961E+03  0.00000000000E+00 0. -1.
        -11    1    5    5    0    0  0.77316177502E+02 -0.22512833055E+02 -0.12259356951E+03  0.14667584069E+03  0.00000000000E+00 0.  1.
          3    1    6    6  503    0  0.83215180019E+01  0.74503235582E+01 -0.19638725203E+01  0.11340713304E+02  0.00000000000E+00 0.  1.
         -3    1    6    6    0  503  0.72542273526E+02 -0.95422897931E+02  0.28500827930E+03  0.30918866436E+03  0.00000000000E+00 0. -1.
<mgrwt>
<rscale>  0 0.16147648E+04</rscale>
<asrwt>0</asrwt>
<pdfrwt beam="1">  1        1 0.21115593E+00 0.16147648E+04</pdfrwt>
<pdfrwt beam="2">  1       -1 0.73068226E-01 0.16147648E+04</pdfrwt>
<totfact> 0.14535372E+01</totfact>
</mgrwt>
</event>
<event>
12    2  0.8147979E-008  0.6151644E+04  0.7818608E-02  0.7671879E-01
         -2   -1    0    0    0  501 -0.00000000000E+00  0.00000000000E+00  0.27266943987E+04  0.27266943987E+04  0.00000000000E+00 0. -1.
          2   -1    0    0  501    0  0.00000000000E+00 -0.00000000000E+00 -0.34696515990E+04  0.34696515990E+04  0.00000000000E+00 0.  1.
         23    2    1    2    0    0 -0.20463155306E+04  0.18538526105E+04  0.84687126275E+03  0.28894322086E+04  0.86318015478E+02 0.  0.
        254    2    1    2    0    0  0.20463155306E+04 -0.18538526105E+04 -0.15898284631E+04  0.33069137891E+04  0.88540810583E+03 0.  0.
         23    2    4    4    0    0  0.18595168179E+04 -0.18564527652E+04 -0.16316073634E+04  0.30942314879E+04  0.88917080437E+02 0.  0.
         23    2    4    4    0    0  0.18679871273E+03  0.26001546429E+01  0.41778900312E+02  0.21268230115E+03  0.92670193862E+02 0.  0.
          1    1    3    3  502    0 -0.10581437313E+04  0.96357985595E+03  0.39397328155E+03  0.14843750340E+04  0.00000000000E+00 0. -1.
         -1    1    3    3    0  502 -0.98817179927E+03  0.89027275457E+03  0.45289798121E+03  0.14050571746E+04  0.00000000000E+00 0.  1.
         11    1    5    5    0    0  0.16433502560E+04 -0.16029519371E+04 -0.14397161176E+04  0.27097670519E+04  0.00000000000E+00 0. -1.
        -11    1    5    5    0    0  0.21616656191E+03 -0.25350082805E+03 -0.19189124579E+03  0.38446443597E+03  0.00000000000E+00 0.  1.
          3    1    6    6  503    0  0.37711969140E+02 -0.13600442692E+02  0.48061319415E+02  0.62586380960E+02  0.00000000000E+00 0. -1.
         -3    1    6    6    0  503  0.14908674359E+03  0.16200597335E+02 -0.62824191030E+01  0.15009592019E+03  0.00000000000E+00 0.  1.
<mgrwt>
<rscale>  0 0.61516435E+04</rscale>
<asrwt>0</asrwt>
<pdfrwt beam="1">  1        2 0.53379256E+00 0.61516435E+04</pdfrwt>
<pdfrwt beam="2">  1       -2 0.41949144E+00 0.61516435E+04</pdfrwt>
<totfact> 0.31392919E-03</totfact>
</mgrwt>
</event>
<event>
12    2  0.8147979E-008  0.1761580E+04  0.7818608E-02  0.8727002E-01
          1   -1    0    0  501    0  0.00000000000E+00  0.00000000000E+00  0.11737521766E+04  0.11737521766E+04  0.00000000000E+00 0. -1.
         -1   -1    0    0    0  501 -0.00000000000E+00 -0.00000000000E+00 -0.66094969404E+03  0.66094969404E+03  0.00000000000E+00 0.  1.
         23    2    1    2    0    0 -0.31211403294E+03 -0.50330273229E+03  0.46311679160E+03  0.75703078837E+03  0.88823656679E+02 0.  0.
        254    2    1    2    0    0  0.31211403294E+03  0.50330273229E+03  0.49685690992E+02  0.10776710823E+04  0.89898692086E+03 0.  0.
         23    2    4    4    0    0  0.16213634025E+03 -0.11764866412E+03 -0.27760511531E+03  0.35408817785E+03  0.90467876351E+02 0.  0.
         23    2    4    4    0    0  0.14997769269E+03  0.62095139640E+03  0.32729080630E+03  0.72358290446E+03  0.91536892783E+02 0.  0.
          1    1    3    3  502    0 -0.46120089575E+02 -0.27462727842E+02  0.43742149963E+02  0.69243337342E+02  0.00000000000E+00 0. -1.
         -1    1    3    3    0  502 -0.26599394337E+03 -0.47584000444E+03  0.41937464164E+03  0.68778745102E+03  0.00000000000E+00 0.  1.
         11    1    5    5    0    0  0.86572386504E+01 -0.39444682617E+01 -0.75148041779E+02  0.75747836895E+02  0.00000000000E+00 0.  1.
        -11    1    5    5    0    0  0.15347910160E+03 -0.11370419586E+03 -0.20245707353E+03  0.27834034096E+03  0.00000000000E+00 0. -1.
          3    1    6    6  503    0  0.66389618901E+02  0.37695602471E+03  0.23764525755E+03  0.45053156881E+03  0.00000000000E+00 0. -1.
         -3    1    6    6    0  503  0.83588073792E+02  0.24399537169E+03  0.89645548752E+02  0.27305133565E+03  0.00000000000E+00 0.  1.
<mgrwt>
<rscale>  0 0.17615801E+04</rscale>
<asrwt>0</asrwt>
<pdfrwt beam="1">  1        1 0.18057726E+00 0.17615801E+04</pdfrwt>
<pdfrwt beam="2">  1       -1 0.10168457E+00 0.17615801E+04</pdfrwt>
<totfact> 0.97006955E+00</totfact>
</mgrwt>
</event>
<event>
12    2  0.8147979E-008  0.4673933E+04  0.7818608E-02  0.7880874E-01
         -2   -1    0    0    0  501 -0.00000000000E+00  0.00000000000E+00  0.26383456044E+04  0.26383456044E+04  0.00000000000E+00 0.  1.
          2   -1    0    0  501    0  0.00000000000E+00 -0.00000000000E+00 -0.20700139154E+04  0.20700139154E+04  0.00000000000E+00 0. -1.
         23    2    1    2    0    0 -0.15248754543E+04 -0.16175746305E+04  0.61924116262E+03  0.23094382917E+04  0.90844755041E+02 0.  0.
        254    2    1    2    0    0  0.15248754543E+04  0.16175746305E+04 -0.50909473627E+02  0.23989212281E+04  0.90024354928E+03 0.  0.
         23    2    4    4    0    0  0.60692556193E+03  0.12719301380E+04  0.28911685619E+01  0.14125323265E+04  0.95259124225E+02 0.  0.
         23    2    4    4    0    0  0.91794989234E+03  0.34564449247E+03 -0.53800642189E+02  0.98638890165E+03  0.89254894409E+02 0.  0.
          4    1    3    3  502    0 -0.71733899435E+03 -0.82680573638E+03  0.29981593995E+03  0.11349328422E+04  0.00000000000E+00 0. -1.
         -4    1    3    3    0  502 -0.80753645993E+03 -0.79076889413E+03  0.31942522267E+03  0.11745054495E+04  0.00000000000E+00 0.  1.
         11    1    5    5    0    0  0.37240104471E+03  0.67092003515E+03  0.67696466558E+01  0.76737348129E+03  0.00000000000E+00 0.  1.
        -11    1    5    5    0    0  0.23452451722E+03  0.60101010289E+03 -0.38784780939E+01  0.64515884520E+03  0.00000000000E+00 0. -1.
          4    1    6    6  503    0  0.76592916372E+03  0.31333900784E+03 -0.67960865970E+02  0.83032975195E+03  0.00000000000E+00 0. -1.
         -4    1    6    6    0  503  0.15202072862E+03  0.32305484631E+02  0.14160223781E+02  0.15605914970E+03  0.00000000000E+00 0.  1.
<mgrwt>
<rscale>  0 0.46739329E+04</rscale>
<asrwt>0</asrwt>
<pdfrwt beam="1">  1        2 0.31846368E+00 0.46739329E+04</pdfrwt>
<pdfrwt beam="2">  1       -2 0.40589932E+00 0.46739329E+04</pdfrwt>
<totfact> 0.30996033E-02</totfact>
</mgrwt>
</event>
<event>
12    2  0.8147979E-008  0.2962216E+04  0.7818608E-02  0.8254603E-01
         -2   -1    0    0    0  501 -0.00000000000E+00  0.00000000000E+00  0.15821165501E+04  0.15821165501E+04  0.00000000000E+00 0.  1.
          2   -1    0    0  501    0  0.00000000000E+00 -0.00000000000E+00 -0.13865481594E+04  0.13865481594E+04  0.00000000000E+00 0. -1.
         23    2    1    2    0    0 -0.70067877360E+03  0.10529270434E+04 -0.36262795014E+03  0.13188037254E+04  0.90211603129E+02 0.  0.
        254    2    1    2    0    0  0.70067877360E+03 -0.10529270434E+04  0.55819634093E+03  0.16498609841E+04  0.90047321413E+03 0.  0.
         23    2    4    4    0    0  0.46233310389E+03 -0.11656873693E+04  0.54739372907E+03  0.13712977630E+04  0.90767384691E+02 0.  0.
         23    2    4    4    0    0  0.23834566971E+03  0.11276032592E+03  0.10802611852E+02  0.27856322114E+03  0.89203264403E+02 0.  0.
          4    1    3    3  502    0 -0.42668486758E+03  0.71263255502E+03 -0.25471394545E+03  0.86878324610E+03  0.00000000000E+00 0. -1.
         -4    1    3    3    0  502 -0.27399390602E+03  0.34029448838E+03 -0.10791400469E+03  0.45002047928E+03  0.00000000000E+00 0.  1.
         11    1    5    5    0    0  0.98406000804E+02 -0.29384079710E+03  0.97230663904E+02  0.32477678033E+03  0.00000000000E+00 0.  1.
        -11    1    5    5    0    0  0.36392710309E+03 -0.87184657222E+03  0.45016306517E+03  0.10465209826E+04  0.00000000000E+00 0. -1.
          4    1    6    6  503    0  0.23501095568E+03  0.90071161723E+02  0.22747074558E+02  0.25270613935E+03  0.00000000000E+00 0. -1.
         -4    1    6    6    0  503  0.33347140316E+01  0.22689164200E+02 -0.11944462706E+02  0.25857081798E+02  0.00000000000E+00 0.  1.
<mgrwt>
<rscale>  0 0.29622159E+04</rscale>
<asrwt>0</asrwt>
<pdfrwt beam="1">  1        2 0.21331510E+00 0.29622159E+04</pdfrwt>
<pdfrwt beam="2">  1       -2 0.24340255E+00 0.29622159E+04</pdfrwt>
<totfact> 0.89262512E-01</totfact>
</mgrwt>
</event>
<event>
12    2  0.8147979E-008  0.2310958E+04  0.7818608E-02  0.8473613E-01
          1   -1    0    0  501    0  0.00000000000E+00  0.00000000000E+00  0.19458003351E+04  0.19458003351E+04  0.00000000000E+00 0. -1.
         -1   -1    0    0    0  501 -0.00000000000E+00 -0.00000000000E+00 -0.68616043335E+03  0.68616043335E+03  0.00000000000E+00 0.  1.
         23    2    1    2    0    0 -0.72127795883E+03 -0.65970410848E+03  0.54639210927E+03  0.11235551124E+04  0.91544245550E+02 0.  0.
        254    2    1    2    0    0  0.72127795883E+03  0.65970410848E+03  0.71324779253E+03  0.15084056561E+04  0.90061856806E+03 0.  0.
         23    2    4    4    0    0  0.64644141350E+01 -0.57366914309E+02  0.44302412604E+03  0.45606341598E+03  0.91600827725E+02 0.  0.
         23    2    4    4    0    0  0.71481354470E+03  0.71707102279E+03  0.27022366650E+03  0.10523422401E+04  0.96198258719E+02 0.  0.
          2    1    3    3  502    0 -0.27962222776E+03 -0.20506239575E+03  0.16740937500E+03  0.38505204225E+03  0.00000000000E+00 0.  1.
         -2    1    3    3    0  502 -0.44165573108E+03 -0.45464171273E+03  0.37898273427E+03  0.73850307015E+03  0.00000000000E+00 0. -1.
         11    1    5    5    0    0  0.26374843840E+02  0.64325200076E+00  0.37055084272E+02  0.45487640421E+02  0.00000000000E+00 0. -1.
        -11    1    5    5    0    0 -0.19910429705E+02 -0.58010166309E+02  0.40596904177E+03  0.41057577556E+03  0.00000000000E+00 0.  1.
          4    1    6    6  503    0  0.41867538786E+03  0.46876130396E+03  0.19986596209E+03  0.65952455852E+03  0.00000000000E+00 0. -1.
         -4    1    6    6    0  503  0.29613815684E+03  0.24830971883E+03  0.70357704402E+02  0.39281768159E+03  0.00000000000E+00 0.  1.
<mgrwt>
<rscale>  0 0.23109576E+04</rscale>
<asrwt>0</asrwt>
<pdfrwt beam="1">  1        1 0.29935390E+00 0.23109576E+04</pdfrwt>
<pdfrwt beam="2">  1       -1 0.10556314E+00 0.23109576E+04</pdfrwt>
<totfact> 0.24621896E+00</totfact>
</mgrwt>
</event>
<event>
12    2  0.8147979E-008  0.1396710E+04  0.7818608E-02  0.8956203E-01
         -2   -1    0    0    0  501 -0.00000000000E+00  0.00000000000E+00  0.37387458177E+03  0.37387458177E+03  0.00000000000E+00 0.  1.
          2   -1    0    0  501    0  0.00000000000E+00 -0.00000000000E+00 -0.13044474886E+04  0.13044474886E+04  0.00000000000E+00 0. -1.
         23    2    1    2    0    0 -0.11858536533E+03 -0.33150617924E+03 -0.50597787925E+03  0.62312346487E+03  0.91161408744E+02 0.  0.
        254    2    1    2    0    0  0.11858536533E+03  0.33150617924E+03 -0.42459502753E+03  0.10551986055E+04  0.89955784906E+03 0.  0.
         23    2    4    4    0    0  0.31963035960E+03 -0.11392528136E+03  0.65297574086E+02  0.35707344975E+03  0.89972989416E+02 0.  0.
         23    2    4    4    0    0 -0.20104499426E+03  0.44543146059E+03 -0.48989260162E+03  0.69812515570E+03  0.92497005883E+02 0.  0.
          1    1    3    3  502    0 -0.36846542265E+02 -0.20599518218E+02 -0.59493180468E+02  0.72948244324E+02  0.00000000000E+00 0. -1.
         -1    1    3    3    0  502 -0.81738823067E+02 -0.31090666102E+03 -0.44648469878E+03  0.55017522055E+03  0.00000000000E+00 0.  1.
         11    1    5    5    0    0  0.28044236122E+03 -0.95266407856E+02  0.86795985353E+02  0.30863756982E+03  0.00000000000E+00 0. -1.
        -11    1    5    5    0    0  0.39187998380E+02 -0.18658873503E+02 -0.21498411267E+02  0.48435879928E+02  0.00000000000E+00 0.  1.
          1    1    6    6  503    0 -0.16500193376E+03  0.41543075500E+03 -0.46510455984E+03  0.64508185676E+03  0.00000000000E+00 0. -1.
         -1    1    6    6    0  503 -0.36043060509E+02  0.30000705599E+02 -0.24788041780E+02  0.53043298941E+02  0.00000000000E+00 0.  1.
<mgrwt>
<rscale>  0 0.13967101E+04</rscale>
<asrwt>0</asrwt>
<pdfrwt beam="1">  1        2 0.20068423E+00 0.13967101E+04</pdfrwt>
<pdfrwt beam="2">  1       -2 0.57519165E-01 0.13967101E+04</pdfrwt>
<totfact> 0.45286993E+01</totfact>
</mgrwt>
</event>
<event>
12    2  0.8147979E-008  0.2682468E+04  0.7818608E-02  0.8340716E-01
         -1   -1    0    0    0  501 -0.00000000000E+00  0.00000000000E+00  0.93879801999E+03  0.93879801999E+03  0.00000000000E+00 0.  1.
          1   -1    0    0  501    0  0.00000000000E+00 -0.00000000000E+00 -0.19161834237E+04  0.19161834237E+04  0.00000000000E+00 0. -1.
         23    2    1    2    0    0 -0.10516758653E+04  0.47851309891E+03 -0.13906787086E+03  0.11674323568E+04  0.92528501144E+02 0.  0.
        254    2    1    2    0    0  0.10516758653E+04 -0.47851309891E+03 -0.83831753282E+03  0.16875490869E+04  0.90002706813E+03 0.  0.
         23    2    4    4    0    0  0.68913794469E+03 -0.51487205661E+03 -0.11484360445E+03  0.87218597683E+03  0.86689002787E+02 0.  0.
         23    2    4    4    0    0  0.36253792058E+03  0.36358957697E+02 -0.72347392837E+03  0.81536311005E+03  0.92987948333E+02 0.  0.
          4    1    3    3  502    0 -0.40496925939E+03  0.22631991670E+03 -0.80200623791E+02  0.47080032477E+03  0.00000000000E+00 0. -1.
         -4    1    3    3    0  502 -0.64670660589E+03  0.25219318221E+03 -0.58867247072E+02  0.69663203202E+03  0.00000000000E+00 0.  1.
         11    1    5    5    0    0  0.59286059845E+03 -0.43120528651E+03 -0.67735741905E+02  0.73621316142E+03  0.00000000000E+00 0. -1.
        -11    1    5    5    0    0  0.96277346242E+02 -0.83666770099E+02 -0.47107862547E+02  0.13597281541E+03  0.00000000000E+00 0.  1.
          1    1    6    6  503    0  0.36395403136E+03  0.42588149161E+02 -0.68980591127E+03  0.78109441338E+03  0.00000000000E+00 0. -1.
         -1    1    6    6    0  503 -0.14161107759E+01 -0.62291914643E+01 -0.33668017101E+02  0.34268696671E+02  0.00000000000E+00 0.  1.
<mgrwt>
<rscale>  0 0.26824684E+04</rscale>
<asrwt>0</asrwt>
<pdfrwt beam="1">  1        1 0.29479745E+00 0.26824684E+04</pdfrwt>
<pdfrwt beam="2">  1       -1 0.14443047E+00 0.26824684E+04</pdfrwt>
<totfact> 0.11468498E+00</totfact>
</mgrwt>
</event>
<event>
12    2  0.8147979E-008  0.3144649E+04  0.7818608E-02  0.8203590E-01
         -1   -1    0    0    0  501 -0.00000000000E+00  0.00000000000E+00  0.19553111106E+04  0.19553111106E+04  0.00000000000E+00 0.  1.
          1   -1    0    0  501    0  0.00000000000E+00 -0.00000000000E+00 -0.12643532638E+04  0.12643532638E+04  0.00000000000E+00 0. -1.
         23    2    1    2    0    0  0.85729221175E+03  0.67912259890E+03 -0.64443347518E+03  0.12732698363E+04  0.98813619089E+02 0.  0.
        254    2    1    2    0    0 -0.85729221175E+03 -0.67912259890E+03  0.13353913220E+04  0.19463945382E+04  0.89945776713E+03 0.  0.
         23    2    4    4    0    0 -0.77131274636E+03 -0.82796593527E+03  0.13330028096E+04  0.17507991963E+04  0.89164975336E+02 0.  0.
         23    2    4    4    0    0 -0.85979465383E+02  0.14884333637E+03  0.23885123704E+01  0.19559534185E+03  0.93300726231E+02 0.  0.
          4    1    3    3  502    0  0.27849961981E+03  0.16606352829E+03 -0.17403355631E+03  0.36800382115E+03  0.00000000000E+00 0. -1.
         -4    1    3    3    0  502  0.57879259193E+03  0.51305907061E+03 -0.47039991887E+03  0.90526601510E+03  0.00000000000E+00 0.  1.
         11    1    5    5    0    0 -0.54932200948E+03 -0.54171465823E+03  0.86690923673E+03  0.11604917345E+04  0.00000000000E+00 0.  1.
        -11    1    5    5    0    0 -0.22199073688E+03 -0.28625127704E+03  0.46609357287E+03  0.59030746186E+03  0.00000000000E+00 0. -1.
          4    1    6    6  503    0 -0.88780137913E+02  0.64001339231E+02  0.12286913243E+02  0.11013197786E+03  0.00000000000E+00 0. -1.
         -4    1    6    6    0  503  0.28006725297E+01  0.84841997137E+02 -0.98984008723E+01  0.85463363991E+02  0.00000000000E+00 0.  1.
<mgrwt>
<rscale>  0 0.31446488E+04</rscale>
<asrwt>0</asrwt>
<pdfrwt beam="1">  1        1 0.19451589E+00 0.31446488E+04</pdfrwt>
<pdfrwt beam="2">  1       -1 0.30081710E+00 0.31446488E+04</pdfrwt>
<totfact> 0.26310209E-01</totfact>
</mgrwt>
</event>
<event>
12    2  0.8147979E-008  0.3405226E+04  0.7818608E-02  0.8136625E-01
         -2   -1    0    0    0  501 -0.00000000000E+00  0.00000000000E+00  0.14304822493E+04  0.14304822493E+04  0.00000000000E+00 0.  1.
          2   -1    0    0  501    0  0.00000000000E+00 -0.00000000000E+00 -0.20265137000E+04  0.20265137000E+04  0.00000000000E+00 0. -1.
         23    2    1    2    0    0  0.94803062658E+03  0.11995867235E+04  0.10764394406E+03  0.15356729529E+04  0.94518905822E+02 0.  0.
        254    2    1    2    0    0 -0.94803062658E+03 -0.11995867235E+04 -0.70367539471E+03  0.19213229963E+04  0.92658114540E+03 0.  0.
         23    2    4    4    0    0 -0.56166391686E+03 -0.50466195655E+03  0.12407241772E+03  0.77027234766E+03  0.88178675663E+02 0.  0.
         23    2    4    4    0    0 -0.38636670973E+03 -0.69492476694E+03 -0.82774781243E+03  0.11510506487E+04  0.86899302306E+02 0.  0.
          1    1    3    3  502    0  0.56511774877E+03  0.77053631178E+03  0.97462327539E+02  0.96051193800E+03  0.00000000000E+00 0. -1.
         -1    1    3    3    0  502  0.38291287782E+03  0.42905041171E+03  0.10181616519E+02  0.57516101493E+03  0.00000000000E+00 0.  1.
         11    1    5    5    0    0 -0.50284953689E+03 -0.44847581805E+03  0.82181109193E+02  0.67877975134E+03  0.00000000000E+00 0.  1.
        -11    1    5    5    0    0 -0.58814379971E+02 -0.56186138503E+02  0.41891308529E+02  0.91492596321E+02  0.00000000000E+00 0. -1.
          2    1    6    6  503    0 -0.18454005805E+03 -0.41800557666E+03 -0.45866996701E+03  0.64742708762E+03  0.00000000000E+00 0. -1.
         -2    1    6    6    0  503 -0.20182665168E+03 -0.27691919028E+03 -0.36907784542E+03  0.50362356105E+03  0.00000000000E+00 0.  1.
<mgrwt>
<rscale>  0 0.34052265E+04</rscale>
<asrwt>0</asrwt>
<pdfrwt beam="1">  1        2 0.31177134E+00 0.34052265E+04</pdfrwt>
<pdfrwt beam="2">  1       -2 0.22007419E+00 0.34052265E+04</pdfrwt>
<totfact> 0.52800066E-01</totfact>
</mgrwt>
</event>
<event>
12    2  0.8147979E-008  0.2489213E+04  0.7818608E-02  0.8406839E-01
          1   -1    0    0  501    0  0.00000000000E+00  0.00000000000E+00  0.26405703114E+04  0.26405703114E+04  0.00000000000E+00 0. -1.
         -1   -1    0    0    0  501 -0.00000000000E+00 -0.00000000000E+00 -0.58663272975E+03  0.58663272975E+03  0.00000000000E+00 0.  1.
         23    2    1    2    0    0  0.56443931668E+03  0.83134741275E+03  0.14058091599E+04  0.17304046549E+04  0.90942908907E+02 0.  0.
        254    2    1    2    0    0 -0.56443931668E+03 -0.83134741275E+03  0.64812842172E+03  0.14967983862E+04  0.90033587903E+03 0.  0.
         23    2    4    4    0    0 -0.36261752791E+03 -0.66880537853E+03  0.86002589628E+03  0.11516559380E+04  0.88739796343E+02 0.  0.
         23    2    4    4    0    0 -0.20182178877E+03 -0.16254203422E+03 -0.21189747456E+03  0.34514244818E+03  0.84088182890E+02 0.  0.
          4    1    3    3  502    0  0.15266420930E+03  0.16434793286E+03  0.28508339775E+03  0.36275218470E+03  0.00000000000E+00 0.  1.
         -4    1    3    3    0  502  0.41177510738E+03  0.66699947990E+03  0.11207257621E+04  0.13676524702E+04  0.00000000000E+00 0. -1.
         11    1    5    5    0    0 -0.35521527809E+03 -0.64310822977E+03  0.80130188039E+03  0.10871296116E+04  0.00000000000E+00 0. -1.
        -11    1    5    5    0    0 -0.74022498253E+01 -0.25697148760E+02  0.58724015890E+02  0.64526326403E+02  0.00000000000E+00 0.  1.
          4    1    6    6  503    0 -0.20526700830E+03 -0.16063453732E+03 -0.18913150538E+03  0.32203839151E+03  0.00000000000E+00 0. -1.
         -4    1    6    6    0  503  0.34452195363E+01 -0.19074969023E+01 -0.22765969179E+02  0.23104056673E+02  0.00000000000E+00 0.  1.
<mgrwt>
<rscale>  0 0.24892127E+04</rscale>
<asrwt>0</asrwt>
<pdfrwt beam="1">  1        1 0.40624158E+00 0.24892127E+04</pdfrwt>
<pdfrwt beam="2">  1       -1 0.90251191E-01 0.24892127E+04</pdfrwt>
<totfact> 0.11533646E+00</totfact>
</mgrwt>
</event>
<event>
12    2  0.8147979E-008  0.2752750E+04  0.7818608E-02  0.8318090E-01
          2   -1    0    0  501    0  0.00000000000E+00  0.00000000000E+00  0.19874280316E+04  0.19874280316E+04  0.00000000000E+00 0. -1.
         -2   -1    0    0    0  501 -0.00000000000E+00 -0.00000000000E+00 -0.95319557681E+03  0.95319557681E+03  0.00000000000E+00 0.  1.
         23    2    1    2    0    0 -0.99897754366E+03  0.66011824007E+03  0.17370572065E+03  0.12137333475E+04  0.96243118342E+02 0.  0.
        254    2    1    2    0    0  0.99897754366E+03 -0.66011824007E+03  0.86052673416E+03  0.17268902609E+04  0.89885009291E+03 0.  0.
         23    2    4    4    0    0  0.89752618211E+03 -0.84444125729E+03  0.58097126076E+03  0.13655383806E+04  0.92375204531E+02 0.  0.
         23    2    4    4    0    0  0.10145136155E+03  0.18432301722E+03  0.27955547340E+03  0.36135188037E+03  0.90313704940E+02 0.  0.
          2    1    3    3  502    0 -0.81004112862E+03  0.50595224621E+03  0.10780475501E+03  0.96113275394E+03  0.00000000000E+00 0.  1.
         -2    1    3    3    0  502 -0.18893641504E+03  0.15416599386E+03  0.65900965641E+02  0.25260059355E+03  0.00000000000E+00 0. -1.
         11    1    5    5    0    0  0.45199821157E+03 -0.36515164941E+03  0.28923024169E+03  0.64907029129E+03  0.00000000000E+00 0. -1.
        -11    1    5    5    0    0  0.44552797054E+03 -0.47928960788E+03  0.29174101907E+03  0.71646808929E+03  0.00000000000E+00 0.  1.
          1    1    6    6  503    0 -0.24365656303E+00  0.84567417976E+02  0.12745367537E+03  0.15295799070E+03  0.00000000000E+00 0. -1.
         -1    1    6    6    0  503  0.10169501811E+03  0.99755599245E+02  0.15210179803E+03  0.20839388967E+03  0.00000000000E+00 0.  1.
<mgrwt>
<rscale>  0 0.27527496E+04</rscale>
<asrwt>0</asrwt>
<pdfrwt beam="1">  1        2 0.30575816E+00 0.27527496E+04</pdfrwt>
<pdfrwt beam="2">  1       -2 0.14664547E+00 0.27527496E+04</pdfrwt>
<totfact> 0.18867142E+00</totfact>
</mgrwt>
</event>
<event>
12    2  0.8147979E-008  0.2170039E+04  0.7818608E-02  0.8531003E-01
         -1   -1    0    0    0  501 -0.00000000000E+00  0.00000000000E+00  0.84454799997E+03  0.84454799997E+03  0.00000000000E+00 0.  1.
          1   -1    0    0  501    0  0.00000000000E+00 -0.00000000000E+00 -0.13939608927E+04  0.13939608927E+04  0.00000000000E+00 0. -1.
         23    2    1    2    0    0  0.69657462602E+03  0.47394144677E+03  0.84460692877E+02  0.85169416990E+03  0.91720476558E+02 0.  0.
        254    2    1    2    0    0 -0.69657462602E+03 -0.47394144677E+03 -0.63387358566E+03  0.13868147228E+04  0.90090102022E+03 0.  0.
         23    2    4    4    0    0  0.16957519599E+03 -0.17917008295E+03 -0.32252112445E+03  0.41661238395E+03  0.93211249445E+02 0.  0.
         23    2    4    4    0    0 -0.86614982201E+03 -0.29477136382E+03 -0.31135246120E+03  0.97020233886E+03  0.85126682792E+02 0.  0.
          4    1    3    3  502    0  0.56639141972E+03  0.37131781226E+03  0.10241403552E+03  0.68495605166E+03  0.00000000000E+00 0.  1.
         -4    1    3    3    0  502  0.13018320630E+03  0.10262363452E+03 -0.17953342639E+02  0.16673811825E+03  0.00000000000E+00 0. -1.
         11    1    5    5    0    0  0.71732159031E+02 -0.99667591531E+02 -0.90467459578E+02  0.15252374465E+03  0.00000000000E+00 0. -1.
        -11    1    5    5    0    0  0.97843036962E+02 -0.79502491418E+02 -0.23205366488E+03  0.26408863930E+03  0.00000000000E+00 0.  1.
          3    1    6    6  503    0 -0.79318773240E+03 -0.24653910588E+03 -0.29340240516E+03  0.88091615998E+03  0.00000000000E+00 0. -1.
         -3    1    6    6    0  503 -0.72962089615E+02 -0.48232257940E+02 -0.17950056045E+02  0.89286178880E+02  0.00000000000E+00 0.  1.
<mgrwt>
<rscale>  0 0.21700386E+04</rscale>
<asrwt>0</asrwt>
<pdfrwt beam="1">  1        1 0.21445552E+00 0.21700386E+04</pdfrwt>
<pdfrwt beam="2">  1       -1 0.12993046E+00 0.21700386E+04</pdfrwt>
<totfact> 0.36016746E+00</totfact>
</mgrwt>
</event>
<event>
12    2  0.8147979E-008  0.2356637E+04  0.7818608E-02  0.8455919E-01
          2   -1    0    0  501    0  0.00000000000E+00  0.00000000000E+00  0.15933326448E+04  0.15933326448E+04  0.00000000000E+00 0. -1.
         -2   -1    0    0    0  501 -0.00000000000E+00 -0.00000000000E+00 -0.87140275571E+03  0.87140275571E+03  0.00000000000E+00 0.  1.
         23    2    1    2    0    0  0.66658171509E+03  0.39629641427E+03  0.97848208671E+03  0.12518030690E+04  0.90563229913E+02 0.  0.
        254    2    1    2    0    0 -0.66658171509E+03 -0.39629641427E+03 -0.25655219759E+03  0.12129323316E+04  0.89666257869E+03 0.  0.
         23    2    4    4    0    0  0.20257531882E+02 -0.30943509228E+03 -0.38456898739E+03  0.50237912438E+03  0.91274501453E+02 0.  0.
         23    2    4    4    0    0 -0.68683924698E+03 -0.86861321995E+02  0.12801678980E+03  0.71055320719E+03  0.95940196653E+02 0.  0.
          1    1    3    3  502    0  0.16940655787E+03  0.63314847041E+02  0.19507181109E+03  0.26600820135E+03  0.00000000000E+00 0. -1.
         -1    1    3    3    0  502  0.49717515722E+03  0.33298156723E+03  0.78341027562E+03  0.98579486762E+03  0.00000000000E+00 0.  1.
         11    1    5    5    0    0  0.21305427049E+02 -0.85872360300E+02 -0.55137273860E+02  0.10425019163E+03  0.00000000000E+00 0.  1.
        -11    1    5    5    0    0 -0.10478951672E+01 -0.22356273198E+03 -0.32943171353E+03  0.39812893275E+03  0.00000000000E+00 0. -1.
          1    1    6    6  503    0 -0.53460952419E+03 -0.73750825326E+02  0.58975542828E+02  0.54288547802E+03  0.00000000000E+00 0. -1.
         -1    1    6    6    0  503 -0.15222972278E+03 -0.13110496669E+02  0.69041246974E+02  0.16766772917E+03  0.00000000000E+00 0.  1.
<mgrwt>
<rscale>  0 0.23566370E+04</rscale>
<asrwt>0</asrwt>
<pdfrwt beam="1">  1        2 0.24512810E+00 0.23566370E+04</pdfrwt>
<pdfrwt beam="2">  1       -2 0.13406196E+00 0.23566370E+04</pdfrwt>
<totfact> 0.40772666E+00</totfact>
</mgrwt>
</event>
<event>
12    2  0.8147979E-008  0.2218317E+04  0.7818608E-02  0.8510842E-01
          2   -1    0    0  501    0  0.00000000000E+00  0.00000000000E+00  0.22872522030E+04  0.22872522030E+04  0.00000000000E+00 0. -1.
         -2   -1    0    0    0  501 -0.00000000000E+00 -0.00000000000E+00 -0.53786505076E+03  0.53786505076E+03  0.00000000000E+00 0.  1.
         23    2    1    2    0    0  0.62177244105E+03 -0.51113700990E+03  0.15828342022E+03  0.82541502641E+03  0.91620485568E+02 0.  0.
        254    2    1    2    0    0 -0.62177244105E+03  0.51113700990E+03  0.15911037321E+04  0.19997022274E+04  0.90517175204E+03 0.  0.
         23    2    4    4    0    0 -0.30396104445E+03  0.30934503615E+03  0.15483878472E+04  0.16105072097E+04  0.90232362231E+02 0.  0.
         23    2    4    4    0    0 -0.31781139661E+03  0.20179197374E+03  0.42715884826E+02  0.38919501766E+03  0.89017023490E+02 0.  0.
          4    1    3    3  502    0  0.12308646449E+03 -0.75146155022E+02 -0.64825050353E+00  0.14421387792E+03  0.00000000000E+00 0. -1.
         -4    1    3    3    0  502  0.49868597656E+03 -0.43599085487E+03  0.15893167072E+03  0.68120114849E+03  0.00000000000E+00 0.  1.
         11    1    5    5    0    0 -0.17314295727E+03  0.11392794765E+03  0.68540401524E+03  0.71605637000E+03  0.00000000000E+00 0.  1.
        -11    1    5    5    0    0 -0.13081808717E+03  0.19541708850E+03  0.86298383198E+03  0.89445083972E+03  0.00000000000E+00 0. -1.
          3    1    6    6  503    0 -0.22136146723E+03  0.97324462022E+02  0.49595889280E+02  0.24684550293E+03  0.00000000000E+00 0. -1.
         -3    1    6    6    0  503 -0.96449929377E+02  0.10446751172E+03 -0.68800044547E+01  0.14234951473E+03  0.00000000000E+00 0.  1.
<mgrwt>
<rscale>  0 0.22183174E+04</rscale>
<asrwt>0</asrwt>
<pdfrwt beam="1">  1        2 0.35188495E+00 0.22183174E+04</pdfrwt>
<pdfrwt beam="2">  1       -2 0.82748471E-01 0.22183174E+04</pdfrwt>
<totfact> 0.53876522E+00</totfact>
</mgrwt>
</event>
<event>
12    2  0.8147979E-008  0.1698453E+04  0.7818608E-02  0.8762247E-01
         -2   -1    0    0    0  501 -0.00000000000E+00  0.00000000000E+00  0.90404314443E+03  0.90404314443E+03  0.00000000000E+00 0.  1.
          2   -1    0    0  501    0  0.00000000000E+00 -0.00000000000E+00 -0.79773342849E+03  0.79773342849E+03  0.00000000000E+00 0. -1.
         23    2    1    2    0    0  0.19400030522E+03  0.14405437132E+03 -0.52006738516E+03  0.58065689991E+03  0.91129413396E+02 0.  0.
        254    2    1    2    0    0 -0.19400030522E+03 -0.14405437132E+03  0.62637710109E+03  0.11211196730E+04  0.89787152094E+03 0.  0.
         23    2    4    4    0    0 -0.23827053391E+03 -0.46460761927E+03  0.57419116288E+03  0.78092423356E+03  0.86683792201E+02 0.  0.
         23    2    4    4    0    0  0.44270228682E+02  0.32055324796E+03  0.52185938220E+02  0.34019543944E+03  0.91078685478E+02 0.  0.
          1    1    3    3  502    0  0.13184189245E+03  0.10942090811E+03 -0.44679599421E+03  0.47852051176E+03  0.00000000000E+00 0. -1.
         -1    1    3    3    0  502  0.62158412773E+02  0.34633463209E+02 -0.73271390949E+02  0.10213638815E+03  0.00000000000E+00 0.  1.
         11    1    5    5    0    0 -0.60580606066E+02 -0.20260270520E+03  0.20395845375E+03  0.29379740782E+03  0.00000000000E+00 0. -1.
        -11    1    5    5    0    0 -0.17768992784E+03 -0.26200491408E+03  0.37023270913E+03  0.48712682575E+03  0.00000000000E+00 0.  1.
          4    1    6    6  503    0  0.15039513509E+02  0.27754314021E+03  0.19198940508E+02  0.27861260015E+03  0.00000000000E+00 0. -1.
         -4    1    6    6    0  503  0.29230715173E+02  0.43010107745E+02  0.32986997712E+02  0.61582839296E+02  0.00000000000E+00 0.  1.
<mgrwt>
<rscale>  0 0.16984528E+04</rscale>
<asrwt>0</asrwt>
<pdfrwt beam="1">  1        2 0.12272822E+00 0.16984528E+04</pdfrwt>
<pdfrwt beam="2">  1       -2 0.13908356E+00 0.16984528E+04</pdfrwt>
<totfact> 0.12018176E+01</totfact>
</mgrwt>
</event>
<event>
12    2  0.8147979E-008  0.1519862E+04  0.7818608E-02  0.8871351E-01
         -2   -1    0    0    0  501 -0.00000000000E+00  0.00000000000E+00  0.11101103767E+04  0.11101103767E+04  0.00000000000E+00 0.  1.
          2   -1    0    0  501    0  0.00000000000E+00 -0.00000000000E+00 -0.52021424491E+03  0.52021424491E+03  0.00000000000E+00 0. -1.
         23    2    1    2    0    0  0.16765878055E+02 -0.12543528329E+03  0.69783648323E+03  0.71504890525E+03  0.91126695390E+02 0.  0.
        254    2    1    2    0    0 -0.16765878055E+02  0.12543528329E+03 -0.10794035140E+03  0.91527571641E+03  0.90003522855E+03 0.  0.
         23    2    4    4    0    0 -0.13260245901E+03 -0.25326288436E+03  0.23591594687E+03  0.38325388083E+03  0.97476676463E+02 0.  0.
         23    2    4    4    0    0  0.11583658096E+03  0.37869816765E+03 -0.34385629827E+03  0.53202183558E+03  0.89328965110E+02 0.  0.
          1    1    3    3  502    0 -0.36711806321E+02 -0.59012305987E+02  0.27037771653E+03  0.27916718750E+03  0.00000000000E+00 0. -1.
         -1    1    3    3    0  502  0.53477684375E+02 -0.66422977302E+02  0.42745876670E+03  0.43588171775E+03  0.00000000000E+00 0.  1.
         11    1    5    5    0    0  0.74490198051E+01 -0.28446747283E+02  0.13303187994E+01  0.29435948688E+02  0.00000000000E+00 0. -1.
        -11    1    5    5    0    0 -0.14005147882E+03 -0.22481613707E+03  0.23458562807E+03  0.35381793214E+03  0.00000000000E+00 0.  1.
          4    1    6    6  503    0  0.45593384645E+02  0.61394976685E+02 -0.36585359218E+02  0.84773748263E+02  0.00000000000E+00 0. -1.
         -4    1    6    6    0  503  0.70243196310E+02  0.31730319096E+03 -0.30727093905E+03  0.44724808732E+03  0.00000000000E+00 0.  1.
<mgrwt>
<rscale>  0 0.15198621E+04</rscale>
<asrwt>0</asrwt>
<pdfrwt beam="1">  1        2 0.80032961E-01 0.15198621E+04</pdfrwt>
<pdfrwt beam="2">  1       -2 0.17078621E+00 0.15198621E+04</pdfrwt>
<totfact> 0.11921718E+01</totfact>
</mgrwt>
</event>
<event>
12    2  0.8147979E-008  0.1514495E+04  0.7818608E-02  0.8874871E-01
         -4   -1    0    0    0  501 -0.00000000000E+00  0.00000000000E+00  0.22935235851E+04  0.22935235851E+04  0.00000000000E+00 0.  1.
          4   -1    0    0  501    0  0.00000000000E+00 -0.00000000000E+00 -0.25001864658E+03  0.25001864658E+03  0.00000000000E+00 0. -1.
         23    2    1    2    0    0 -0.43475239727E+03  0.20455844110E+03  0.58436007608E+03  0.76192573105E+03  0.90555609235E+02 0.  0.
        254    2    1    2    0    0  0.43475239727E+03 -0.20455844110E+03  0.14591448624E+04  0.17816165006E+04  0.90233021837E+03 0.  0.
         23    2    4    4    0    0  0.55071777569E+03  0.76554114996E+02  0.44324400839E+03  0.71727466159E+03  0.94165217571E+02 0.  0.
         23    2    4    4    0    0 -0.11596537842E+03 -0.28111255609E+03  0.10159008541E+04  0.10643418390E+04  0.91086590046E+02 0.  0.
          4    1    3    3  502    0 -0.35172225705E+03  0.17650835528E+03  0.41931849288E+03  0.57505803538E+03  0.00000000000E+00 0. -1.
         -4    1    3    3    0  502 -0.83030140227E+02  0.28050085824E+02  0.16504158320E+03  0.18686769567E+03  0.00000000000E+00 0.  1.
         11    1    5    5    0    0  0.46253381264E+03  0.39189833801E+02  0.33324342867E+03  0.57142327014E+03  0.00000000000E+00 0. -1.
        -11    1    5    5    0    0  0.88183963054E+02  0.37364281194E+02  0.11000057972E+03  0.14585139145E+03  0.00000000000E+00 0.  1.
          3    1    6    6  503    0 -0.11566355380E+03 -0.26398870440E+03  0.10009141890E+04  0.10415840377E+04  0.00000000000E+00 0. -1.
         -3    1    6    6    0  503 -0.30182461924E+00 -0.17123851699E+02  0.14986665041E+02  0.22757801392E+02  0.00000000000E+00 0.  1.
<mgrwt>
<rscale>  0 0.15144948E+04</rscale>
<asrwt>0</asrwt>
<pdfrwt beam="1">  1        4 0.38464409E-01 0.15144948E+04</pdfrwt>
<pdfrwt beam="2">  1       -4 0.35284977E+00 0.15144948E+04</pdfrwt>
<totfact> 0.18294811E-01</totfact>
</mgrwt>
</event>
<event>
12    2  0.8147979E-008  0.1560018E+04  0.7818608E-02  0.8845494E-01
          2   -1    0    0  501    0  0.00000000000E+00  0.00000000000E+00  0.14475767561E+04  0.14475767561E+04  0.00000000000E+00 0.  1.
         -2   -1    0    0    0  501 -0.00000000000E+00 -0.00000000000E+00 -0.42029853914E+03  0.42029853914E+03  0.00000000000E+00 0. -1.
         23    2    1    2    0    0  0.52744697562E+02  0.50824839217E+03  0.41458082289E+03  0.66440853960E+03  0.91994660273E+02 0.  0.
        254    2    1    2    0    0 -0.52744697562E+02 -0.50824839217E+03  0.61269739408E+03  0.12034667556E+04  0.90101925838E+03 0.  0.
         23    2    4    4    0    0  0.41483717775E+03 -0.21412468028E+03  0.29503452228E+03  0.55975917819E+03  0.91354832814E+02 0.  0.
         23    2    4    4    0    0 -0.46758187532E+03 -0.29412371188E+03  0.31766287179E+03  0.64370757745E+03  0.91149202641E+02 0.  0.
          1    1    3    3  502    0  0.55418778131E+02  0.39278129866E+03  0.27225163311E+03  0.48111260769E+03  0.00000000000E+00 0. -1.
         -1    1    3    3    0  502 -0.26740805693E+01  0.11546709350E+03  0.14232918978E+03  0.18329593190E+03  0.00000000000E+00 0.  1.
         11    1    5    5    0    0  0.13256827204E+03 -0.23775760296E+02  0.95993527469E+02  0.16539162870E+03  0.00000000000E+00 0. -1.
        -11    1    5    5    0    0  0.28226890572E+03 -0.19034891999E+03  0.19904099482E+03  0.39436754949E+03  0.00000000000E+00 0.  1.
          1    1    6    6  503    0 -0.35930505224E+03 -0.23537941556E+03  0.20174387279E+03  0.47455682489E+03  0.00000000000E+00 0. -1.
         -1    1    6    6    0  503 -0.10827682307E+03 -0.58744296319E+02  0.11591899900E+03  0.16915075257E+03  0.00000000000E+00 0.  1.
<mgrwt>
<rscale>  0 0.15600185E+04</rscale>
<asrwt>0</asrwt>
<pdfrwt beam="1">  1        2 0.22270411E+00 0.15600185E+04</pdfrwt>
<pdfrwt beam="2">  1       -2 0.64661314E-01 0.15600185E+04</pdfrwt>
<totfact> 0.28863925E+01</totfact>
</mgrwt>
</event>
<event>
12    2  0.8147979E-008  0.2817524E+04  0.7818608E-02  0.8297848E-01
         -2   -1    0    0    0  501 -0.00000000000E+00  0.00000000000E+00  0.13690585676E+04  0.13690585676E+04  0.00000000000E+00 0.  1.
          2   -1    0    0  501    0  0.00000000000E+00 -0.00000000000E+00 -0.14496171690E+04  0.14496171690E+04  0.00000000000E+00 0. -1.
         23    2    1    2    0    0 -0.88009067849E+03 -0.49396920586E+03  0.72331792983E+03  0.12452265906E+04  0.93996041028E+02 0.  0.
        254    2    1    2    0    0  0.88009067849E+03  0.49396920586E+03 -0.80387653130E+03  0.15734491460E+04  0.90053293037E+03 0.  0.
         23    2    4    4    0    0  0.58481863661E+03  0.69183541589E+03 -0.31773900390E+03  0.96441622316E+03  0.92149316231E+02 0.  0.
         23    2    4    4    0    0  0.29527204188E+03 -0.19786621004E+03 -0.48613752740E+03  0.60903292281E+03  0.90855873393E+02 0.  0.
          1    1    3    3  502    0 -0.46658367286E+03 -0.29361243496E+03  0.44069174428E+03  0.70577460936E+03  0.00000000000E+00 0. -1.
         -1    1    3    3    0  502 -0.41350700563E+03 -0.20035677090E+03  0.28262618555E+03  0.53945198128E+03  0.00000000000E+00 0.  1.
         11    1    5    5    0    0  0.27017225794E+01  0.54588775745E+01 -0.12797463561E+02  0.14172992728E+02  0.00000000000E+00 0. -1.
        -11    1    5    5    0    0  0.58211691403E+03  0.68637653832E+03 -0.30494154034E+03  0.95024323043E+03  0.00000000000E+00 0.  1.
          1    1    6    6  503    0  0.48068401303E+02 -0.19032499827E+02 -0.13098624823E+03  0.14081975884E+03  0.00000000000E+00 0. -1.
         -1    1    6    6    0  503  0.24720364057E+03 -0.17883371021E+03 -0.35515127917E+03  0.46821316397E+03  0.00000000000E+00 0.  1.
<mgrwt>
<rscale>  0 0.28175243E+04</rscale>
<asrwt>0</asrwt>
<pdfrwt beam="1">  1        2 0.22301802E+00 0.28175243E+04</pdfrwt>
<pdfrwt beam="2">  1       -2 0.21062440E+00 0.28175243E+04</pdfrwt>
<totfact> 0.13365622E+00</totfact>
</mgrwt>
</event>
<event>
12    2  0.8147979E-008  0.2080346E+04  0.7818608E-02  0.8569951E-01
         -2   -1    0    0    0  501 -0.00000000000E+00  0.00000000000E+00  0.15222898846E+04  0.15222898846E+04  0.00000000000E+00 0.  1.
          2   -1    0    0  501    0  0.00000000000E+00 -0.00000000000E+00 -0.71074466540E+03  0.71074466540E+03  0.00000000000E+00 0. -1.
         23    2    1    2    0    0  0.47361577718E+03  0.70918048024E+02 -0.41590219784E+03  0.63736358785E+03  0.62581395165E+02 0.  0.
        254    2    1    2    0    0 -0.47361577718E+03 -0.70918048024E+02  0.12274474170E+04  0.15956709622E+04  0.90010965107E+03 0.  0.
         23    2    4    4    0    0 -0.27979207698E+03  0.39973635689E+03  0.69084395447E+03  0.85047974221E+03  0.89317753635E+02 0.  0.
         23    2    4    4    0    0 -0.19382370020E+03 -0.47065440492E+03  0.53660346257E+03  0.74519121995E+03  0.91013639750E+02 0.  0.
          2    1    3    3  502    0  0.24169089481E+03  0.67654710073E+02 -0.21213069747E+03  0.32861996476E+03  0.00000000000E+00 0. -1.
         -2    1    3    3    0  502  0.23192488237E+03  0.32633379506E+01 -0.20377150037E+03  0.30874362309E+03  0.00000000000E+00 0.  1.
         11    1    5    5    0    0 -0.11969865838E+02 -0.25028258208E-01  0.35419519385E+02  0.37387439978E+02  0.00000000000E+00 0.  1.
        -11    1    5    5    0    0 -0.26782221114E+03  0.39976138515E+03  0.65542443508E+03  0.81309230223E+03  0.00000000000E+00 0. -1.
          3    1    6    6  503    0 -0.15782926184E+03 -0.41874403701E+03  0.50436848741E+03  0.67427310159E+03  0.00000000000E+00 0. -1.
         -3    1    6    6    0  503 -0.35994438359E+02 -0.51910367906E+02  0.32234975155E+02  0.70918118363E+02  0.00000000000E+00 0.  1.
<mgrwt>
<rscale>  0 0.20803456E+04</rscale>
<asrwt>0</asrwt>
<pdfrwt beam="1">  1        2 0.10934533E+00 0.20803456E+04</pdfrwt>
<pdfrwt beam="2">  1       -2 0.23419844E+00 0.20803456E+04</pdfrwt>
<totfact> 0.29844094E+00</totfact>
</mgrwt>
</event>
<event>
12    2  0.8147979E-008  0.1575139E+04  0.7818608E-02  0.8835968E-01
         -1   -1    0    0    0  501 -0.00000000000E+00  0.00000000000E+00  0.20099271962E+03  0.20099271962E+03  0.00000000000E+00 0.  1.
          1   -1    0    0  501    0  0.00000000000E+00 -0.00000000000E+00 -0.30860123851E+04  0.30860123851E+04  0.00000000000E+00 0. -1.
         23    2    1    2    0    0 -0.28829528264E+03 -0.42826457036E+03 -0.77890891081E+03  0.93875709749E+03  0.89672094503E+02 0.  0.
        254    2    1    2    0    0  0.28829528264E+03  0.42826457036E+03 -0.21061107547E+04  0.23482480072E+04  0.90113344200E+03 0.  0.
         23    2    4    4    0    0 -0.30024687217E+03  0.27294900106E+03 -0.71632084573E+03  0.82820016103E+03  0.90280735832E+02 0.  0.
         23    2    4    4    0    0  0.58854215481E+03  0.15531556930E+03 -0.13897899089E+04  0.15200478462E+04  0.92329137918E+02 0.  0.
          4    1    3    3  502    0 -0.19348565887E+03 -0.26997669944E+03 -0.57271688827E+03  0.66206400939E+03  0.00000000000E+00 0. -1.
         -4    1    3    3    0  502 -0.94809623770E+02 -0.15828787092E+03 -0.20619202254E+03  0.27669308810E+03  0.00000000000E+00 0.  1.
         11    1    5    5    0    0 -0.28548259314E+03  0.21943842217E+03 -0.62692130060E+03  0.72296877474E+03  0.00000000000E+00 0. -1.
        -11    1    5    5    0    0 -0.14764279031E+02  0.53510578890E+02 -0.89399545135E+02  0.10523138628E+03  0.00000000000E+00 0.  1.
          3    1    6    6  503    0  0.40862137724E+03  0.63185707607E+02 -0.94144121434E+03  0.10282389915E+04  0.00000000000E+00 0. -1.
         -3    1    6    6    0  503  0.17992077756E+03  0.92129861697E+02 -0.44834869460E+03  0.49180885470E+03  0.00000000000E+00 0.  1.
<mgrwt>
<rscale>  0 0.15751394E+04</rscale>
<asrwt>0</asrwt>
<pdfrwt beam="1">  1        1 0.47477105E+00 0.15751394E+04</pdfrwt>
<pdfrwt beam="2">  1       -1 0.30921962E-01 0.15751394E+04</pdfrwt>
<totfact> 0.48360012E+00</totfact>
</mgrwt>
</event>
<event>
12    2  0.8147979E-008  0.2903348E+04  0.7818608E-02  0.8271882E-01
         -1   -1    0    0    0  501 -0.00000000000E+00  0.00000000000E+00  0.14254059960E+04  0.14254059960E+04  0.00000000000E+00 0.  1.
          1   -1    0    0  501    0  0.00000000000E+00 -0.00000000000E+00 -0.14784261346E+04  0.14784261346E+04  0.00000000000E+00 0. -1.
         23    2    1    2    0    0  0.32083369479E+03  0.10390988282E+03 -0.12886076158E+04  0.13349527807E+04  0.88644322291E+02 0.  0.
        254    2    1    2    0    0 -0.32083369479E+03 -0.10390988282E+03  0.12355874771E+04  0.15688793499E+04  0.90607641925E+03 0.  0.
         23    2    4    4    0    0 -0.23750859653E+03 -0.36194258475E+03  0.18351392376E+03  0.47909161649E+03  0.91862117835E+02 0.  0.
         23    2    4    4    0    0 -0.83325098256E+02  0.25803270193E+03  0.10520735533E+04  0.10897877334E+04  0.85173910256E+02 0.  0.
          3    1    3    3  502    0  0.22719347894E+03  0.42604549312E+02 -0.97321741565E+03  0.10002920387E+04  0.00000000000E+00 0. -1.
         -3    1    3    3    0  502  0.93640215846E+02  0.61305333504E+02 -0.31539020010E+03  0.33466074203E+03  0.00000000000E+00 0.  1.
         11    1    5    5    0    0 -0.27493517149E+02 -0.30666098352E+02  0.49942621001E+02  0.64734600222E+02  0.00000000000E+00 0. -1.
        -11    1    5    5    0    0 -0.21001507938E+03 -0.33127648640E+03  0.13357130276E+03  0.41435701627E+03  0.00000000000E+00 0.  1.
          3    1    6    6  503    0  0.11487371519E+02  0.42273109728E+01  0.29707338750E+02  0.32130294709E+02  0.00000000000E+00 0. -1.
         -3    1    6    6    0  503 -0.94812469775E+02  0.25380539096E+03  0.10223662146E+04  0.10576574387E+04  0.00000000000E+00 0.  1.
<mgrwt>
<rscale>  0 0.29033481E+04</rscale>
<asrwt>0</asrwt>
<pdfrwt beam="1">  1        1 0.22745017E+00 0.29033481E+04</pdfrwt>
<pdfrwt beam="2">  1       -1 0.21929323E+00 0.29033481E+04</pdfrwt>
<totfact> 0.64650500E-01</totfact>
</mgrwt>
</event>
<event>
12    2  0.8147979E-008  0.1741090E+04  0.7818608E-02  0.8738270E-01
         -3   -1    0    0    0  501 -0.00000000000E+00  0.00000000000E+00  0.28327278331E+03  0.28327278331E+03  0.00000000000E+00 0.  1.
          3   -1    0    0  501    0  0.00000000000E+00 -0.00000000000E+00 -0.26753305697E+04  0.26753305697E+04  0.00000000000E+00 0. -1.
         23    2    1    2    0    0  0.81238966330E+02 -0.41488117223E+03 -0.16870561969E+04  0.17407179850E+04  0.72210351917E+02 0.  0.
        254    2    1    2    0    0 -0.81238966330E+02  0.41488117223E+03 -0.70500158946E+03  0.12178853680E+04  0.89860523689E+03 0.  0.
         23    2    4    4    0    0 -0.30520300276E+03  0.22190904215E+03 -0.80440268700E+03  0.89278048584E+03  0.87182665468E+02 0.  0.
         23    2    4    4    0    0  0.22396403643E+03  0.19297213007E+03  0.99401097536E+02  0.32510488218E+03  0.91730440029E+02 0.  0.
          3    1    3    3  502    0  0.10815111191E+01 -0.17555303690E+03 -0.74913774549E+03  0.76943316809E+03  0.00000000000E+00 0. -1.
         -3    1    3    3    0  502  0.80157455211E+02 -0.23932813533E+03 -0.93791845143E+03  0.97128481689E+03  0.00000000000E+00 0.  1.
         11    1    5    5    0    0 -0.24780332817E+03  0.21482647140E+03 -0.70973150290E+03  0.78184122971E+03  0.00000000000E+00 0. -1.
        -11    1    5    5    0    0 -0.57399674586E+02  0.70825707528E+01 -0.94671184098E+02  0.11093925613E+03  0.00000000000E+00 0.  1.
          1    1    6    6  503    0  0.14843001479E+03  0.67461614023E+02  0.51180963021E+02  0.17088601357E+03  0.00000000000E+00 0. -1.
         -1    1    6    6    0  503  0.75534021643E+02  0.12551051605E+03  0.48220134515E+02  0.15421886862E+03  0.00000000000E+00 0.  1.
<mgrwt>
<rscale>  0 0.17410897E+04</rscale>
<asrwt>0</asrwt>
<pdfrwt beam="1">  1        3 0.41158933E+00 0.17410897E+04</pdfrwt>
<pdfrwt beam="2">  1       -3 0.43580427E-01 0.17410897E+04</pdfrwt>
<totfact> 0.12649494E-01</totfact>
</mgrwt>
</event>
<event>
12    2  0.8147979E-008  0.3142437E+04  0.7818608E-02  0.8204187E-01
         -1   -1    0    0    0  501 -0.00000000000E+00  0.00000000000E+00  0.71776653336E+03  0.71776653336E+03  0.00000000000E+00 0.  1.
          1   -1    0    0  501    0  0.00000000000E+00 -0.00000000000E+00 -0.34394567764E+04  0.34394567764E+04  0.00000000000E+00 0. -1.
         23    2    1    2    0    0  0.14266230510E+04  0.18956088858E+03 -0.12646274212E+04  0.19179665379E+04  0.90146911957E+02 0.  0.
        254    2    1    2    0    0 -0.14266230510E+04 -0.18956088858E+03 -0.14570628218E+04  0.22392567719E+04  0.90556731572E+03 0.  0.
         23    2    4    4    0    0 -0.15104215526E+04 -0.74677171527E+02 -0.12128791347E+04  0.19406428619E+04  0.89827477129E+02 0.  0.
         23    2    4    4    0    0  0.83798501536E+02 -0.11488371706E+03 -0.24418368714E+03  0.29861390995E+03  0.96561570248E+02 0.  0.
          4    1    3    3  502    0  0.91257814652E+03  0.15544105212E+03 -0.84785210578E+03  0.12553142983E+04  0.00000000000E+00 0. -1.
         -4    1    3    3    0  502  0.51404490452E+03  0.34119836465E+02 -0.41677531543E+03  0.66265223961E+03  0.00000000000E+00 0.  1.
         11    1    5    5    0    0 -0.12170693463E+04 -0.95063658138E+02 -0.98602533632E+03  0.15692485006E+04  0.00000000000E+00 0. -1.
        -11    1    5    5    0    0 -0.29335220632E+03  0.20386486611E+02 -0.22685379836E+03  0.37139436132E+03  0.00000000000E+00 0.  1.
          2    1    6    6  503    0 -0.11261427369E+02 -0.44654279146E+02 -0.11309762427E+03  0.12211427848E+03  0.00000000000E+00 0.  1.
         -2    1    6    6    0  503  0.95059928905E+02 -0.70229437910E+02 -0.13108606286E+03  0.17649963147E+03  0.00000000000E+00 0. -1.
<mgrwt>
<rscale>  0 0.31424366E+04</rscale>
<asrwt>0</asrwt>
<pdfrwt beam="1">  1        1 0.52914720E+00 0.31424366E+04</pdfrwt>
<pdfrwt beam="2">  1       -1 0.11042562E+00 0.31424366E+04</pdfrwt>
<totfact> 0.17705161E-01</totfact>
</mgrwt>
</event>
<event>
12    2  0.8147979E-008  0.2045320E+04  0.7818608E-02  0.8585720E-01
         -2   -1    0    0    0  501 -0.00000000000E+00  0.00000000000E+00  0.11010489562E+04  0.11010489562E+04  0.00000000000E+00 0.  1.
          2   -1    0    0  501    0  0.00000000000E+00 -0.00000000000E+00 -0.94985203147E+03  0.94985203147E+03  0.00000000000E+00 0. -1.
         23    2    1    2    0    0  0.43499253046E+03 -0.18970447451E+03 -0.61000777916E+03  0.77834324620E+03  0.92208617100E+02 0.  0.
        254    2    1    2    0    0 -0.43499253046E+03  0.18970447451E+03  0.76120470391E+03  0.12725577415E+04  0.90264296095E+03 0.  0.
         23    2    4    4    0    0  0.80064008655E+02  0.53474765934E+02 -0.15698667984E+03  0.20707154292E+03  0.94678456706E+02 0.  0.
         23    2    4    4    0    0 -0.51505653912E+03  0.13622970858E+03  0.91819138376E+03  0.10654861986E+04  0.91343582989E+02 0.  0.
          4    1    3    3  502    0  0.27074402199E+03 -0.75751122742E+02 -0.39406666152E+03  0.48407550213E+03  0.00000000000E+00 0. -1.
         -4    1    3    3    0  502  0.16424850847E+03 -0.11395335177E+03 -0.21594111764E+03  0.29426774407E+03  0.00000000000E+00 0.  1.
         11    1    5    5    0    0  0.57277484233E+02 -0.11969350837E+02 -0.10585626314E+03  0.12095256924E+03  0.00000000000E+00 0. -1.
        -11    1    5    5    0    0  0.22786524422E+02  0.65444116771E+02 -0.51130416703E+02  0.86118973678E+02  0.00000000000E+00 0.  1.
          2    1    6    6  503    0 -0.45907886724E+03  0.14982128206E+03  0.81683102757E+03  0.94890081173E+03  0.00000000000E+00 0. -1.
         -2    1    6    6    0  503 -0.55977671873E+02 -0.13591573475E+02  0.10136035619E+03  0.11658538684E+03  0.00000000000E+00 0.  1.
<mgrwt>
<rscale>  0 0.20453201E+04</rscale>
<asrwt>0</asrwt>
<pdfrwt beam="1">  1        2 0.14613108E+00 0.20453201E+04</pdfrwt>
<pdfrwt beam="2">  1       -2 0.16939215E+00 0.20453201E+04</pdfrwt>
<totfact> 0.54099193E+00</totfact>
</mgrwt>
</event>
<event>
12    2  0.8147979E-008  0.2493803E+04  0.7818608E-02  0.8405197E-01
          1   -1    0    0  501    0  0.00000000000E+00  0.00000000000E+00  0.14012542911E+04  0.14012542911E+04  0.00000000000E+00 0. -1.
         -1   -1    0    0    0  501 -0.00000000000E+00 -0.00000000000E+00 -0.11095509872E+04  0.11095509872E+04  0.00000000000E+00 0.  1.
         23    2    1    2    0    0 -0.27009464994E+03  0.10476280295E+04  0.13537231123E+03  0.10941363073E+04  0.91285202186E+02 0.  0.
        254    2    1    2    0    0  0.27009464994E+03 -0.10476280295E+04  0.15633099271E+03  0.14166689710E+04  0.90113039339E+03 0.  0.
         23    2    4    4    0    0 -0.18366399494E+03 -0.40668896524E+03  0.38259555413E+03  0.59427691621E+03  0.87506100402E+02 0.  0.
         23    2    4    4    0    0  0.45375864489E+03 -0.64093906427E+03 -0.22626456142E+03  0.82239205476E+03  0.91832717861E+02 0.  0.
          1    1    3    3  502    0 -0.16552866633E+03  0.49895257944E+03  0.37044690053E+02  0.52699689275E+03  0.00000000000E+00 0. -1.
         -1    1    3    3    0  502 -0.10456598362E+03  0.54867545006E+03  0.98327621173E+02  0.56713941453E+03  0.00000000000E+00 0.  1.
         11    1    5    5    0    0 -0.36014680485E+02 -0.17870004591E+03  0.13629232826E+03  0.22761011041E+03  0.00000000000E+00 0.  1.
        -11    1    5    5    0    0 -0.14764931446E+03 -0.22798891933E+03  0.24630322587E+03  0.36666680579E+03  0.00000000000E+00 0. -1.
          1    1    6    6  503    0  0.99721134061E+02 -0.19137947509E+03 -0.32431375165E+02  0.21822511807E+03  0.00000000000E+00 0. -1.
         -1    1    6    6    0  503  0.35403751083E+03 -0.44955958918E+03 -0.19383318625E+03  0.60416693669E+03  0.00000000000E+00 0.  1.
<mgrwt>
<rscale>  0 0.24938028E+04</rscale>
<asrwt>0</asrwt>
<pdfrwt beam="1">  1        1 0.21557758E+00 0.24938028E+04</pdfrwt>
<pdfrwt beam="2">  1       -1 0.17070015E+00 0.24938028E+04</pdfrwt>
<totfact> 0.16573357E+00</totfact>
</mgrwt>
</event>
<event>
12    2  0.8147979E-008  0.2734652E+04  0.7818608E-02  0.8323848E-01
          1   -1    0    0  501    0  0.00000000000E+00  0.00000000000E+00  0.35466525266E+04  0.35466525266E+04  0.00000000000E+00 0. -1.
         -1   -1    0    0    0  501 -0.00000000000E+00 -0.00000000000E+00 -0.52713942844E+03  0.52713942844E+03  0.00000000000E+00 0.  1.
         23    2    1    2    0    0 -0.63895021751E+03  0.50011282768E+03  0.27004151269E+04  0.28211698633E+04  0.91582310360E+02 0.  0.
        254    2    1    2    0    0  0.63895021751E+03 -0.50011282768E+03  0.31909797129E+03  0.12526220917E+04  0.89937109608E+03 0.  0.
         23    2    4    4    0    0  0.46600267429E+03 -0.18845298260E+03 -0.25471168419E+03  0.57090164746E+03  0.91529393739E+02 0.  0.
         23    2    4    4    0    0  0.17294754322E+03 -0.31165984508E+03  0.57380965548E+03  0.68172044424E+03  0.91883249990E+02 0.  0.
          3    1    3    3  502    0 -0.38369434792E+03  0.35309418951E+03  0.17747036350E+04  0.18497215605E+04  0.00000000000E+00 0. -1.
         -3    1    3    3    0  502 -0.25525586959E+03  0.14701863817E+03  0.92571149189E+03  0.97144830287E+03  0.00000000000E+00 0.  1.
         11    1    5    5    0    0  0.22042222453E+03 -0.87698483158E+02 -0.69399481956E+02  0.24717052638E+03  0.00000000000E+00 0.  1.
        -11    1    5    5    0    0  0.24558044976E+03 -0.10075449944E+03 -0.18531220223E+03  0.32373112108E+03  0.00000000000E+00 0. -1.
          2    1    6    6  503    0  0.18415450398E+03 -0.29788170274E+03  0.54959033967E+03  0.65168698899E+03  0.00000000000E+00 0. -1.
         -2    1    6    6    0  503 -0.11206960756E+02 -0.13778142342E+02  0.24219315811E+02  0.30033455249E+02  0.00000000000E+00 0.  1.
<mgrwt>
<rscale>  0 0.27346520E+04</rscale>
<asrwt>0</asrwt>
<pdfrwt beam="1">  1        1 0.54563884E+00 0.27346520E+04</pdfrwt>
<pdfrwt beam="2">  1       -1 0.81098376E-01 0.27346520E+04</pdfrwt>
<totfact> 0.30269468E-01</totfact>
</mgrwt>
</event>
<event>
12    2  0.8147979E-008  0.1716968E+04  0.7818608E-02  0.8751745E-01
          2   -1    0    0  501    0  0.00000000000E+00  0.00000000000E+00  0.98085534349E+03  0.98085534349E+03  0.00000000000E+00 0.  1.
         -2   -1    0    0    0  501 -0.00000000000E+00 -0.00000000000E+00 -0.75138010746E+03  0.75138010746E+03  0.00000000000E+00 0. -1.
         23    2    1    2    0    0  0.60840449403E+03 -0.60583896583E+02  0.16747357457E+03  0.64064920868E+03  0.92507153869E+02 0.  0.
        254    2    1    2    0    0 -0.60840449403E+03  0.60583896583E+02  0.62001661459E+02  0.10915862423E+04  0.90215845692E+03 0.  0.
         23    2    4    4    0    0 -0.83542784787E+03  0.11431531258E+02  0.45437641562E+02  0.84157024234E+03  0.90030687105E+02 0.  0.
         23    2    4    4    0    0  0.22702335383E+03  0.49152365325E+02  0.16564019897E+02  0.25001599993E+03  0.90983928589E+02 0.  0.
          2    1    3    3  502    0  0.47594751353E+03 -0.70837298327E+02  0.99315468686E+02  0.49133239339E+03  0.00000000000E+00 0. -1.
         -2    1    3    3    0  502  0.13245698050E+03  0.10253401744E+02  0.68158105888E+02  0.14931681529E+03  0.00000000000E+00 0.  1.
         11    1    5    5    0    0 -0.79116195146E+03  0.30786021680E+01  0.61955907686E+02  0.79359009931E+03  0.00000000000E+00 0.  1.
        -11    1    5    5    0    0 -0.44265896412E+02  0.83529290903E+01 -0.16518266125E+02  0.47980143031E+02  0.00000000000E+00 0. -1.
          2    1    6    6  503    0  0.42245868407E+02  0.16626999078E+02  0.40547603938E+02  0.60871000327E+02  0.00000000000E+00 0. -1.
         -2    1    6    6    0  503  0.18477748543E+03  0.32525366247E+02 -0.23983584040E+02  0.18914499960E+03  0.00000000000E+00 0.  1.
<mgrwt>
<rscale>  0 0.17169685E+04</rscale>
<asrwt>0</asrwt>
<pdfrwt beam="1">  1        2 0.15090082E+00 0.17169685E+04</pdfrwt>
<pdfrwt beam="2">  1       -2 0.11559694E+00 0.17169685E+04</pdfrwt>
<totfact> 0.14340552E+01</totfact>
</mgrwt>
</event>
<event>
12    2  0.8147979E-008  0.1443185E+04  0.7818608E-02  0.8923139E-01
          1   -1    0    0  501    0  0.00000000000E+00  0.00000000000E+00  0.19706175211E+04  0.19706175211E+04  0.00000000000E+00 0. -1.
         -1   -1    0    0    0  501 -0.00000000000E+00 -0.00000000000E+00 -0.26422964333E+03  0.26422964333E+03  0.00000000000E+00 0.  1.
         23    2    1    2    0    0 -0.16196003898E+03 -0.68119118088E+02  0.11293970692E+04  0.11501219139E+04  0.12795080481E+03 0.  0.
        254    2    1    2    0    0  0.16196003898E+03  0.68119118088E+02  0.57699080862E+03  0.10847252506E+04  0.90157595771E+03 0.  0.
         23    2    4    4    0    0  0.28356651846E+03  0.49848157152E+02  0.77576969611E+03  0.83228916144E+03  0.89396966899E+02 0.  0.
         23    2    4    4    0    0 -0.12160647947E+03  0.18270960936E+02 -0.19877888749E+03  0.25243608913E+03  0.95336085093E+02 0.  0.
          4    1    3    3  502    0 -0.18853628356E+02  0.83777282880E+01  0.19377335018E+02  0.28304182480E+02  0.00000000000E+00 0.  1.
         -4    1    3    3    0  502 -0.14310641063E+03 -0.76496846376E+02  0.11100197342E+04  0.11218177314E+04  0.00000000000E+00 0. -1.
         11    1    5    5    0    0  0.24337134555E+03  0.97613360759E+01  0.59895042448E+03  0.64658062645E+03  0.00000000000E+00 0. -1.
        -11    1    5    5    0    0  0.40195172908E+02  0.40086821076E+02  0.17681927163E+03  0.18570853499E+03  0.00000000000E+00 0.  1.
          3    1    6    6  503    0 -0.12531835905E+03  0.37379862294E+02 -0.14509437007E+03  0.19533131200E+03  0.00000000000E+00 0. -1.
         -3    1    6    6    0  503  0.37118795766E+01 -0.19108901358E+02 -0.53684517417E+02  0.57104777133E+02  0.00000000000E+00 0.  1.
<mgrwt>
<rscale>  0 0.14431848E+04</rscale>
<asrwt>0</asrwt>
<pdfrwt beam="1">  1        1 0.30317192E+00 0.14431848E+04</pdfrwt>
<pdfrwt beam="2">  1       -1 0.40650716E-01 0.14431848E+04</pdfrwt>
<totfact> 0.17940649E+01</totfact>
</mgrwt>
</event>
<event>
12    2  0.8147979E-008  0.2596334E+04  0.7818608E-02  0.8369448E-01
          1   -1    0    0  501    0  0.00000000000E+00  0.00000000000E+00  0.10021138277E+04  0.10021138277E+04  0.00000000000E+00 0. -1.
         -1   -1    0    0    0  501 -0.00000000000E+00 -0.00000000000E+00 -0.16816822739E+04  0.16816822739E+04  0.00000000000E+00 0.  1.
         23    2    1    2    0    0  0.37326684732E+03 -0.10471805521E+04 -0.55678224058E+03  0.12466262866E+04  0.90307182385E+02 0.  0.
        254    2    1    2    0    0 -0.37326684732E+03  0.10471805521E+04 -0.12278620564E+03  0.14371698149E+04  0.90247735526E+03 0.  0.
         23    2    4    4    0    0  0.24713015792E+03  0.43858241651E+03 -0.22180934055E+03  0.55771620265E+03  0.91761256048E+02 0.  0.
         23    2    4    4    0    0 -0.62039700524E+03  0.60859813555E+03  0.99023134916E+02  0.87945361229E+03  0.91372535356E+02 0.  0.
          2    1    3    3  502    0  0.28002865908E+03 -0.82669377772E+03 -0.39748600724E+03  0.95907965153E+03  0.00000000000E+00 0. -1.
         -2    1    3    3    0  502  0.93238188243E+02 -0.22048677434E+03 -0.15929623334E+03  0.28754663511E+03  0.00000000000E+00 0.  1.
         11    1    5    5    0    0  0.17391515000E+03  0.37962228820E+03 -0.18611981039E+03  0.45716533652E+03  0.00000000000E+00 0. -1.
        -11    1    5    5    0    0  0.73215007919E+02  0.58960128312E+02 -0.35689530160E+02  0.10055086612E+03  0.00000000000E+00 0.  1.
          2    1    6    6  503    0 -0.40361665712E+02  0.34709566441E+02  0.28680696411E+02  0.60468176822E+02  0.00000000000E+00 0. -1.
         -2    1    6    6    0  503 -0.58003533953E+03  0.57388856911E+03  0.70342438506E+02  0.81898543547E+03  0.00000000000E+00 0.  1.
<mgrwt>
<rscale>  0 0.25963336E+04</rscale>
<asrwt>0</asrwt>
<pdfrwt beam="1">  1        1 0.15417136E+00 0.25963336E+04</pdfrwt>
<pdfrwt beam="2">  1       -1 0.25872035E+00 0.25963336E+04</pdfrwt>
<totfact> 0.81220278E-01</totfact>
</mgrwt>
</event>
<event>
12    2  0.8147979E-008  0.1467831E+04  0.7818608E-02  0.8906131E-01
         -2   -1    0    0    0  501 -0.00000000000E+00  0.00000000000E+00  0.29095162126E+03  0.29095162126E+03  0.00000000000E+00 0.  1.
          2   -1    0    0  501    0  0.00000000000E+00 -0.00000000000E+00 -0.18512759315E+04  0.18512759315E+04  0.00000000000E+00 0. -1.
         23    2    1    2    0    0 -0.17532168201E+03 -0.34220406571E+03 -0.14157911266E+03  0.41872562867E+03  0.86285527121E+02 0.  0.
        254    2    1    2    0    0  0.17532168201E+03  0.34220406571E+03 -0.14187451976E+04  0.17235019241E+04  0.89987756499E+03 0.  0.
         23    2    4    4    0    0  0.31023493717E+03 -0.22165009375E+03 -0.56062721934E+03  0.68386591882E+03  0.89416081062E+02 0.  0.
         23    2    4    4    0    0 -0.13491325516E+03  0.56385415946E+03 -0.85811797827E+03  0.10396360053E+04  0.91342538541E+02 0.  0.
          4    1    3    3  502    0 -0.15946858560E+02 -0.11315587012E+03 -0.29519978365E+02  0.11802534627E+03  0.00000000000E+00 0. -1.
         -4    1    3    3    0  502 -0.15937482345E+03 -0.22904819559E+03 -0.11205913430E+03  0.30070028240E+03  0.00000000000E+00 0.  1.
         11    1    5    5    0    0  0.26403343744E+03 -0.20810404033E+03 -0.52714351729E+03  0.62522094935E+03  0.00000000000E+00 0.  1.
        -11    1    5    5    0    0  0.46201499729E+02 -0.13546053424E+02 -0.33483702053E+02  0.58644969467E+02  0.00000000000E+00 0. -1.
          1    1    6    6  503    0 -0.22704644075E+02  0.35458532874E+02 -0.33325883570E+02  0.53697513274E+02  0.00000000000E+00 0. -1.
         -1    1    6    6    0  503 -0.11220861109E+03  0.52839562659E+03 -0.82479209470E+03  0.98593849204E+03  0.00000000000E+00 0.  1.
<mgrwt>
<rscale>  0 0.14678307E+04</rscale>
<asrwt>0</asrwt>
<pdfrwt beam="1">  1        2 0.28481168E+00 0.14678307E+04</pdfrwt>
<pdfrwt beam="2">  1       -2 0.44761788E-01 0.14678307E+04</pdfrwt>
<totfact> 0.37049267E+01</totfact>
</mgrwt>
</event>
<event>
12    2  0.8147979E-008  0.2038738E+04  0.7818608E-02  0.8588721E-01
         -2   -1    0    0    0  501 -0.00000000000E+00  0.00000000000E+00  0.69001724869E+03  0.69001724869E+03  0.00000000000E+00 0.  1.
          2   -1    0    0  501    0  0.00000000000E+00 -0.00000000000E+00 -0.15059230755E+04  0.15059230755E+04  0.00000000000E+00 0. -1.
         23    2    1    2    0    0  0.74697849019E+03  0.21481787023E+03 -0.60380665918E+03  0.98841529431E+03  0.90877556068E+02 0.  0.
        254    2    1    2    0    0 -0.74697849019E+03 -0.21481787023E+03 -0.21209916762E+03  0.12075250299E+04  0.89944819678E+03 0.  0.
         23    2    4    4    0    0 -0.31632779693E+03 -0.47766549749E+03 -0.35080952564E+03  0.67780135554E+03  0.90109664783E+02 0.  0.
         23    2    4    4    0    0 -0.43065069325E+03  0.26284762726E+03  0.13871035803E+03  0.52972367433E+03  0.82569443302E+02 0.  0.
          3    1    3    3  502    0  0.49276722828E+03  0.96752131887E+02 -0.39436151163E+03  0.63851508843E+03  0.00000000000E+00 0. -1.
         -3    1    3    3    0  502  0.25421126190E+03  0.11806573834E+03 -0.20944514755E+03  0.34990020589E+03  0.00000000000E+00 0.  1.
         11    1    5    5    0    0 -0.19412346016E+01 -0.42691043206E+02 -0.33693136671E+02  0.54419858697E+02  0.00000000000E+00 0. -1.
        -11    1    5    5    0    0 -0.31438656233E+03 -0.43497445428E+03 -0.31711638897E+03  0.62338149684E+03  0.00000000000E+00 0.  1.
          3    1    6    6  503    0 -0.41056809160E+02  0.54966353143E+00  0.17757642221E+02  0.44735864422E+02  0.00000000000E+00 0. -1.
         -3    1    6    6    0  503 -0.38959388409E+03  0.26229796373E+03  0.12095271581E+03  0.48498780991E+03  0.00000000000E+00 0.  1.
<mgrwt>
<rscale>  0 0.20387377E+04</rscale>
<asrwt>0</asrwt>
<pdfrwt beam="1">  1        2 0.23168047E+00 0.20387377E+04</pdfrwt>
<pdfrwt beam="2">  1       -2 0.10615650E+00 0.20387377E+04</pdfrwt>
<totfact> 0.83536759E+00</totfact>
</mgrwt>
</event>
<event>
12    2  0.8147979E-008  0.1325459E+04  0.7818608E-02  0.9009616E-01
         -1   -1    0    0    0  501 -0.00000000000E+00  0.00000000000E+00  0.74661834795E+03  0.74661834795E+03  0.00000000000E+00 0.  1.
          1   -1    0    0  501    0  0.00000000000E+00 -0.00000000000E+00 -0.58826610294E+03  0.58826610294E+03  0.00000000000E+00 0. -1.
         23    2    1    2    0    0 -0.25917584435E+03 -0.84772103994E+02 -0.17527784343E+03  0.33688775710E+03  0.91720284455E+02 0.  0.
        254    2    1    2    0    0  0.25917584435E+03  0.84772103994E+02  0.33363008844E+03  0.99799669378E+03  0.90018327966E+03 0.  0.
         23    2    4    4    0    0  0.55634359610E+03  0.10792167831E+03  0.49390839132E+02  0.57608011800E+03  0.90904135211E+02 0.  0.
         23    2    4    4    0    0 -0.29716775175E+03 -0.23149574317E+02  0.28423924931E+03  0.42191657578E+03  0.91526338281E+02 0.  0.
          2    1    3    3  502    0 -0.14575035514E+03 -0.76937890328E+02 -0.14428085443E+03  0.21904239303E+03  0.00000000000E+00 0. -1.
         -2    1    3    3    0  502 -0.11342548921E+03 -0.78342136662E+01 -0.30996989002E+02  0.11784536407E+03  0.00000000000E+00 0.  1.
         11    1    5    5    0    0  0.74779674946E+02 -0.11597342910E+02  0.23469509216E+02  0.79229514769E+02  0.00000000000E+00 0.  1.
        -11    1    5    5    0    0  0.48156392115E+03  0.11951902122E+03  0.25921329916E+02  0.49685060323E+03  0.00000000000E+00 0. -1.
          1    1    6    6  503    0 -0.18864092695E+03 -0.51872152727E+02  0.21168943382E+03  0.28825082123E+03  0.00000000000E+00 0. -1.
         -1    1    6    6    0  503 -0.10852682480E+03  0.28722578409E+02  0.72549815487E+02  0.13366575455E+03  0.00000000000E+00 0.  1.
<mgrwt>
<rscale>  0 0.13254588E+04</rscale>
<asrwt>0</asrwt>
<pdfrwt beam="1">  1        1 0.90502477E-01 0.13254588E+04</pdfrwt>
<pdfrwt beam="2">  1       -1 0.11486436E+00 0.13254588E+04</pdfrwt>
<totfact> 0.23798045E+01</totfact>
</mgrwt>
</event>
<event>
12    2  0.8147979E-008  0.1134786E+04  0.7818608E-02  0.9171935E-01
         -2   -1    0    0    0  501 -0.00000000000E+00  0.00000000000E+00  0.59428009087E+03  0.59428009087E+03  0.00000000000E+00 0.  1.
          2   -1    0    0  501    0  0.00000000000E+00 -0.00000000000E+00 -0.54172200503E+03  0.54172200503E+03  0.00000000000E+00 0. -1.
         23    2    1    2    0    0 -0.12198868343E+03  0.15543215517E+03  0.34845883664E+02  0.22023653744E+03  0.90826775079E+02 0.  0.
        254    2    1    2    0    0  0.12198868343E+03 -0.15543215517E+03  0.17712202176E+02  0.91576555847E+03  0.89402038133E+03 0.  0.
         23    2    4    4    0    0  0.85873987742E+01  0.33963230317E+03 -0.13582830672E+03  0.37779742353E+03  0.94115458576E+02 0.  0.
         23    2    4    4    0    0  0.11340128465E+03 -0.49506445834E+03  0.15354050890E+03  0.53796813494E+03  0.88805163487E+02 0.  0.
          4    1    3    3  502    0 -0.75894270425E+02  0.50638245247E+02 -0.19829772506E+02  0.93366975118E+02  0.00000000000E+00 0. -1.
         -4    1    3    3    0  502 -0.46094413003E+02  0.10479390992E+03  0.54675656170E+02  0.12686956232E+03  0.00000000000E+00 0.  1.
         11    1    5    5    0    0  0.12419980573E+02  0.33024318892E+02  0.12163275441E+02  0.37320327239E+02  0.00000000000E+00 0.  1.
        -11    1    5    5    0    0 -0.38325817990E+01  0.30660798428E+03 -0.14799158216E+03  0.34047709629E+03  0.00000000000E+00 0. -1.
          3    1    6    6  503    0  0.72735588641E+01 -0.10890166578E+03  0.67558657061E+02  0.12836140235E+03  0.00000000000E+00 0. -1.
         -3    1    6    6    0  503  0.10612772579E+03 -0.38616279256E+03  0.85981851836E+02  0.40960673259E+03  0.00000000000E+00 0.  1.
<mgrwt>
<rscale>  0 0.11347856E+04</rscale>
<asrwt>0</asrwt>
<pdfrwt beam="1">  1        2 0.83341847E-01 0.11347856E+04</pdfrwt>
<pdfrwt beam="2">  1       -2 0.91427706E-01 0.11347856E+04</pdfrwt>
<totfact> 0.56615137E+01</totfact>
</mgrwt>
</event>
<event>
12    2  0.8147979E-008  0.2385961E+04  0.7818608E-02  0.8444778E-01
          1   -1    0    0  501    0  0.00000000000E+00  0.00000000000E+00  0.15148875336E+04  0.15148875336E+04  0.00000000000E+00 0. -1.
         -1   -1    0    0    0  501 -0.00000000000E+00 -0.00000000000E+00 -0.93947737827E+03  0.93947737827E+03  0.00000000000E+00 0.  1.
         23    2    1    2    0    0 -0.85249758125E+03 -0.33845404593E+03  0.70796339512E+03  0.11621166561E+04  0.89440965514E+02 0.  0.
        254    2    1    2    0    0  0.85249758125E+03  0.33845404593E+03 -0.13255323977E+03  0.12922482558E+04  0.90057310973E+03 0.  0.
         23    2    4    4    0    0  0.35752969730E+03  0.30493765911E+03 -0.48180439805E+03  0.67862008677E+03  0.87036106232E+02 0.  0.
         23    2    4    4    0    0  0.49496788395E+03  0.33516386821E+02  0.34925115829E+03  0.61362816902E+03  0.91905407478E+02 0.  0.
          1    1    3    3  502    0 -0.73019598211E+03 -0.28720371385E+03  0.64298470306E+03  0.10144463879E+04  0.00000000000E+00 0. -1.
         -1    1    3    3    0  502 -0.12230159914E+03 -0.51250332080E+02  0.64978692057E+02  0.14767026821E+03  0.00000000000E+00 0.  1.
         11    1    5    5    0    0  0.36170612853E+03  0.30555084852E+03 -0.47917034868E+03  0.67364446669E+03  0.00000000000E+00 0. -1.
        -11    1    5    5    0    0 -0.41764312297E+01 -0.61318941144E+00 -0.26340493741E+01  0.49756200795E+01  0.00000000000E+00 0.  1.
          1    1    6    6  503    0  0.39804625015E+03 -0.66489682056E+01  0.29519965719E+03  0.49560857906E+03  0.00000000000E+00 0. -1.
         -1    1    6    6    0  503  0.96921633800E+02  0.40165355027E+02  0.54051501100E+02  0.11801958996E+03  0.00000000000E+00 0.  1.
<mgrwt>
<rscale>  0 0.23859611E+04</rscale>
<asrwt>0</asrwt>
<pdfrwt beam="1">  1        1 0.23305962E+00 0.23859611E+04</pdfrwt>
<pdfrwt beam="2">  1       -1 0.14453498E+00 0.23859611E+04</pdfrwt>
<totfact> 0.22086861E+00</totfact>
</mgrwt>
</event>
<event>
12    2  0.8147979E-008  0.1259044E+04  0.7818608E-02  0.9062689E-01
         -1   -1    0    0    0  501 -0.00000000000E+00  0.00000000000E+00  0.17886769834E+03  0.17886769834E+03  0.00000000000E+00 0.  1.
          1   -1    0    0  501    0  0.00000000000E+00 -0.00000000000E+00 -0.22155929090E+04  0.22155929090E+04  0.00000000000E+00 0. -1.
         23    2    1    2    0    0 -0.27982175122E+03 -0.72002086976E+02 -0.63951568536E+03  0.70784667973E+03  0.92639609259E+02 0.  0.
        254    2    1    2    0    0  0.27982175122E+03  0.72002086976E+02 -0.13972095253E+04  0.16866139276E+04  0.89943736315E+03 0.  0.
         23    2    4    4    0    0  0.31429557620E+03  0.44062248971E+03 -0.96597736543E+03  0.11109935533E+04  0.90909391110E+02 0.  0.
         23    2    4    4    0    0 -0.34473824976E+02 -0.36862040273E+03 -0.43123215992E+03  0.57562037431E+03  0.91149293201E+02 0.  0.
          2    1    3    3  502    0 -0.22579306575E+03 -0.17977050376E+02 -0.49552874579E+03  0.54484348284E+03  0.00000000000E+00 0. -1.
         -2    1    3    3    0  502 -0.54028685471E+02 -0.54025036599E+02 -0.14398693956E+03  0.16300319690E+03  0.00000000000E+00 0.  1.
         11    1    5    5    0    0  0.26192249217E+03  0.40948734583E+03 -0.82756308388E+03  0.95976243732E+03  0.00000000000E+00 0. -1.
        -11    1    5    5    0    0  0.52373084028E+02  0.31135143879E+02 -0.13841428155E+03  0.15123111602E+03  0.00000000000E+00 0.  1.
          4    1    6    6  503    0 -0.32976392862E+02 -0.28487378334E+03 -0.38462164820E+03  0.47976486656E+03  0.00000000000E+00 0. -1.
         -4    1    6    6    0  503 -0.14974321142E+01 -0.83746619394E+02 -0.46610511712E+02  0.95855507744E+02  0.00000000000E+00 0.  1.
<mgrwt>
<rscale>  0 0.12590441E+04</rscale>
<asrwt>0</asrwt>
<pdfrwt beam="1">  1        1 0.34086044E+00 0.12590441E+04</pdfrwt>
<pdfrwt beam="2">  1       -1 0.27518108E-01 0.12590441E+04</pdfrwt>
<totfact> 0.24931457E+01</totfact>
</mgrwt>
</event>
<event>
12    2  0.8147979E-008  0.1836334E+04  0.7818608E-02  0.8687213E-01
         -1   -1    0    0    0  501 -0.00000000000E+00  0.00000000000E+00  0.73722875496E+03  0.73722875496E+03  0.00000000000E+00 0.  1.
          1   -1    0    0  501    0  0.00000000000E+00 -0.00000000000E+00 -0.11435126073E+04  0.11435126073E+04  0.00000000000E+00 0. -1.
         23    2    1    2    0    0 -0.15882583614E+03 -0.40362148315E+03  0.39924121172E+03  0.59684720429E+03  0.93258202058E+02 0.  0.
        254    2    1    2    0    0  0.15882583614E+03  0.40362148315E+03 -0.80552506406E+03  0.12838941580E+04  0.90076502603E+03 0.  0.
         23    2    4    4    0    0  0.45716513102E+03  0.39167911608E+03 -0.75190853549E+03  0.96709277681E+03  0.86541933291E+02 0.  0.
         23    2    4    4    0    0 -0.29833929488E+03  0.11942367068E+02 -0.53616528570E+02  0.31680138115E+03  0.91320468460E+02 0.  0.
          2    1    3    3  502    0 -0.14167092518E+02 -0.64364658008E+02  0.22519684974E+02  0.69646621758E+02  0.00000000000E+00 0. -1.
         -2    1    3    3    0  502 -0.14465874362E+03 -0.33925682514E+03  0.37672152675E+03  0.52720058254E+03  0.00000000000E+00 0.  1.
         11    1    5    5    0    0  0.40995648015E+03  0.32265069304E+03 -0.67802094828E+03  0.85549996589E+03  0.00000000000E+00 0. -1.
        -11    1    5    5    0    0  0.47208650877E+02  0.69028423039E+02 -0.73887587211E+02  0.11159281092E+03  0.00000000000E+00 0.  1.
          1    1    6    6  503    0 -0.26416454958E+03 -0.12138223408E+02 -0.67191644181E+02  0.27284604224E+03  0.00000000000E+00 0. -1.
         -1    1    6    6    0  503 -0.34174745308E+02  0.24080590477E+02  0.13575115611E+02  0.43955338907E+02  0.00000000000E+00 0.  1.
<mgrwt>
<rscale>  0 0.18363337E+04</rscale>
<asrwt>0</asrwt>
<pdfrwt beam="1">  1        1 0.17592502E+00 0.18363337E+04</pdfrwt>
<pdfrwt beam="2">  1       -1 0.11341981E+00 0.18363337E+04</pdfrwt>
<totfact> 0.78518769E+00</totfact>
</mgrwt>
</event>
<event>
12    2  0.8147979E-008  0.3053148E+04  0.7818608E-02  0.8228715E-01
         -1   -1    0    0    0  501 -0.00000000000E+00  0.00000000000E+00  0.90603564602E+03  0.90603564602E+03  0.00000000000E+00 0.  1.
          1   -1    0    0  501    0  0.00000000000E+00 -0.00000000000E+00 -0.25721160196E+04  0.25721160196E+04  0.00000000000E+00 0. -1.
         23    2    1    2    0    0 -0.86758971108E+02 -0.13662117249E+04 -0.47427268196E+03  0.14520092340E+04  0.96615953758E+02 0.  0.
        254    2    1    2    0    0  0.86758971108E+02  0.13662117249E+04 -0.11918076917E+04  0.20261424316E+04  0.90043655146E+03 0.  0.
         23    2    4    4    0    0 -0.24473145088E+03  0.11766500866E+04 -0.10800268606E+04  0.16189385211E+04  0.10052366028E+03 0.  0.
         23    2    4    4    0    0  0.33149042199E+03  0.18956163825E+03 -0.11178083107E+03  0.40720391051E+03  0.86605750215E+02 0.  0.
          2    1    3    3  502    0 -0.70016022428E+02 -0.12667551986E+04 -0.41406426093E+03  0.13345486836E+04  0.00000000000E+00 0. -1.
         -2    1    3    3    0  502 -0.16742948680E+02 -0.99456526223E+02 -0.60208421029E+02  0.11746055041E+03  0.00000000000E+00 0.  1.
         11    1    5    5    0    0 -0.17232102961E+03  0.60012215112E+03 -0.58487312332E+03  0.85552188978E+03  0.00000000000E+00 0. -1.
        -11    1    5    5    0    0 -0.72410421267E+02  0.57652793549E+03 -0.49515373727E+03  0.76341663136E+03  0.00000000000E+00 0.  1.
          2    1    6    6  503    0  0.18906493931E+03  0.12689705590E+03 -0.25084456678E+02  0.22907999485E+03  0.00000000000E+00 0. -1.
         -2    1    6    6    0  503  0.14242548268E+03  0.62664582357E+02 -0.86696374390E+02  0.17812391566E+03  0.00000000000E+00 0.  1.
<mgrwt>
<rscale>  0 0.30531484E+04</rscale>
<asrwt>0</asrwt>
<pdfrwt beam="1">  1        1 0.39571015E+00 0.30531484E+04</pdfrwt>
<pdfrwt beam="2">  1       -1 0.13939010E+00 0.30531484E+04</pdfrwt>
<totfact> 0.43329288E-01</totfact>
</mgrwt>
</event>
<event>
12    2  0.8147979E-008  0.1196599E+04  0.7818608E-02  0.9115839E-01
          2   -1    0    0  501    0  0.00000000000E+00  0.00000000000E+00  0.10505469556E+04  0.10505469556E+04  0.00000000000E+00 0. -1.
         -2   -1    0    0    0  501 -0.00000000000E+00 -0.00000000000E+00 -0.34073897051E+03  0.34073897051E+03  0.00000000000E+00 0.  1.
         23    2    1    2    0    0 -0.13454269326E+03  0.16079011541E+03  0.30705820830E+03  0.38334140682E+03  0.93331095467E+02 0.  0.
        254    2    1    2    0    0  0.13454269326E+03 -0.16079011541E+03  0.40274977684E+03  0.10079445193E+04  0.89988308895E+03 0.  0.
         23    2    4    4    0    0  0.45394140736E+03 -0.20632910570E+03  0.31729198335E+02  0.50808863171E+03  0.92264914670E+02 0.  0.
         23    2    4    4    0    0 -0.31939871410E+03  0.45538990290E+02  0.37102057850E+03  0.49985588761E+03  0.90057206841E+02 0.  0.
          1    1    3    3  502    0 -0.45988462629E+02  0.72289591241E+02  0.20372653362E+03  0.22100955680E+03  0.00000000000E+00 0. -1.
         -1    1    3    3    0  502 -0.88554230627E+02  0.88500524167E+02  0.10333167468E+03  0.16233185002E+03  0.00000000000E+00 0.  1.
         11    1    5    5    0    0  0.15526924557E+03 -0.23892749924E+02  0.78963687835E+01  0.15729511994E+03  0.00000000000E+00 0. -1.
        -11    1    5    5    0    0  0.29867216179E+03 -0.18243635577E+03  0.23832829552E+02  0.35079351177E+03  0.00000000000E+00 0.  1.
          4    1    6    6  503    0 -0.75141883907E+02 -0.92782293440E+01  0.14026051178E+03  0.15939071310E+03  0.00000000000E+00 0. -1.
         -4    1    6    6    0  503 -0.24425683019E+03  0.54817219634E+02  0.23076006672E+03  0.34046517451E+03  0.00000000000E+00 0.  1.
<mgrwt>
<rscale>  0 0.11965990E+04</rscale>
<asrwt>0</asrwt>
<pdfrwt beam="1">  1        2 0.16162261E+00 0.11965990E+04</pdfrwt>
<pdfrwt beam="2">  1       -2 0.52421381E-01 0.11965990E+04</pdfrwt>
<totfact> 0.79267599E+01</totfact>
</mgrwt>
</event>
<event>
12    2  0.8147979E-008  0.1771174E+04  0.7818608E-02  0.8721781E-01
          2   -1    0    0  501    0  0.00000000000E+00  0.00000000000E+00  0.93160581832E+03  0.93160581832E+03  0.00000000000E+00 0.  1.
         -2   -1    0    0    0  501 -0.00000000000E+00 -0.00000000000E+00 -0.84184105409E+03  0.84184105409E+03  0.00000000000E+00 0. -1.
         23    2    1    2    0    0  0.56042007553E+03 -0.82549729905E+02  0.35765342842E+03  0.67623790682E+03  0.92177073046E+02 0.  0.
        254    2    1    2    0    0 -0.56042007553E+03  0.82549729905E+02 -0.26788866419E+03  0.10972089656E+04  0.90067644512E+03 0.  0.
         23    2    4    4    0    0 -0.63391058048E+03  0.28580621802E+03 -0.42037337586E+03  0.81804665818E+03  0.94650628831E+02 0.  0.
         23    2    4    4    0    0  0.73490504950E+02 -0.20325648812E+03  0.15248471166E+03  0.27916230740E+03  0.89252183748E+02 0.  0.
          1    1    3    3  502    0  0.65697242096E+02  0.14453539831E+02  0.22825679384E+02  0.71035512752E+02  0.00000000000E+00 0. -1.
         -1    1    3    3    0  502  0.49472283343E+03 -0.97003269736E+02  0.33482774904E+03  0.60520239406E+03  0.00000000000E+00 0.  1.
         11    1    5    5    0    0 -0.56490258807E+03  0.28508317797E+03 -0.37929397459E+03  0.73773387582E+03  0.00000000000E+00 0.  1.
        -11    1    5    5    0    0 -0.69007992409E+02  0.72304005072E+00 -0.41079401267E+02  0.80312782368E+02  0.00000000000E+00 0. -1.
          4    1    6    6  503    0  0.35957260734E+02 -0.16884340451E+03  0.14914001813E+03  0.22813102563E+03  0.00000000000E+00 0.  1.
         -4    1    6    6    0  503  0.37533244216E+02 -0.34413083605E+02  0.33446935321E+01  0.51031281773E+02  0.00000000000E+00 0. -1.
<mgrwt>
<rscale>  0 0.17711736E+04</rscale>
<asrwt>0</asrwt>
<pdfrwt beam="1">  1        2 0.14332397E+00 0.17711736E+04</pdfrwt>
<pdfrwt beam="2">  1       -2 0.12951401E+00 0.17711736E+04</pdfrwt>
<totfact> 0.11583640E+01</totfact>
</mgrwt>
</event>
<event>
12    2  0.8147979E-008  0.1586979E+04  0.7818608E-02  0.8828587E-01
          1   -1    0    0  501    0  0.00000000000E+00  0.00000000000E+00  0.21036166315E+04  0.21036166315E+04  0.00000000000E+00 0. -1.
         -1   -1    0    0    0  501 -0.00000000000E+00 -0.00000000000E+00 -0.29930642115E+03  0.29930642115E+03  0.00000000000E+00 0.  1.
         23    2    1    2    0    0 -0.10536587223E+03  0.51401786912E+03  0.47443370547E+03  0.71327979470E+03  0.91457027249E+02 0.  0.
        254    2    1    2    0    0  0.10536587223E+03 -0.51401786912E+03  0.13298765048E+04  0.16896432579E+04  0.90055898423E+03 0.  0.
         23    2    4    4    0    0  0.44107458903E+03 -0.44343055359E+03  0.10942550218E+04  0.12636833627E+04  0.91236721863E+02 0.  0.
         23    2    4    4    0    0 -0.33570871680E+03 -0.70587315533E+02  0.23562148303E+03  0.42595989523E+03  0.90782362994E+02 0.  0.
          2    1    3    3  502    0 -0.99621140459E+02  0.34538222106E+03  0.27864399411E+03  0.45481394625E+03  0.00000000000E+00 0.  1.
         -2    1    3    3    0  502 -0.57447317724E+01  0.16863564807E+03  0.19578971136E+03  0.25846584845E+03  0.00000000000E+00 0. -1.
         11    1    5    5    0    0  0.11411731788E+03 -0.17376871788E+03  0.34037115032E+03  0.39883687082E+03  0.00000000000E+00 0. -1.
        -11    1    5    5    0    0  0.32695727115E+03 -0.26966183572E+03  0.75388387148E+03  0.86484649186E+03  0.00000000000E+00 0.  1.
          2    1    6    6  503    0 -0.29641103874E+02 -0.24545781799E+02  0.26662117357E+01  0.38577184034E+02  0.00000000000E+00 0. -1.
         -2    1    6    6    0  503 -0.30606761293E+03 -0.46041533734E+02  0.23295527130E+03  0.38738271120E+03  0.00000000000E+00 0.  1.
<mgrwt>
<rscale>  0 0.15869795E+04</rscale>
<asrwt>0</asrwt>
<pdfrwt beam="1">  1        1 0.32363332E+00 0.15869795E+04</pdfrwt>
<pdfrwt beam="2">  1       -1 0.46047143E-01 0.15869795E+04</pdfrwt>
<totfact> 0.11425748E+01</totfact>
</mgrwt>
</event>
<event>
12    2  0.8147979E-008  0.2078699E+04  0.7818608E-02  0.8570685E-01
         -2   -1    0    0    0  501 -0.00000000000E+00  0.00000000000E+00  0.52161774884E+03  0.52161774884E+03  0.00000000000E+00 0.  1.
          2   -1    0    0  501    0  0.00000000000E+00 -0.00000000000E+00 -0.20709565996E+04  0.20709565996E+04  0.00000000000E+00 0. -1.
         23    2    1    2    0    0 -0.16776108652E+03 -0.79205109423E+03 -0.34348674062E+03  0.88413303849E+03  0.90660745383E+02 0.  0.
        254    2    1    2    0    0  0.16776108652E+03  0.79205109423E+03 -0.12058521101E+04  0.17084413100E+04  0.89955749122E+03 0.  0.
         23    2    4    4    0    0 -0.11693003425E+03  0.66795120615E+03 -0.12050551259E+04  0.13857605275E+04  0.91339676639E+02 0.  0.
         23    2    4    4    0    0  0.28469112077E+03  0.12409988808E+03 -0.79698423056E+00  0.32268078240E+03  0.87592440787E+02 0.  0.
          4    1    3    3  502    0  0.19359947636E+01 -0.16570862559E+03 -0.66394117629E+02  0.17852527980E+03  0.00000000000E+00 0. -1.
         -4    1    3    3    0  502 -0.16969708128E+03 -0.62634246864E+03 -0.27709262299E+03  0.70560775869E+03  0.00000000000E+00 0.  1.
         11    1    5    5    0    0 -0.13433409756E+02  0.32948500649E+02 -0.11084439191E+03  0.11641537446E+03  0.00000000000E+00 0. -1.
        -11    1    5    5    0    0 -0.10349662450E+03  0.63500270550E+03 -0.10942107340E+04  0.12693451531E+04  0.00000000000E+00 0.  1.
          4    1    6    6  503    0  0.84683599783E+02 -0.38819424858E+01 -0.77770683363E+01  0.85128516618E+02  0.00000000000E+00 0. -1.
         -4    1    6    6    0  503  0.20000752099E+03  0.12798183057E+03  0.69800841057E+01  0.23755226579E+03  0.00000000000E+00 0.  1.
<mgrwt>
<rscale>  0 0.20786993E+04</rscale>
<asrwt>0</asrwt>
<pdfrwt beam="1">  1        2 0.31860871E+00 0.20786993E+04</pdfrwt>
<pdfrwt beam="2">  1       -2 0.80248884E-01 0.20786993E+04</pdfrwt>
<totfact> 0.77285489E+00</totfact>
</mgrwt>
</event>
<event>
12    2  0.8147979E-008  0.3001342E+04  0.7818608E-02  0.8243348E-01
          2   -1    0    0  501    0  0.00000000000E+00  0.00000000000E+00  0.32406965532E+04  0.32406965532E+04  0.00000000000E+00 0.  1.
         -2   -1    0    0    0  501 -0.00000000000E+00 -0.00000000000E+00 -0.69491637885E+03  0.69491637885E+03  0.00000000000E+00 0. -1.
         23    2    1    2    0    0  0.37797576020E+03 -0.13099004087E+04  0.10997078131E+04  0.17540182575E+04  0.92293106916E+02 0.  0.
        254    2    1    2    0    0 -0.37797576020E+03  0.13099004087E+04  0.14460723613E+04  0.21815946746E+04  0.89973623582E+03 0.  0.
         23    2    4    4    0    0 -0.18117016922E+03  0.11046066748E+02 -0.27402970807E+02  0.20553209766E+03  0.92454716240E+02 0.  0.
         23    2    4    4    0    0 -0.19680559098E+03  0.12988543419E+04  0.14734753321E+04  0.19760625769E+04  0.89099446272E+02 0.  0.
          1    1    3    3  502    0  0.35472150081E+03 -0.11740523333E+04  0.95735566099E+03  0.15558779149E+04  0.00000000000E+00 0. -1.
         -1    1    3    3    0  502  0.23254259387E+02 -0.13584807537E+03  0.14235215207E+03  0.19814034259E+03  0.00000000000E+00 0.  1.
         11    1    5    5    0    0 -0.51291769487E+02 -0.37870144888E+02 -0.18843851368E+02  0.66483713986E+02  0.00000000000E+00 0.  1.
        -11    1    5    5    0    0 -0.12987839973E+03  0.48916211635E+02 -0.85591194392E+01  0.13904838368E+03  0.00000000000E+00 0. -1.
          2    1    6    6  503    0 -0.19911706425E+03  0.12409779502E+04  0.13845222913E+04  0.18699133278E+04  0.00000000000E+00 0.  1.
         -2    1    6    6    0  503  0.23114732631E+01  0.57876391696E+02  0.88953040818E+02  0.10614924915E+03  0.00000000000E+00 0. -1.
<mgrwt>
<rscale>  0 0.30013418E+04</rscale>
<asrwt>0</asrwt>
<pdfrwt beam="1">  1        2 0.49856869E+00 0.30013418E+04</pdfrwt>
<pdfrwt beam="2">  1       -2 0.10691021E+00 0.30013418E+04</pdfrwt>
<totfact> 0.73411852E-01</totfact>
</mgrwt>
</event>
<event>
12    2  0.8147979E-008  0.2085164E+04  0.7818608E-02  0.8567807E-01
         -1   -1    0    0    0  501 -0.00000000000E+00  0.00000000000E+00  0.71442351424E+03  0.71442351424E+03  0.00000000000E+00 0.  1.
          1   -1    0    0  501    0  0.00000000000E+00 -0.00000000000E+00 -0.15214745995E+04  0.15214745995E+04  0.00000000000E+00 0. -1.
         23    2    1    2    0    0  0.50539149237E+03  0.33021212126E+03  0.30545486306E+03  0.68275872041E+03  0.91630733672E+02 0.  0.
        254    2    1    2    0    0 -0.50539149237E+03 -0.33021212126E+03 -0.11125059483E+04  0.15531393933E+04  0.90006215591E+03 0.  0.
         23    2    4    4    0    0 -0.48736259441E+03 -0.26432789692E+03 -0.14671489385E+03  0.58076691185E+03  0.91506340220E+02 0.  0.
         23    2    4    4    0    0 -0.18028897962E+02 -0.65884224333E+02 -0.96579105449E+03  0.97237248150E+03  0.89945036968E+02 0.  0.
          1    1    3    3  502    0  0.23013829023E+03  0.16139189987E+03  0.92328202179E+02  0.29586394659E+03  0.00000000000E+00 0. -1.
         -1    1    3    3    0  502  0.27525320214E+03  0.16882022139E+03  0.21312666088E+03  0.38689477383E+03  0.00000000000E+00 0.  1.
         11    1    5    5    0    0 -0.47554434927E+03 -0.26765326471E+03 -0.15332437624E+03  0.56682366092E+03  0.00000000000E+00 0.  1.
        -11    1    5    5    0    0 -0.11818245136E+02  0.33253677855E+01  0.66094823838E+01  0.13943250926E+02  0.00000000000E+00 0. -1.
          3    1    6    6  503    0 -0.29699751472E+02  0.63314349003E+01 -0.13530472806E+03  0.13867058715E+03  0.00000000000E+00 0. -1.
         -3    1    6    6    0  503  0.11670853510E+02 -0.72215659234E+02 -0.83048632643E+03  0.83370189435E+03  0.00000000000E+00 0.  1.
<mgrwt>
<rscale>  0 0.20851640E+04</rscale>
<asrwt>0</asrwt>
<pdfrwt beam="1">  1        1 0.23407301E+00 0.20851640E+04</pdfrwt>
<pdfrwt beam="2">  1       -1 0.10991131E+00 0.20851640E+04</pdfrwt>
<totfact> 0.44508196E+00</totfact>
</mgrwt>
</event>
<event>
12    2  0.8147979E-008  0.1794038E+04  0.7818608E-02  0.8709477E-01
          1   -1    0    0  501    0  0.00000000000E+00  0.00000000000E+00  0.92175517058E+03  0.92175517058E+03  0.00000000000E+00 0. -1.
         -1   -1    0    0    0  501 -0.00000000000E+00 -0.00000000000E+00 -0.87294634699E+03  0.87294634699E+03  0.00000000000E+00 0.  1.
         23    2    1    2    0    0  0.35631949899E+03 -0.43122320652E+03 -0.35347676253E+03  0.66756415995E+03  0.88198904715E+02 0.  0.
        254    2    1    2    0    0 -0.35631949899E+03  0.43122320652E+03  0.40228558612E+03  0.11271373576E+04  0.89201339169E+03 0.  0.
         23    2    4    4    0    0 -0.42232965620E+03  0.12722467315E+03  0.59774473740E+03  0.74848922100E+03  0.91590866888E+02 0.  0.
         23    2    4    4    0    0  0.66010157206E+02  0.30399853338E+03 -0.19545915128E+03  0.37864813663E+03  0.91638869486E+02 0.  0.
          1    1    3    3  502    0  0.70997254062E+02 -0.60417007915E+02 -0.27039632871E+02  0.97066815522E+02  0.00000000000E+00 0. -1.
         -1    1    3    3    0  502  0.28532224493E+03 -0.37080619861E+03 -0.32643712966E+03  0.57049734443E+03  0.00000000000E+00 0.  1.
         11    1    5    5    0    0 -0.15539059282E+03  0.71556821698E+02  0.16968615523E+03  0.24095644077E+03  0.00000000000E+00 0. -1.
        -11    1    5    5    0    0 -0.26693906337E+03  0.55667851448E+02  0.42805858217E+03  0.50753278023E+03  0.00000000000E+00 0.  1.
          4    1    6    6  503    0  0.78226649419E+02  0.29450075295E+03 -0.17019624754E+03  0.34902272826E+03  0.00000000000E+00 0. -1.
         -4    1    6    6    0  503 -0.12216492213E+02  0.94977804267E+01 -0.25262903749E+02  0.29625408366E+02  0.00000000000E+00 0.  1.
<mgrwt>
<rscale>  0 0.17940377E+04</rscale>
<asrwt>0</asrwt>
<pdfrwt beam="1">  1        1 0.14180849E+00 0.17940377E+04</pdfrwt>
<pdfrwt beam="2">  1       -1 0.13429944E+00 0.17940377E+04</pdfrwt>
<totfact> 0.76994221E+00</totfact>
</mgrwt>
</event>
<event>
12    2  0.8147979E-008  0.1794094E+04  0.7818608E-02  0.8709447E-01
         -2   -1    0    0    0  501 -0.00000000000E+00  0.00000000000E+00  0.10652490947E+04  0.10652490947E+04  0.00000000000E+00 0.  1.
          2   -1    0    0  501    0  0.00000000000E+00 -0.00000000000E+00 -0.75540352350E+03  0.75540352350E+03  0.00000000000E+00 0. -1.
         23    2    1    2    0    0 -0.30717943617E+03  0.57600022713E+03 -0.25088215076E+02  0.65945710568E+03  0.90104317579E+02 0.  0.
        254    2    1    2    0    0  0.30717943617E+03 -0.57600022713E+03  0.33493378629E+03  0.11611955125E+04  0.90003272690E+03 0.  0.
         23    2    4    4    0    0  0.45382907870E+03 -0.32450610419E+03  0.54951814785E+03  0.78830672982E+03  0.90511110612E+02 0.  0.
         23    2    4    4    0    0 -0.14664964253E+03 -0.25149412294E+03 -0.21458436156E+03  0.37288878271E+03  0.90797491822E+02 0.  0.
          4    1    3    3  502    0 -0.71027399026E+02  0.17241953147E+03 -0.43563523917E+02  0.19149717194E+03  0.00000000000E+00 0.  1.
         -4    1    3    3    0  502 -0.23615203714E+03  0.40358069566E+03  0.18475308841E+02  0.46795993374E+03  0.00000000000E+00 0. -1.
         11    1    5    5    0    0  0.24154953930E+03 -0.11860292678E+03  0.27615814725E+03  0.38558547233E+03  0.00000000000E+00 0.  1.
        -11    1    5    5    0    0  0.21227953940E+03 -0.20590317741E+03  0.27336000060E+03  0.40272125750E+03  0.00000000000E+00 0. -1.
          1    1    6    6  503    0 -0.35383414798E+02 -0.66519242639E+01 -0.26602510505E+02  0.44765251081E+02  0.00000000000E+00 0. -1.
         -1    1    6    6    0  503 -0.11126622773E+03 -0.24484219868E+03 -0.18798185105E+03  0.32812353163E+03  0.00000000000E+00 0.  1.
<mgrwt>
<rscale>  0 0.17940936E+04</rscale>
<asrwt>0</asrwt>
<pdfrwt beam="1">  1        2 0.11621593E+00 0.17940936E+04</pdfrwt>
<pdfrwt beam="2">  1       -2 0.16388448E+00 0.17940936E+04</pdfrwt>
<totfact> 0.82724434E+00</totfact>
</mgrwt>
</event>
<event>
12    2  0.8147979E-008  0.2253873E+04  0.7818608E-02  0.8496334E-01
         -2   -1    0    0    0  501 -0.00000000000E+00  0.00000000000E+00  0.54623559308E+03  0.54623559308E+03  0.00000000000E+00 0.  1.
          2   -1    0    0  501    0  0.00000000000E+00 -0.00000000000E+00 -0.23249773280E+04  0.23249773280E+04  0.00000000000E+00 0. -1.
         23    2    1    2    0    0 -0.47654578983E+03  0.80591697340E+03 -0.59397470357E+03  0.11124808741E+04  0.90607334037E+02 0.  0.
        254    2    1    2    0    0  0.47654578983E+03 -0.80591697340E+03 -0.11847670313E+04  0.17587320469E+04  0.90159161298E+03 0.  0.
         23    2    4    4    0    0  0.32677513025E+03 -0.26154602441E+03  0.16019862312E+02  0.42878040391E+03  0.91693457562E+02 0.  0.
         23    2    4    4    0    0  0.14977065959E+03 -0.54437094900E+03 -0.12007868936E+04  0.13299516430E+04  0.90062357704E+02 0.  0.
          1    1    3    3  502    0 -0.33358332226E+03  0.57372524584E+03 -0.46825412919E+03  0.81221944086E+03  0.00000000000E+00 0. -1.
         -1    1    3    3    0  502 -0.14296246758E+03  0.23219172757E+03 -0.12572057438E+03  0.30026143327E+03  0.00000000000E+00 0.  1.
         11    1    5    5    0    0  0.30681686157E+03 -0.22634423834E+03  0.37243079178E+02  0.38308660603E+03  0.00000000000E+00 0. -1.
        -11    1    5    5    0    0  0.19958268682E+02 -0.35201786067E+02 -0.21223216866E+02  0.45693797885E+02  0.00000000000E+00 0.  1.
          4    1    6    6  503    0  0.13744383312E+03 -0.53854337004E+03 -0.11485575257E+04  0.12759718487E+04  0.00000000000E+00 0. -1.
         -4    1    6    6    0  503  0.12326826471E+02 -0.58275789564E+01 -0.52229367907E+02  0.53979794362E+02  0.00000000000E+00 0.  1.
<mgrwt>
<rscale>  0 0.22538726E+04</rscale>
<asrwt>0</asrwt>
<pdfrwt beam="1">  1        2 0.35768882E+00 0.22538726E+04</pdfrwt>
<pdfrwt beam="2">  1       -2 0.84036245E-01 0.22538726E+04</pdfrwt>
<totfact> 0.49372488E+00</totfact>
</mgrwt>
</event>
<event>
12    2  0.8147979E-008  0.3624109E+04  0.7818608E-02  0.8084992E-01
         -1   -1    0    0    0  501 -0.00000000000E+00  0.00000000000E+00  0.11032448040E+04  0.11032448040E+04  0.00000000000E+00 0.  1.
          1   -1    0    0  501    0  0.00000000000E+00 -0.00000000000E+00 -0.29762577628E+04  0.29762577628E+04  0.00000000000E+00 0. -1.
         23    2    1    2    0    0 -0.16384249502E+04 -0.42258837218E+03 -0.70294263425E+03  0.18345942627E+04  0.92685015488E+02 0.  0.
        254    2    1    2    0    0  0.16384249502E+04  0.42258837218E+03 -0.11700703245E+04  0.22449083040E+04  0.89862755334E+03 0.  0.
         23    2    4    4    0    0  0.15061872509E+04  0.43301486039E+03 -0.64906223718E+03  0.16986181041E+04  0.88993098750E+02 0.  0.
         23    2    4    4    0    0  0.13223769927E+03 -0.10426488212E+02 -0.52100808731E+03  0.54629019997E+03  0.96891871565E+02 0.  0.
          4    1    3    3  502    0 -0.51222133375E+03 -0.10310439223E+03 -0.25213455532E+03  0.58014915705E+03  0.00000000000E+00 0. -1.
         -4    1    3    3    0  502 -0.11262036164E+04 -0.31948397995E+03 -0.45080807893E+03  0.12544451057E+04  0.00000000000E+00 0.  1.
         11    1    5    5    0    0  0.10493025282E+04  0.30099018458E+03 -0.49597122861E+03  0.11990072337E+04  0.00000000000E+00 0.  1.
        -11    1    5    5    0    0  0.45688472274E+03  0.13202467581E+03 -0.15309100857E+03  0.49961087038E+03  0.00000000000E+00 0. -1.
          3    1    6    6  503    0  0.41760597440E+02 -0.32816437809E+02 -0.83471626647E+02  0.98936234738E+02  0.00000000000E+00 0. -1.
         -3    1    6    6    0  503  0.90477101831E+02  0.22389949598E+02 -0.43753646066E+03  0.44735396523E+03  0.00000000000E+00 0.  1.
<mgrwt>
<rscale>  0 0.36241087E+04</rscale>
<asrwt>0</asrwt>
<pdfrwt beam="1">  1        1 0.45788580E+00 0.36241087E+04</pdfrwt>
<pdfrwt beam="2">  1       -1 0.16972997E+00 0.36241087E+04</pdfrwt>
<totfact> 0.12407234E-01</totfact>
</mgrwt>
</event>
<event>
12    2  0.8147979E-008  0.1226563E+04  0.7818608E-02  0.9089919E-01
         -1   -1    0    0    0  501 -0.00000000000E+00  0.00000000000E+00  0.28479834075E+03  0.28479834075E+03  0.00000000000E+00 0.  1.
          1   -1    0    0  501    0  0.00000000000E+00 -0.00000000000E+00 -0.13206323372E+04  0.13206323372E+04  0.00000000000E+00 0. -1.
         23    2    1    2    0    0 -0.22472370397E+03  0.12617917726E+03 -0.13120414641E+03  0.30268631373E+03  0.89345109439E+02 0.  0.
        254    2    1    2    0    0  0.22472370397E+03 -0.12617917726E+03 -0.90462985005E+03  0.13027443643E+04  0.90131336675E+03 0.  0.
         23    2    4    4    0    0  0.72488147118E+02  0.38113646056E+03 -0.42194332033E+03  0.58040987080E+03  0.91213592792E+02 0.  0.
         23    2    4    4    0    0  0.15223555686E+03 -0.50731563782E+03 -0.48268652973E+03  0.72233449345E+03  0.90752483744E+02 0.  0.
          1    1    3    3  502    0 -0.66259405127E+02  0.78239437384E+02 -0.23521438328E+02  0.10519019151E+03  0.00000000000E+00 0.  1.
         -1    1    3    3    0  502 -0.15846429885E+03  0.47939739873E+02 -0.10768270809E+03  0.19749612221E+03  0.00000000000E+00 0. -1.
         11    1    5    5    0    0  0.17132207441E+02  0.36953658123E+02 -0.12376640134E+02  0.42570724700E+02  0.00000000000E+00 0.  1.
        -11    1    5    5    0    0  0.55355939677E+02  0.34418280244E+03 -0.40956668019E+03  0.53783914610E+03  0.00000000000E+00 0. -1.
          1    1    6    6  503    0  0.15781762738E+03 -0.41380202376E+03 -0.41316126312E+03  0.60567379646E+03  0.00000000000E+00 0. -1.
         -1    1    6    6    0  503 -0.55820705221E+01 -0.93513614056E+02 -0.69525266614E+02  0.11666069699E+03  0.00000000000E+00 0.  1.
<mgrwt>
<rscale>  0 0.12265625E+04</rscale>
<asrwt>0</asrwt>
<pdfrwt beam="1">  1        1 0.20317421E+00 0.12265625E+04</pdfrwt>
<pdfrwt beam="2">  1       -1 0.43815129E-01 0.12265625E+04</pdfrwt>
<totfact> 0.44445402E+01</totfact>
</mgrwt>
</event>
<event>
12    2  0.8147979E-008  0.1496850E+04  0.7818608E-02  0.8886550E-01
          1   -1    0    0  501    0  0.00000000000E+00  0.00000000000E+00  0.10473187745E+04  0.10473187745E+04  0.00000000000E+00 0. -1.
         -1   -1    0    0    0  501 -0.00000000000E+00 -0.00000000000E+00 -0.53483249707E+03  0.53483249707E+03  0.00000000000E+00 0.  1.
         23    2    1    2    0    0 -0.82724260095E+02  0.46314818942E+03  0.15297667666E+03  0.50309725255E+03  0.91408059531E+02 0.  0.
        254    2    1    2    0    0  0.82724260095E+02 -0.46314818942E+03  0.35950960081E+03  0.10790540191E+04  0.90208695501E+03 0.  0.
         23    2    4    4    0    0  0.29808888745E+03  0.14472218956E+03  0.23479291056E+03  0.41585649932E+03  0.89484189699E+02 0.  0.
         23    2    4    4    0    0 -0.21536462736E+03 -0.60787037898E+03  0.12471669025E+03  0.66319751973E+03  0.91588083259E+02 0.  0.
          1    1    3    3  502    0 -0.63127940791E+02  0.27386966394E+03  0.13548998039E+03  0.31200523156E+03  0.00000000000E+00 0. -1.
         -1    1    3    3    0  502 -0.19596319303E+02  0.18927852548E+03  0.17486696267E+02  0.19109202098E+03  0.00000000000E+00 0.  1.
         11    1    5    5    0    0  0.52657448346E+02  0.66536370339E+02  0.46218925213E+02  0.96623415858E+02  0.00000000000E+00 0.  1.
        -11    1    5    5    0    0  0.24543143910E+03  0.78185819223E+02  0.18857398534E+03  0.31923308346E+03  0.00000000000E+00 0. -1.
          1    1    6    6  503    0 -0.18907043340E+03 -0.41249075951E+03  0.75377350116E+02  0.45997608675E+03  0.00000000000E+00 0. -1.
         -1    1    6    6    0  503 -0.26294193952E+02 -0.19537961947E+03  0.49339340134E+02  0.20322143298E+03  0.00000000000E+00 0.  1.
<mgrwt>
<rscale>  0 0.14968502E+04</rscale>
<asrwt>0</asrwt>
<pdfrwt beam="1">  1        1 0.16112596E+00 0.14968502E+04</pdfrwt>
<pdfrwt beam="2">  1       -1 0.82281923E-01 0.14968502E+04</pdfrwt>
<totfact> 0.19764660E+01</totfact>
</mgrwt>
</event>
<event>
12    2  0.8147979E-008  0.1886509E+04  0.7818608E-02  0.8661601E-01
         -1   -1    0    0    0  501 -0.00000000000E+00  0.00000000000E+00  0.80958962549E+03  0.80958962549E+03  0.00000000000E+00 0.  1.
          1   -1    0    0  501    0  0.00000000000E+00 -0.00000000000E+00 -0.10989873656E+04  0.10989873656E+04  0.00000000000E+00 0. -1.
         23    2    1    2    0    0 -0.73387319612E+02 -0.66070703715E+03 -0.41194845576E+03  0.78735585429E+03  0.91149456705E+02 0.  0.
        254    2    1    2    0    0  0.73387319612E+02  0.66070703715E+03  0.12255071562E+03  0.11212211368E+04  0.89453824523E+03 0.  0.
         23    2    4    4    0    0 -0.33011560873E+02 -0.20849047415E+03 -0.19662045189E+02  0.22954287780E+03  0.88007361989E+02 0.  0.
         23    2    4    4    0    0  0.10639888048E+03  0.86919751130E+03  0.14221276081E+03  0.89167825904E+03  0.89669464606E+02 0.  0.
          1    1    3    3  502    0 -0.73630864460E+02 -0.32689957298E+03 -0.23743843096E+03  0.41068460346E+03  0.00000000000E+00 0. -1.
         -1    1    3    3    0  502  0.24354484834E+00 -0.33380746417E+03 -0.17451002479E+03  0.37667125083E+03  0.00000000000E+00 0.  1.
         11    1    5    5    0    0  0.25103668264E+01 -0.17254172461E+03 -0.36299162582E+02  0.17633654720E+03  0.00000000000E+00 0.  1.
        -11    1    5    5    0    0 -0.35521927699E+02 -0.35948749542E+02  0.16637117394E+02  0.53206330604E+02  0.00000000000E+00 0. -1.
          4    1    6    6  503    0  0.36863586474E+02  0.24362460589E+03  0.49982044138E-01  0.24639779849E+03  0.00000000000E+00 0. -1.
         -4    1    6    6    0  503  0.69535294011E+02  0.62557290542E+03  0.14216277876E+03  0.64528046055E+03  0.00000000000E+00 0.  1.
<mgrwt>
<rscale>  0 0.18865087E+04</rscale>
<asrwt>0</asrwt>
<pdfrwt beam="1">  1        1 0.16907498E+00 0.18865087E+04</pdfrwt>
<pdfrwt beam="2">  1       -1 0.12455225E+00 0.18865087E+04</pdfrwt>
<totfact> 0.67185223E+00</totfact>
</mgrwt>
</event>
<event>
12    2  0.8147979E-008  0.3582912E+04  0.7818608E-02  0.8094417E-01
          2   -1    0    0  501    0  0.00000000000E+00  0.00000000000E+00  0.19095126274E+04  0.19095126274E+04  0.00000000000E+00 0. -1.
         -2   -1    0    0    0  501 -0.00000000000E+00 -0.00000000000E+00 -0.16806986702E+04  0.16806986702E+04  0.00000000000E+00 0.  1.
         23    2    1    2    0    0  0.24710569723E+03  0.16569696509E+04  0.15264249654E+03  0.16869912238E+04  0.12660966737E+03 0.  0.
        254    2    1    2    0    0 -0.24710569723E+03 -0.16569696509E+04  0.76171460654E+02  0.19032200737E+04  0.89990827753E+03 0.  0.
         23    2    4    4    0    0 -0.19795590762E+01 -0.11713205453E+04 -0.32774841191E+03  0.12199309127E+04  0.93897133266E+02 0.  0.
         23    2    4    4    0    0 -0.24512613815E+03 -0.48564910562E+03  0.40391987257E+03  0.68328916108E+03  0.88266283477E+02 0.  0.
          4    1    3    3  502    0  0.23876526160E+03  0.12274265324E+04  0.11066660757E+03  0.12553214093E+04  0.00000000000E+00 0. -1.
         -4    1    3    3    0  502  0.83404356270E+01  0.42954311856E+03  0.41975888973E+02  0.43166981459E+03  0.00000000000E+00 0.  1.
         11    1    5    5    0    0 -0.31546194225E+00 -0.11213926956E+04 -0.29287506465E+03  0.11590071099E+04  0.00000000000E+00 0. -1.
        -11    1    5    5    0    0 -0.16640971339E+01 -0.49927849718E+02 -0.34873347265E+02  0.60923802788E+02  0.00000000000E+00 0.  1.
          3    1    6    6  503    0 -0.16203240134E+03 -0.37641279649E+03  0.33710176932E+03  0.53063989232E+03  0.00000000000E+00 0. -1.
         -3    1    6    6    0  503 -0.83093736819E+02 -0.10923630913E+03  0.66818103243E+02  0.15264926875E+03  0.00000000000E+00 0.  1.
<mgrwt>
<rscale>  0 0.35829124E+04</rscale>
<asrwt>0</asrwt>
<pdfrwt beam="1">  1        2 0.29377118E+00 0.35829124E+04</pdfrwt>
<pdfrwt beam="2">  1       -2 0.25856902E+00 0.35829124E+04</pdfrwt>
<totfact> 0.34857991E-01</totfact>
</mgrwt>
</event>
<event>
12    2  0.8147979E-008  0.4032720E+04  0.7818608E-02  0.7997978E-01
          1   -1    0    0  501    0  0.00000000000E+00  0.00000000000E+00  0.17565829587E+04  0.17565829587E+04  0.00000000000E+00 0. -1.
         -1   -1    0    0    0  501 -0.00000000000E+00 -0.00000000000E+00 -0.23145547577E+04  0.23145547577E+04  0.00000000000E+00 0.  1.
         23    2    1    2    0    0 -0.13539919591E+04  0.12778128237E+04 -0.71693053784E+03  0.19974713781E+04  0.99008446449E+02 0.  0.
        254    2    1    2    0    0  0.13539919591E+04 -0.12778128237E+04  0.15895873888E+03  0.20736663383E+04  0.89929103418E+03 0.  0.
         23    2    4    4    0    0  0.58416293950E+03 -0.21441055521E+03  0.38841368755E+03  0.73786779708E+03  0.79783878184E+02 0.  0.
         23    2    4    4    0    0  0.76982901964E+03 -0.10634022685E+04 -0.22945494867E+03  0.13357985412E+04  0.90813353630E+02 0.  0.
          1    1    3    3  502    0 -0.88139163286E+03  0.85754790700E+03 -0.42710921501E+03  0.13017918055E+04  0.00000000000E+00 0. -1.
         -1    1    3    3    0  502 -0.47260032628E+03  0.42026491668E+03 -0.28982132283E+03  0.69567957262E+03  0.00000000000E+00 0.  1.
         11    1    5    5    0    0  0.55676697578E+03 -0.21610279500E+03  0.35558422329E+03  0.69507555214E+03  0.00000000000E+00 0. -1.
        -11    1    5    5    0    0  0.27395963721E+02  0.16922397889E+01  0.32829464254E+02  0.42792244939E+02  0.00000000000E+00 0.  1.
          4    1    6    6  503    0  0.61144889083E+03 -0.79987753765E+03 -0.14709719704E+03  0.10175025340E+04  0.00000000000E+00 0. -1.
         -4    1    6    6    0  503  0.15838012880E+03 -0.26352473082E+03 -0.82357751631E+02  0.31829600721E+03  0.00000000000E+00 0.  1.
<mgrwt>
<rscale>  0 0.40327199E+04</rscale>
<asrwt>0</asrwt>
<pdfrwt beam="1">  1        1 0.27024353E+00 0.40327199E+04</pdfrwt>
<pdfrwt beam="2">  1       -1 0.35608535E+00 0.40327199E+04</pdfrwt>
<totfact> 0.48168532E-02</totfact>
</mgrwt>
</event>
<event>
12    2  0.8147979E-008  0.1685331E+04  0.7818608E-02  0.8769775E-01
          2   -1    0    0  501    0  0.00000000000E+00  0.00000000000E+00  0.64346099769E+03  0.64346099769E+03  0.00000000000E+00 0. -1.
         -2   -1    0    0    0  501 -0.00000000000E+00 -0.00000000000E+00 -0.11035403275E+04  0.11035403275E+04  0.00000000000E+00 0.  1.
         23    2    1    2    0    0  0.27723704075E+03 -0.21846083879E+03  0.33357880229E+03  0.49431937252E+03  0.92148303613E+02 0.  0.
        254    2    1    2    0    0 -0.27723704075E+03  0.21846083879E+03 -0.79365813208E+03  0.12526819526E+04  0.90262579678E+03 0.  0.
         23    2    4    4    0    0 -0.21445830609E+03  0.23011823655E+03 -0.98191952574E+03  0.10352557719E+04  0.92961229967E+02 0.  0.
         23    2    4    4    0    0 -0.62778734666E+02 -0.11657397761E+02  0.18826139366E+03  0.21742618080E+03  0.88060929498E+02 0.  0.
          1    1    3    3  502    0  0.60198771090E+02 -0.11748634709E+02  0.32201902501E+02  0.69273984893E+02  0.00000000000E+00 0. -1.
         -1    1    3    3    0  502  0.21703826966E+03 -0.20671220408E+03  0.30137689979E+03  0.42504538762E+03  0.00000000000E+00 0.  1.
         11    1    5    5    0    0 -0.26631652733E+02  0.80031678556E+02 -0.19586800793E+03  0.21325710077E+03  0.00000000000E+00 0.  1.
        -11    1    5    5    0    0 -0.18782665335E+03  0.15008655800E+03 -0.78605151781E+03  0.82199867108E+03  0.00000000000E+00 0. -1.
          1    1    6    6  503    0  0.28450965148E+00  0.30176560692E+02  0.78534818306E+02  0.84133367026E+02  0.00000000000E+00 0. -1.
         -1    1    6    6    0  503 -0.63063244317E+02 -0.41833958453E+02  0.10972657535E+03  0.13329281377E+03  0.00000000000E+00 0.  1.
<mgrwt>
<rscale>  0 0.16853310E+04</rscale>
<asrwt>0</asrwt>
<pdfrwt beam="1">  1        2 0.98994001E-01 0.16853310E+04</pdfrwt>
<pdfrwt beam="2">  1       -2 0.16977543E+00 0.16853310E+04</pdfrwt>
<totfact> 0.92707153E+00</totfact>
</mgrwt>
</event>
<event>
12    2  0.8147979E-008  0.1909781E+04  0.7818608E-02  0.8650003E-01
          1   -1    0    0  501    0  0.00000000000E+00  0.00000000000E+00  0.19526559635E+04  0.19526559635E+04  0.00000000000E+00 0. -1.
         -1   -1    0    0    0  501 -0.00000000000E+00 -0.00000000000E+00 -0.46696188827E+03  0.46696188827E+03  0.00000000000E+00 0.  1.
         23    2    1    2    0    0  0.53841078759E+03 -0.20297711716E+03  0.11698723918E+04  0.13068561799E+04  0.90475276721E+02 0.  0.
        254    2    1    2    0    0 -0.53841078759E+03  0.20297711716E+03  0.31582168345E+03  0.11127616718E+04  0.89855957861E+03 0.  0.
         23    2    4    4    0    0 -0.68367243397E+03  0.10887197074E+03  0.48827198322E+03  0.85190021145E+03  0.89796089452E+02 0.  0.
         23    2    4    4    0    0  0.14526164638E+03  0.94105146415E+02 -0.17245029977E+03  0.26086146040E+03  0.91394043223E+02 0.  0.
          4    1    3    3  502    0  0.85532087295E+02 -0.65979098364E+02  0.25309163702E+03  0.27518058818E+03  0.00000000000E+00 0. -1.
         -4    1    3    3    0  502  0.45287870029E+03 -0.13699801879E+03  0.91678075475E+03  0.10316755917E+04  0.00000000000E+00 0.  1.
         11    1    5    5    0    0 -0.19124781816E+03  0.12452618229E+02  0.92392951649E+02  0.21276102361E+03  0.00000000000E+00 0. -1.
        -11    1    5    5    0    0 -0.49242461581E+03  0.96419352513E+02  0.39587903157E+03  0.63913918784E+03  0.00000000000E+00 0.  1.
          4    1    6    6  503    0  0.55658851232E+02 -0.17818305134E+01 -0.18758055998E+02  0.58761784395E+02  0.00000000000E+00 0. -1.
         -4    1    6    6    0  503  0.89602795151E+02  0.95886976929E+02 -0.15369224377E+03  0.20209967600E+03  0.00000000000E+00 0.  1.
<mgrwt>
<rscale>  0 0.19097811E+04</rscale>
<asrwt>0</asrwt>
<pdfrwt beam="1">  1        1 0.30040860E+00 0.19097811E+04</pdfrwt>
<pdfrwt beam="2">  1       -1 0.71840292E-01 0.19097811E+04</pdfrwt>
<totfact> 0.58661999E+00</totfact>
</mgrwt>
</event>
<event>
12    2  0.8147979E-008  0.3823875E+04  0.7818608E-02  0.8041051E-01
          2   -1    0    0  501    0  0.00000000000E+00  0.00000000000E+00  0.18525697075E+04  0.18525697075E+04  0.00000000000E+00 0. -1.
         -2   -1    0    0    0  501 -0.00000000000E+00 -0.00000000000E+00 -0.19732080014E+04  0.19732080014E+04  0.00000000000E+00 0.  1.
         23    2    1    2    0    0 -0.16566441699E+04 -0.68904567338E+03 -0.25480072551E+03  0.18143829700E+04  0.88364620804E+02 0.  0.
        254    2    1    2    0    0  0.16566441699E+04  0.68904567338E+03  0.13416243161E+03  0.20113947389E+04  0.89914147485E+03 0.  0.
         23    2    4    4    0    0  0.99550535483E+03  0.47519926610E+02  0.35031458342E+03  0.10603525535E+04  0.91313610178E+02 0.  0.
         23    2    4    4    0    0  0.66113881510E+03  0.64152574677E+03 -0.21615215181E+03  0.95104218540E+03  0.95392185627E+02 0.  0.
          1    1    3    3  502    0 -0.13506792328E+04 -0.54265236092E+03 -0.23656197511E+03  0.14747093079E+04  0.00000000000E+00 0. -1.
         -1    1    3    3    0  502 -0.30596493712E+03 -0.14639331246E+03 -0.18238750399E+02  0.33967366206E+03  0.00000000000E+00 0.  1.
         11    1    5    5    0    0  0.90560121386E+03  0.51745623815E+02  0.34403801141E+03  0.97013056927E+03  0.00000000000E+00 0.  1.
        -11    1    5    5    0    0  0.89904140964E+02 -0.42256972051E+01  0.62765720141E+01  0.90221984215E+02  0.00000000000E+00 0. -1.
          3    1    6    6  503    0  0.42187303606E+03  0.36510090748E+03 -0.95368486404E+02  0.56601296752E+03  0.00000000000E+00 0. -1.
         -3    1    6    6    0  503  0.23926577904E+03  0.27642483929E+03 -0.12078366541E+03  0.38502921788E+03  0.00000000000E+00 0.  1.
<mgrwt>
<rscale>  0 0.38238752E+04</rscale>
<asrwt>0</asrwt>
<pdfrwt beam="1">  1        2 0.28501073E+00 0.38238752E+04</pdfrwt>
<pdfrwt beam="2">  1       -2 0.30357046E+00 0.38238752E+04</pdfrwt>
<totfact> 0.19512093E-01</totfact>
</mgrwt>
</event>
<event>
12    2  0.8147979E-008  0.1990169E+04  0.7818608E-02  0.8611231E-01
         -1   -1    0    0    0  501 -0.00000000000E+00  0.00000000000E+00  0.51180178903E+03  0.51180178903E+03  0.00000000000E+00 0.  1.
          1   -1    0    0  501    0  0.00000000000E+00 -0.00000000000E+00 -0.19347205355E+04  0.19347205355E+04  0.00000000000E+00 0. -1.
         23    2    1    2    0    0 -0.65676836229E+02 -0.78549497608E+03 -0.53685322649E+03  0.95805392263E+03  0.91324299056E+02 0.  0.
        254    2    1    2    0    0  0.65676836229E+02  0.78549497608E+03 -0.88606552002E+03  0.14884684019E+04  0.89950557171E+03 0.  0.
         23    2    4    4    0    0  0.31982371383E+03  0.53670969333E+03 -0.92576294473E+03  0.11207608551E+04  0.93398938046E+02 0.  0.
         23    2    4    4    0    0 -0.25414687760E+03  0.24878528275E+03  0.39697424713E+02  0.36770754684E+03  0.84547041161E+02 0.  0.
          3    1    3    3  502    0 -0.35379956673E+02 -0.14945252404E+03 -0.13951570548E+03  0.20749079583E+03  0.00000000000E+00 0. -1.
         -3    1    3    3    0  502 -0.30296879556E+02 -0.63604245204E+03 -0.39733752100E+03  0.75056312680E+03  0.00000000000E+00 0.  1.
         11    1    5    5    0    0  0.11058274427E+03  0.24706210308E+03 -0.33964282603E+03  0.43431034455E+03  0.00000000000E+00 0.  1.
        -11    1    5    5    0    0  0.20924096957E+03  0.28964759026E+03 -0.58612011870E+03  0.68645051055E+03  0.00000000000E+00 0. -1.
          1    1    6    6  503    0 -0.26077757595E+03  0.24531588719E+03  0.38054264282E+02  0.36004576883E+03  0.00000000000E+00 0. -1.
         -1    1    6    6    0  503  0.66306983448E+01  0.34693955628E+01  0.16431604311E+01  0.76617780125E+01  0.00000000000E+00 0.  1.
<mgrwt>
<rscale>  0 0.19901693E+04</rscale>
<asrwt>0</asrwt>
<pdfrwt beam="1">  1        1 0.29764931E+00 0.19901693E+04</pdfrwt>
<pdfrwt beam="2">  1       -1 0.78738737E-01 0.19901693E+04</pdfrwt>
<totfact> 0.49433458E+00</totfact>
</mgrwt>
</event>
<event>
12    2  0.8147979E-008  0.1456249E+04  0.7818608E-02  0.8914080E-01
          1   -1    0    0  501    0  0.00000000000E+00  0.00000000000E+00  0.44257055004E+03  0.44257055004E+03  0.00000000000E+00 0. -1.
         -1   -1    0    0    0  501 -0.00000000000E+00 -0.00000000000E+00 -0.11979224872E+04  0.11979224872E+04  0.00000000000E+00 0.  1.
         23    2    1    2    0    0 -0.10575434806E+03 -0.36627601750E+03  0.19793187640E+02  0.39313584064E+03  0.93925054133E+02 0.  0.
        254    2    1    2    0    0  0.10575434806E+03  0.36627601750E+03 -0.77514512482E+03  0.12473571966E+04  0.89983771221E+03 0.  0.
         23    2    4    4    0    0 -0.33971566080E+03  0.67189537170E+01 -0.11958075922E+03  0.37233456569E+03  0.94242221429E+02 0.  0.
         23    2    4    4    0    0  0.44547000886E+03  0.35955706378E+03 -0.65556436561E+03  0.87502263093E+03  0.90416570858E+02 0.  0.
          3    1    3    3  502    0  0.18440563884E+01 -0.14790491360E+03  0.22880599678E+02  0.14967560206E+03  0.00000000000E+00 0. -1.
         -3    1    3    3    0  502 -0.10759840444E+03 -0.21837110389E+03 -0.30874120380E+01  0.24346023858E+03  0.00000000000E+00 0.  1.
         11    1    5    5    0    0 -0.16949591841E+03  0.16557432150E+02 -0.11993290788E+02  0.17072449719E+03  0.00000000000E+00 0. -1.
        -11    1    5    5    0    0 -0.17021974240E+03 -0.98384784326E+01 -0.10758746843E+03  0.20161006850E+03  0.00000000000E+00 0.  1.
          2    1    6    6  503    0  0.39789167636E+03  0.32577824220E+03 -0.62429513744E+03  0.80882239573E+03  0.00000000000E+00 0. -1.
         -2    1    6    6    0  503  0.47578332495E+02  0.33778821579E+02 -0.31269228169E+02  0.66200235200E+02  0.00000000000E+00 0.  1.
<mgrwt>
<rscale>  0 0.14562489E+04</rscale>
<asrwt>0</asrwt>
<pdfrwt beam="1">  1        1 0.68087776E-01 0.14562489E+04</pdfrwt>
<pdfrwt beam="2">  1       -1 0.18429577E+00 0.14562489E+04</pdfrwt>
<totfact> 0.98562447E+00</totfact>
</mgrwt>
</event>
<event>
12    2  0.8147979E-008  0.1966330E+04  0.7818608E-02  0.8622526E-01
          2   -1    0    0  501    0  0.00000000000E+00  0.00000000000E+00  0.98760993593E+03  0.98760993593E+03  0.00000000000E+00 0. -1.
         -2   -1    0    0    0  501 -0.00000000000E+00 -0.00000000000E+00 -0.97874053484E+03  0.97874053484E+03  0.00000000000E+00 0.  1.
         23    2    1    2    0    0 -0.47742410216E+03  0.48478942804E+03 -0.36216665847E+03  0.77648177422E+03  0.93833332679E+02 0.  0.
        254    2    1    2    0    0  0.47742410216E+03 -0.48478942804E+03  0.37103605956E+03  0.11898686965E+04  0.90286499247E+03 0.  0.
         23    2    4    4    0    0  0.72250059591E+03 -0.27610909202E+03  0.17045731530E+03  0.79735810937E+03  0.92091891313E+02 0.  0.
         23    2    4    4    0    0 -0.24507649375E+03 -0.20868033603E+03  0.20057874427E+03  0.39251058717E+03  0.10110765528E+03 0.  0.
          1    1    3    3  502    0 -0.56559731203E+02  0.10443749305E+03 -0.48714589905E+02  0.12837174306E+03  0.00000000000E+00 0. -1.
         -1    1    3    3    0  502 -0.42086437096E+03  0.38035193500E+03 -0.31345206857E+03  0.64811003116E+03  0.00000000000E+00 0.  1.
         11    1    5    5    0    0  0.70832246356E+03 -0.25488992898E+03  0.15905990009E+03  0.76940863012E+03  0.00000000000E+00 0. -1.
        -11    1    5    5    0    0  0.14178132353E+02 -0.21219163039E+02  0.11397415204E+02  0.27949479251E+02  0.00000000000E+00 0.  1.
          2    1    6    6  503    0 -0.25121145192E+03 -0.21334039347E+03  0.19743344967E+03  0.38418912545E+03  0.00000000000E+00 0. -1.
         -2    1    6    6    0  503  0.61349581711E+01  0.46600574419E+01  0.31452945934E+01  0.83214617227E+01  0.00000000000E+00 0.  1.
<mgrwt>
<rscale>  0 0.19663305E+04</rscale>
<asrwt>0</asrwt>
<pdfrwt beam="1">  1        2 0.15193999E+00 0.19663305E+04</pdfrwt>
<pdfrwt beam="2">  1       -2 0.15057547E+00 0.19663305E+04</pdfrwt>
<totfact> 0.70879557E+00</totfact>
</mgrwt>
</event>
<event>
12    2  0.8147979E-008  0.2136803E+04  0.7818608E-02  0.8545202E-01
         -1   -1    0    0    0  501 -0.00000000000E+00  0.00000000000E+00  0.12861119943E+04  0.12861119943E+04  0.00000000000E+00 0.  1.
          1   -1    0    0  501    0  0.00000000000E+00 -0.00000000000E+00 -0.88754461445E+03  0.88754461445E+03  0.00000000000E+00 0. -1.
         23    2    1    2    0    0 -0.48667715648E+02 -0.87379145728E+03  0.15025608820E+03  0.89277432747E+03  0.92677129779E+02 0.  0.
        254    2    1    2    0    0  0.48667715648E+02  0.87379145728E+03  0.24831129166E+03  0.12808822813E+04  0.90173214626E+03 0.  0.
         23    2    4    4    0    0 -0.97440435383E+02 -0.77645477197E+02 -0.16735046371E+03  0.22835854165E+03  0.92833115133E+02 0.  0.
         23    2    4    4    0    0  0.14610815103E+03  0.95143693448E+03  0.41566175537E+03  0.10525237396E+04  0.91933103599E+02 0.  0.
          3    1    3    3  502    0  0.77624736036E+01 -0.44761548145E+03  0.43290561185E+02  0.44977099497E+03  0.00000000000E+00 0. -1.
         -3    1    3    3    0  502 -0.56430189252E+02 -0.42617597584E+03  0.10696552702E+03  0.44300333250E+03  0.00000000000E+00 0.  1.
         11    1    5    5    0    0 -0.79618250826E+02 -0.18652883104E+02 -0.50104505806E+02  0.95903375409E+02  0.00000000000E+00 0. -1.
        -11    1    5    5    0    0 -0.17822184557E+02 -0.58992594093E+02 -0.11724595790E+03  0.13245516624E+03  0.00000000000E+00 0.  1.
          2    1    6    6  503    0  0.11710081377E+03  0.60518005922E+03  0.22503484832E+03  0.65619828377E+03  0.00000000000E+00 0. -1.
         -2    1    6    6    0  503  0.29007337260E+02  0.34625687526E+03  0.19062690705E+03  0.39632545587E+03  0.00000000000E+00 0.  1.
<mgrwt>
<rscale>  0 0.21368030E+04</rscale>
<asrwt>0</asrwt>
<pdfrwt beam="1">  1        1 0.13654533E+00 0.21368030E+04</pdfrwt>
<pdfrwt beam="2">  1       -1 0.19786338E+00 0.21368030E+04</pdfrwt>
<totfact> 0.26595583E+00</totfact>
</mgrwt>
</event>
<event>
12    2  0.8147979E-008  0.2754524E+04  0.7818608E-02  0.8317528E-01
          1   -1    0    0  501    0  0.00000000000E+00  0.00000000000E+00  0.11226942729E+04  0.11226942729E+04  0.00000000000E+00 0. -1.
         -1   -1    0    0    0  501 -0.00000000000E+00 -0.00000000000E+00 -0.16895519771E+04  0.16895519771E+04  0.00000000000E+00 0.  1.
         23    2    1    2    0    0 -0.94855849763E+03  0.61786037534E+03  0.23078168009E+03  0.11595957582E+04  0.99435767228E+02 0.  0.
        254    2    1    2    0    0  0.94855849763E+03 -0.61786037534E+03 -0.79763938432E+03  0.16526504918E+04  0.90194811038E+03 0.  0.
         23    2    4    4    0    0  0.45540144330E+03 -0.61208318459E+03 -0.85295091146E+03  0.11481084115E+04  0.92689631480E+02 0.  0.
         23    2    4    4    0    0  0.49315705433E+03 -0.57771907469E+01  0.55311527137E+02  0.50454208031E+03  0.90918037800E+02 0.  0.
          1    1    3    3  502    0 -0.69330364537E+02  0.60916573888E+02 -0.50514100219E+01  0.92428594949E+02  0.00000000000E+00 0. -1.
         -1    1    3    3    0  502 -0.87922813310E+03  0.55694380145E+03  0.23583309011E+03  0.10671671633E+04  0.00000000000E+00 0.  1.
         11    1    5    5    0    0  0.17948816662E+03 -0.24753704407E+03 -0.27540823956E+03  0.41150976727E+03  0.00000000000E+00 0. -1.
        -11    1    5    5    0    0  0.27591327668E+03 -0.36454614052E+03 -0.57754267189E+03  0.73659864423E+03  0.00000000000E+00 0.  1.
          2    1    6    6  503    0  0.30950048672E+03  0.20117157553E+02 -0.28398074486E+01  0.31016659365E+03  0.00000000000E+00 0. -1.
         -2    1    6    6    0  503  0.18365656761E+03 -0.25894348300E+02  0.58151334586E+02  0.19437548666E+03  0.00000000000E+00 0.  1.
<mgrwt>
<rscale>  0 0.27545238E+04</rscale>
<asrwt>0</asrwt>
<pdfrwt beam="1">  1        1 0.17272220E+00 0.27545238E+04</pdfrwt>
<pdfrwt beam="2">  1       -1 0.25993107E+00 0.27545238E+04</pdfrwt>
<totfact> 0.63632721E-01</totfact>
</mgrwt>
</event>
<event>
12    2  0.8147979E-008  0.1558843E+04  0.7818608E-02  0.8846239E-01
         -2   -1    0    0    0  501 -0.00000000000E+00  0.00000000000E+00  0.31964988603E+03  0.31964988603E+03  0.00000000000E+00 0.  1.
          2   -1    0    0  501    0  0.00000000000E+00 -0.00000000000E+00 -0.19005113197E+04  0.19005113197E+04  0.00000000000E+00 0. -1.
         23    2    1    2    0    0 -0.32787334095E+03  0.38919609864E+03 -0.41530461842E+03  0.66331209450E+03  0.92360585338E+02 0.  0.
        254    2    1    2    0    0  0.32787334095E+03 -0.38919609864E+03 -0.11655568152E+04  0.15568491112E+04  0.89793203230E+03 0.  0.
         23    2    4    4    0    0  0.41484824463E+03  0.12216396053E+03 -0.26823575244E+03  0.51723973991E+03  0.92538804477E+02 0.  0.
         23    2    4    4    0    0 -0.86974903677E+02 -0.51136005918E+03 -0.89732106278E+03  0.10396093713E+04  0.80924725352E+02 0.  0.
          2    1    3    3  502    0 -0.22653506542E+03  0.21324256856E+03 -0.21562473698E+03  0.37852946531E+03  0.00000000000E+00 0. -1.
         -2    1    3    3    0  502 -0.10133827553E+03  0.17595353008E+03 -0.19967988144E+03  0.28478262919E+03  0.00000000000E+00 0.  1.
         11    1    5    5    0    0  0.33260384290E+03  0.62988910699E+02 -0.22843934591E+03  0.40838395407E+03  0.00000000000E+00 0. -1.
        -11    1    5    5    0    0  0.82244401725E+02  0.59175049834E+02 -0.39796406529E+02  0.10885578584E+03  0.00000000000E+00 0.  1.
          2    1    6    6  503    0 -0.98539277507E+02 -0.42504132999E+03 -0.77625747865E+03  0.89047503872E+03  0.00000000000E+00 0. -1.
         -2    1    6    6    0  503  0.11564373830E+02 -0.86318729185E+02 -0.12106358413E+03  0.14913433257E+03  0.00000000000E+00 0.  1.
<mgrwt>
<rscale>  0 0.15588435E+04</rscale>
<asrwt>0</asrwt>
<pdfrwt beam="1">  1        2 0.29238635E+00 0.15588435E+04</pdfrwt>
<pdfrwt beam="2">  1       -2 0.49176906E-01 0.15588435E+04</pdfrwt>
<totfact> 0.28577335E+01</totfact>
</mgrwt>
</event>
<event>
12    2  0.8147979E-008  0.1847487E+04  0.7818608E-02  0.8681446E-01
         -2   -1    0    0    0  501 -0.00000000000E+00  0.00000000000E+00  0.43569362540E+03  0.43569362540E+03  0.00000000000E+00 0. -1.
          2   -1    0    0  501    0  0.00000000000E+00 -0.00000000000E+00 -0.19584912092E+04  0.19584912092E+04  0.00000000000E+00 0.  1.
         23    2    1    2    0    0  0.12220026586E+03 -0.18868487273E+03  0.27471128034E+03  0.36569565197E+03  0.87932565896E+02 0.  0.
        254    2    1    2    0    0 -0.12220026586E+03  0.18868487273E+03 -0.17975088641E+04  0.20284891826E+04  0.91279535560E+03 0.  0.
         23    2    4    4    0    0 -0.21124881112E+03 -0.31269989396E+03 -0.51009688185E+03  0.64100750928E+03  0.91019306757E+02 0.  0.
         23    2    4    4    0    0  0.89048545252E+02  0.50138476668E+03 -0.12874119823E+04  0.13874816733E+04  0.91430050068E+02 0.  0.
          4    1    3    3  502    0  0.23121415343E+02 -0.96801143684E+02  0.75240840183E+02  0.12476475984E+03  0.00000000000E+00 0. -1.
         -4    1    3    3    0  502  0.99078850521E+02 -0.91883729043E+02  0.19947044016E+03  0.24093089213E+03  0.00000000000E+00 0.  1.
         11    1    5    5    0    0 -0.68362661535E+02 -0.37413686643E+02 -0.96683375289E+02  0.12418096673E+03  0.00000000000E+00 0.  1.
        -11    1    5    5    0    0 -0.14288614958E+03 -0.27528620731E+03 -0.41341350656E+03  0.51682654255E+03  0.00000000000E+00 0. -1.
          4    1    6    6  503    0  0.73604557935E+02  0.48023166895E+03 -0.11640368269E+04  0.12613571346E+04  0.00000000000E+00 0. -1.
         -4    1    6    6    0  503  0.15443987316E+02  0.21153097735E+02 -0.12337515541E+03  0.12612453869E+03  0.00000000000E+00 0.  1.
<mgrwt>
<rscale>  0 0.18474871E+04</rscale>
<asrwt>0</asrwt>
<pdfrwt beam="1">  1        2 0.30130634E+00 0.18474871E+04</pdfrwt>
<pdfrwt beam="2">  1       -2 0.67029788E-01 0.18474871E+04</pdfrwt>
<totfact> 0.13536766E+01</totfact>
</mgrwt>
</event>
<event>
12    2  0.8147979E-008  0.1036044E+04  0.7818608E-02  0.9269873E-01
          1   -1    0    0  501    0  0.00000000000E+00  0.00000000000E+00  0.16102128426E+04  0.16102128426E+04  0.00000000000E+00 0. -1.
         -1   -1    0    0    0  501 -0.00000000000E+00 -0.00000000000E+00 -0.16665288248E+03  0.16665288248E+03  0.00000000000E+00 0.  1.
         23    2    1    2    0    0 -0.63933642678E+02  0.59780193595E+02  0.23136085732E+03  0.26473715818E+03  0.94322502136E+02 0.  0.
        254    2    1    2    0    0  0.63933642678E+02 -0.59780193595E+02  0.12121991028E+04  0.15121285669E+04  0.89969158927E+03 0.  0.
         23    2    4    4    0    0 -0.13684836066E+02 -0.35250536484E+03  0.13408774746E+03  0.38825489363E+03  0.91186794140E+02 0.  0.
         23    2    4    4    0    0  0.77618478744E+02  0.29272517125E+03  0.10781113553E+04  0.11238736733E+04  0.95159260410E+02 0.  0.
          1    1    3    3  502    0  0.13278413825E+02  0.24627034705E+02  0.12797775753E+03  0.13100043334E+03  0.00000000000E+00 0. -1.
         -1    1    3    3    0  502 -0.77212056503E+02  0.35153158890E+02  0.10338309978E+03  0.13373672484E+03  0.00000000000E+00 0.  1.
         11    1    5    5    0    0  0.16130474097E+02 -0.25658936148E+03  0.12909675270E+03  0.28768778942E+03  0.00000000000E+00 0. -1.
        -11    1    5    5    0    0 -0.29815310163E+02 -0.95916003362E+02  0.49909947560E+01  0.10056710421E+03  0.00000000000E+00 0.  1.
          2    1    6    6  503    0 -0.14413070224E+02  0.95628091885E+02  0.40963953482E+03  0.42090024595E+03  0.00000000000E+00 0. -1.
         -2    1    6    6    0  503  0.92031548968E+02  0.19709707936E+03  0.66847182052E+03  0.70297342733E+03  0.00000000000E+00 0.  1.
<mgrwt>
<rscale>  0 0.10360437E+04</rscale>
<asrwt>0</asrwt>
<pdfrwt beam="1">  1        1 0.24772504E+00 0.10360437E+04</pdfrwt>
<pdfrwt beam="2">  1       -1 0.25638906E-01 0.10360437E+04</pdfrwt>
<totfact> 0.73711160E+01</totfact>
</mgrwt>
</event>
<event>
12    2  0.8147979E-008  0.3118057E+04  0.7818608E-02  0.8210800E-01
          1   -1    0    0  501    0  0.00000000000E+00  0.00000000000E+00  0.18668827856E+04  0.18668827856E+04  0.00000000000E+00 0. -1.
         -1   -1    0    0    0  501 -0.00000000000E+00 -0.00000000000E+00 -0.13019401748E+04  0.13019401748E+04  0.00000000000E+00 0.  1.
         23    2    1    2    0    0 -0.63125821504E+03  0.33737636755E+03 -0.99648895487E+03  0.12301794966E+04  0.89675020724E+02 0.  0.
        254    2    1    2    0    0  0.63125821504E+03 -0.33737636755E+03  0.15614315657E+04  0.19386434638E+04  0.89886606229E+03 0.  0.
         23    2    4    4    0    0  0.48044008504E+03 -0.28265950035E+03  0.25585510774E+03  0.62013952385E+03  0.91608539040E+02 0.  0.
         23    2    4    4    0    0  0.15081812999E+03 -0.54716867194E+02  0.13055764579E+04  0.13185039399E+04  0.90458323047E+02 0.  0.
          4    1    3    3  502    0 -0.35896319578E+03  0.22306684494E+03 -0.52695086875E+03  0.67549286547E+03  0.00000000000E+00 0. -1.
         -4    1    3    3    0  502 -0.27229501926E+03  0.11430952261E+03 -0.46953808612E+03  0.55468663116E+03  0.00000000000E+00 0.  1.
         11    1    5    5    0    0  0.21153446931E+03 -0.14529088446E+03  0.16385504813E+03  0.30447454673E+03  0.00000000000E+00 0.  1.
        -11    1    5    5    0    0  0.26890561574E+03 -0.13736861589E+03  0.92000059610E+02  0.31566497711E+03  0.00000000000E+00 0. -1.
          3    1    6    6  503    0  0.15446760032E+03 -0.38220538145E+02  0.12578502142E+04  0.12678754712E+04  0.00000000000E+00 0. -1.
         -3    1    6    6    0  503 -0.36494703245E+01 -0.16496329049E+02  0.47726243700E+02  0.50628468706E+02  0.00000000000E+00 0.  1.
<mgrwt>
<rscale>  0 0.31180569E+04</rscale>
<asrwt>0</asrwt>
<pdfrwt beam="1">  1        1 0.28721274E+00 0.31180569E+04</pdfrwt>
<pdfrwt beam="2">  1       -1 0.20029849E+00 0.31180569E+04</pdfrwt>
<totfact> 0.46309373E-01</totfact>
</mgrwt>
</event>
<event>
12    2  0.8147979E-008  0.3372439E+04  0.7818608E-02  0.8144704E-01
          2   -1    0    0  501    0  0.00000000000E+00  0.00000000000E+00  0.24511319446E+04  0.24511319446E+04  0.00000000000E+00 0. -1.
         -2   -1    0    0    0  501 -0.00000000000E+00 -0.00000000000E+00 -0.11600096639E+04  0.11600096639E+04  0.00000000000E+00 0.  1.
         23    2    1    2    0    0 -0.11710588858E+04  0.17423437910E+03 -0.49218964889E+03  0.12852481773E+04  0.88745106408E+02 0.  0.
        254    2    1    2    0    0  0.11710588858E+04 -0.17423437910E+03  0.17833119296E+04  0.23258934311E+04  0.90985838550E+03 0.  0.
         23    2    4    4    0    0  0.69777941740E+03 -0.20482176817E+03  0.16780568801E+04  0.18311061728E+04  0.90701991576E+02 0.  0.
         23    2    4    4    0    0  0.47327946845E+03  0.30587389072E+02  0.10525504949E+03  0.49478725828E+03  0.93844349242E+02 0.  0.
          2    1    3    3  502    0 -0.86460685715E+03  0.12005430386E+03 -0.40351848395E+03  0.96165753790E+03  0.00000000000E+00 0. -1.
         -2    1    3    3    0  502 -0.30645202870E+03  0.54180075231E+02 -0.88671164934E+02  0.32359063944E+03  0.00000000000E+00 0.  1.
         11    1    5    5    0    0  0.68794063093E+03 -0.18986435374E+03  0.16512433719E+04  0.17988650471E+04  0.00000000000E+00 0.  1.
        -11    1    5    5    0    0  0.98387864675E+01 -0.14957414424E+02  0.26813508234E+02  0.32241125743E+02  0.00000000000E+00 0. -1.
          3    1    6    6  503    0  0.21629939364E+02 -0.36097901652E+01 -0.14489666414E+02  0.26283745828E+02  0.00000000000E+00 0. -1.
         -3    1    6    6    0  503  0.45164952908E+03  0.34197179237E+02  0.11974471591E+03  0.46850351245E+03  0.00000000000E+00 0.  1.
<mgrwt>
<rscale>  0 0.33724393E+04</rscale>
<asrwt>0</asrwt>
<pdfrwt beam="1">  1        2 0.37709722E+00 0.33724393E+04</pdfrwt>
<pdfrwt beam="2">  1       -2 0.17846303E+00 0.33724393E+04</pdfrwt>
<totfact> 0.57317692E-01</totfact>
</mgrwt>
</event>
<event>
12    2  0.8147979E-008  0.1415593E+04  0.7818608E-02  0.8942608E-01
          2   -1    0    0  501    0  0.00000000000E+00  0.00000000000E+00  0.16197319015E+04  0.16197319015E+04  0.00000000000E+00 0. -1.
         -2   -1    0    0    0  501 -0.00000000000E+00 -0.00000000000E+00 -0.30929567171E+03  0.30929567171E+03  0.00000000000E+00 0.  1.
         23    2    1    2    0    0  0.47722704261E+02  0.37562307245E+03  0.15519258428E+03  0.41767648341E+03  0.83658577092E+02 0.  0.
        254    2    1    2    0    0 -0.47722704261E+02 -0.37562307245E+03  0.11552436456E+04  0.15113510898E+04  0.89789982019E+03 0.  0.
         23    2    4    4    0    0 -0.18473044250E+03 -0.62105854541E+03  0.94255508263E+03  0.11474700640E+04  0.91860823388E+02 0.  0.
         23    2    4    4    0    0  0.13700773824E+03  0.24543547296E+03  0.21268856293E+03  0.36388102579E+03  0.90350895995E+02 0.  0.
          2    1    3    3  502    0  0.52316198288E+02  0.17727117831E+03  0.10675317826E+03  0.21344389504E+03  0.00000000000E+00 0. -1.
         -2    1    3    3    0  502 -0.45934940277E+01  0.19835189414E+03  0.48439406020E+02  0.20423258837E+03  0.00000000000E+00 0.  1.
         11    1    5    5    0    0 -0.13821623436E+03 -0.44920177343E+03  0.75111780511E+03  0.88603832753E+03  0.00000000000E+00 0. -1.
        -11    1    5    5    0    0 -0.46514208138E+02 -0.17185677198E+03  0.19143727751E+03  0.26143173651E+03  0.00000000000E+00 0.  1.
          2    1    6    6  503    0  0.11209460769E+02  0.29954042852E+02 -0.54659884545E+01  0.32446474750E+02  0.00000000000E+00 0. -1.
         -2    1    6    6    0  503  0.12579827747E+03  0.21548143011E+03  0.21815455139E+03  0.33143455104E+03  0.00000000000E+00 0.  1.
<mgrwt>
<rscale>  0 0.14155933E+04</rscale>
<asrwt>0</asrwt>
<pdfrwt beam="1">  1        2 0.24918952E+00 0.14155933E+04</pdfrwt>
<pdfrwt beam="2">  1       -2 0.47583950E-01 0.14155933E+04</pdfrwt>
<totfact> 0.44228972E+01</totfact>
</mgrwt>
</event>
<event>
12    2  0.8147979E-008  0.1797506E+04  0.7818608E-02  0.8707627E-01
         -1   -1    0    0    0  501 -0.00000000000E+00  0.00000000000E+00  0.63547596737E+03  0.63547596737E+03  0.00000000000E+00 0.  1.
          1   -1    0    0  501    0  0.00000000000E+00 -0.00000000000E+00 -0.12711052447E+04  0.12711052447E+04  0.00000000000E+00 0. -1.
         23    2    1    2    0    0 -0.47403701422E+03 -0.46102072019E+03 -0.35291439486E+03  0.75596605777E+03  0.98411966238E+02 0.  0.
        254    2    1    2    0    0  0.47403701422E+03  0.46102072019E+03 -0.28271488251E+03  0.11506151543E+04  0.89818502174E+03 0.  0.
         23    2    4    4    0    0  0.71789887265E+02  0.48163579658E+03  0.18204436078E+03  0.52918702126E+03  0.98853051140E+02 0.  0.
         23    2    4    4    0    0  0.40224712696E+03 -0.20615076384E+02 -0.46475924329E+03  0.62142813307E+03  0.89129332001E+02 0.  0.
          2    1    3    3  502    0 -0.18372058202E+02 -0.54516614444E+02 -0.37589133235E+02  0.68720715293E+02  0.00000000000E+00 0. -1.
         -2    1    3    3    0  502 -0.45566495602E+03 -0.40650410575E+03 -0.31532526162E+03  0.68724534248E+03  0.00000000000E+00 0.  1.
         11    1    5    5    0    0  0.62147833402E+02  0.30228386827E+03  0.16176932644E+03  0.34843536731E+03  0.00000000000E+00 0.  1.
        -11    1    5    5    0    0  0.96420538632E+01  0.17935192830E+03  0.20275034345E+02  0.18075165395E+03  0.00000000000E+00 0. -1.
          2    1    6    6  503    0  0.10011564397E+02 -0.10956356857E+02 -0.24064821404E+01  0.15035435928E+02  0.00000000000E+00 0. -1.
         -2    1    6    6    0  503  0.39223556256E+03 -0.96587195266E+01 -0.46235276115E+03  0.60639269714E+03  0.00000000000E+00 0.  1.
<mgrwt>
<rscale>  0 0.17975059E+04</rscale>
<asrwt>0</asrwt>
<pdfrwt beam="1">  1        1 0.19555465E+00 0.17975059E+04</pdfrwt>
<pdfrwt beam="2">  1       -1 0.97765535E-01 0.17975059E+04</pdfrwt>
<totfact> 0.89871372E+00</totfact>
</mgrwt>
</event>
<event>
12    2  0.8147979E-008  0.1483104E+04  0.7818608E-02  0.8895767E-01
         -2   -1    0    0    0  501 -0.00000000000E+00  0.00000000000E+00  0.31928176037E+03  0.31928176037E+03  0.00000000000E+00 0.  1.
          2   -1    0    0  501    0  0.00000000000E+00 -0.00000000000E+00 -0.17223004271E+04  0.17223004271E+04  0.00000000000E+00 0. -1.
         23    2    1    2    0    0 -0.41951742087E+03 -0.31037728250E+02 -0.71743107182E+03  0.83637265696E+03  0.88620942806E+02 0.  0.
        254    2    1    2    0    0  0.41951742087E+03  0.31037728250E+02 -0.68558759495E+03  0.12052095305E+04  0.89751961270E+03 0.  0.
         23    2    4    4    0    0 -0.19355795746E+03 -0.21895846919E+03 -0.32452550303E+03  0.44575745646E+03  0.89305172014E+02 0.  0.
         23    2    4    4    0    0  0.61307537833E+03  0.24999619744E+03 -0.36106209192E+03  0.75945207408E+03  0.89677758426E+02 0.  0.
          2    1    3    3  502    0 -0.29752122203E+03 -0.18097359724E+02 -0.58028686506E+03  0.65236434433E+03  0.00000000000E+00 0. -1.
         -2    1    3    3    0  502 -0.12199619884E+03 -0.12940368526E+02 -0.13714420676E+03  0.18400831263E+03  0.00000000000E+00 0.  1.
         11    1    5    5    0    0  0.22383328247E+01 -0.40508420210E+01 -0.35532179744E+02  0.35832321335E+02  0.00000000000E+00 0.  1.
        -11    1    5    5    0    0 -0.19579629029E+03 -0.21490762717E+03 -0.28899332328E+03  0.40992513512E+03  0.00000000000E+00 0. -1.
          2    1    6    6  503    0  0.50782346132E+03  0.19575136712E+03 -0.33204665925E+03  0.63754078263E+03  0.00000000000E+00 0. -1.
         -2    1    6    6    0  503  0.10525191701E+03  0.54244830319E+02 -0.29015432672E+02  0.12191129145E+03  0.00000000000E+00 0.  1.
<mgrwt>
<rscale>  0 0.14831037E+04</rscale>
<asrwt>0</asrwt>
<pdfrwt beam="1">  1        2 0.26496929E+00 0.14831037E+04</pdfrwt>
<pdfrwt beam="2">  1       -2 0.49120272E-01 0.14831037E+04</pdfrwt>
<totfact> 0.36173618E+01</totfact>
</mgrwt>
</event>
<event>
12    2  0.8147979E-008  0.2191286E+04  0.7818608E-02  0.8522064E-01
          3   -1    0    0  501    0  0.00000000000E+00  0.00000000000E+00  0.76385290351E+03  0.76385290351E+03  0.00000000000E+00 0. -1.
         -3   -1    0    0    0  501 -0.00000000000E+00 -0.00000000000E+00 -0.15715511509E+04  0.15715511509E+04  0.00000000000E+00 0.  1.
         23    2    1    2    0    0  0.55125656400E+03 -0.19924334692E+03  0.40042879348E+03  0.71737673091E+03  0.10346228660E+03 0.  0.
        254    2    1    2    0    0 -0.55125656400E+03  0.19924334692E+03 -0.12081270409E+04  0.16180273235E+04  0.90269583033E+03 0.  0.
         23    2    4    4    0    0 -0.54377711960E+03 -0.16780974583E+03 -0.10702105976E+04  0.12155371093E+04  0.91247324725E+02 0.  0.
         23    2    4    4    0    0 -0.74794444067E+01  0.36705309275E+03 -0.13791644330E+03  0.40249021423E+03  0.90518021600E+02 0.  0.
          2    1    3    3  502    0  0.50126018129E+03 -0.21096648997E+03  0.36418266565E+03  0.65452092648E+03  0.00000000000E+00 0. -1.
         -2    1    3    3    0  502  0.49996382711E+02  0.11723143055E+02  0.36246127830E+02  0.62855804426E+02  0.00000000000E+00 0.  1.
         11    1    5    5    0    0 -0.66868387168E+02  0.63657033409E+01 -0.99242412612E+02  0.11983722227E+03  0.00000000000E+00 0. -1.
        -11    1    5    5    0    0 -0.47690873243E+03 -0.17417544917E+03 -0.97096818498E+03  0.10956998870E+04  0.00000000000E+00 0.  1.
          3    1    6    6  503    0  0.32450996793E+02  0.12228997146E+03 -0.20771877596E+02  0.12821612695E+03  0.00000000000E+00 0. -1.
         -3    1    6    6    0  503 -0.39930441199E+02  0.24476312129E+03 -0.11714456570E+03  0.27427408728E+03  0.00000000000E+00 0.  1.
<mgrwt>
<rscale>  0 0.21912863E+04</rscale>
<asrwt>0</asrwt>
<pdfrwt beam="1">  1        3 0.11751583E+00 0.21912863E+04</pdfrwt>
<pdfrwt beam="2">  1       -3 0.24177710E+00 0.21912863E+04</pdfrwt>
<totfact> 0.11619562E-01</totfact>
</mgrwt>
</event>
<event>
12    2  0.8147979E-008  0.1251316E+04  0.7818608E-02  0.9069089E-01
          2   -1    0    0  501    0  0.00000000000E+00  0.00000000000E+00  0.11204285383E+04  0.11204285383E+04  0.00000000000E+00 0.  1.
         -2   -1    0    0    0  501 -0.00000000000E+00 -0.00000000000E+00 -0.34937325300E+03  0.34937325300E+03  0.00000000000E+00 0. -1.
         23    2    1    2    0    0  0.27648333445E+03 -0.10388918385E+03  0.18431450108E+03  0.35599141369E+03  0.74310527937E+02 0.  0.
        254    2    1    2    0    0 -0.27648333445E+03  0.10388918385E+03  0.58674078420E+03  0.11138103776E+04  0.89948474840E+03 0.  0.
         23    2    4    4    0    0 -0.59273676571E+03  0.84259251814E+02  0.29353029640E+03  0.67289024093E+03  0.90469588762E+02 0.  0.
         23    2    4    4    0    0  0.31625343125E+03  0.19629932036E+02  0.29321048779E+03  0.44092013665E+03  0.89647140161E+02 0.  0.
          1    1    3    3  502    0  0.13333822488E+03 -0.49249494826E+02  0.45516350010E+02  0.14925258146E+03  0.00000000000E+00 0. -1.
         -1    1    3    3    0  502  0.14314510958E+03 -0.54639689025E+02  0.13879815107E+03  0.20673883223E+03  0.00000000000E+00 0.  1.
         11    1    5    5    0    0 -0.18808049593E+03  0.78976450615E+00  0.55710135470E+02  0.19615941444E+03  0.00000000000E+00 0. -1.
        -11    1    5    5    0    0 -0.40465626978E+03  0.83469487308E+02  0.23782016093E+03  0.47673082649E+03  0.00000000000E+00 0.  1.
          4    1    6    6  503    0  0.88266400117E+02 -0.18754909104E+01  0.13959290131E+03  0.16516855921E+03  0.00000000000E+00 0. -1.
         -4    1    6    6    0  503  0.22798703114E+03  0.21505422947E+02  0.15361758648E+03  0.27575157744E+03  0.00000000000E+00 0.  1.
<mgrwt>
<rscale>  0 0.12513157E+04</rscale>
<asrwt>0</asrwt>
<pdfrwt beam="1">  1        2 0.17237362E+00 0.12513157E+04</pdfrwt>
<pdfrwt beam="2">  1       -2 0.53749732E-01 0.12513157E+04</pdfrwt>
<totfact> 0.67865124E+01</totfact>
</mgrwt>
</event>
<event>
12    2  0.8147979E-008  0.2244885E+04  0.7818608E-02  0.8499975E-01
         -2   -1    0    0    0  501 -0.00000000000E+00  0.00000000000E+00  0.67774346303E+03  0.67774346303E+03  0.00000000000E+00 0. -1.
          2   -1    0    0  501    0  0.00000000000E+00 -0.00000000000E+00 -0.18589296141E+04  0.18589296141E+04  0.00000000000E+00 0.  1.
         23    2    1    2    0    0  0.14576252270E+03 -0.92449646355E+03 -0.59118070220E+03  0.11106661977E+04  0.90246085382E+02 0.  0.
        254    2    1    2    0    0 -0.14576252270E+03  0.92449646355E+03 -0.59000544886E+03  0.14260068794E+04  0.89969370696E+03 0.  0.
         23    2    4    4    0    0  0.90479454191E+02 -0.54974838990E+02 -0.36322440265E+03  0.38915904710E+03  0.91126465450E+02 0.  0.
         23    2    4    4    0    0 -0.23624197689E+03  0.97947130254E+03 -0.22678104621E+03  0.10368478323E+04  0.91921054918E+02 0.  0.
          3    1    3    3  502    0  0.85906564975E+02 -0.66494121737E+03 -0.37941978330E+03  0.77038051145E+03  0.00000000000E+00 0. -1.
         -3    1    3    3    0  502  0.59855957726E+02 -0.25955524618E+03 -0.21176091890E+03  0.34028568625E+03  0.00000000000E+00 0.  1.
         11    1    5    5    0    0  0.10234616110E+03 -0.35839213583E+02 -0.33973062220E+03  0.35661755647E+03  0.00000000000E+00 0.  1.
        -11    1    5    5    0    0 -0.11866706906E+02 -0.19135625407E+02 -0.23493780447E+02  0.32541490626E+02  0.00000000000E+00 0. -1.
          3    1    6    6  503    0 -0.13119393141E+03  0.40819131463E+03 -0.63149811153E+02  0.43338192813E+03  0.00000000000E+00 0.  1.
         -3    1    6    6    0  503 -0.10504804548E+03  0.57127998791E+03 -0.16363123506E+03  0.60346590420E+03  0.00000000000E+00 0. -1.
<mgrwt>
<rscale>  0 0.22448852E+04</rscale>
<asrwt>0</asrwt>
<pdfrwt beam="1">  1        2 0.28598917E+00 0.22448852E+04</pdfrwt>
<pdfrwt beam="2">  1       -2 0.10426823E+00 0.22448852E+04</pdfrwt>
<totfact> 0.54480212E+00</totfact>
</mgrwt>
</event>
<event>
12    2  0.8147979E-008  0.1992031E+04  0.7818608E-02  0.8610355E-01
         -2   -1    0    0    0  501 -0.00000000000E+00  0.00000000000E+00  0.70633761385E+03  0.70633761385E+03  0.00000000000E+00 0.  1.
          2   -1    0    0  501    0  0.00000000000E+00 -0.00000000000E+00 -0.14044943238E+04  0.14044943238E+04  0.00000000000E+00 0. -1.
         23    2    1    2    0    0  0.56712635835E+03  0.46163918743E+03 -0.59846599405E+03  0.94932790243E+03  0.91207864705E+02 0.  0.
        254    2    1    2    0    0 -0.56712635835E+03 -0.46163918743E+03 -0.99690715916E+02  0.11615040352E+04  0.89688925700E+03 0.  0.
         23    2    4    4    0    0 -0.13534957607E+03 -0.64313783520E+03 -0.15450381964E+03  0.68159406306E+03  0.93558824842E+02 0.  0.
         23    2    4    4    0    0 -0.43177678228E+03  0.18149864776E+03  0.54813103727E+02  0.47990997218E+03  0.89085106490E+02 0.  0.
          4    1    3    3  502    0  0.51412037409E+03  0.41245307175E+03 -0.57073875041E+03  0.87188302924E+03  0.00000000000E+00 0. -1.
         -4    1    3    3    0  502  0.53005984267E+02  0.49186115682E+02 -0.27727243632E+02  0.77444873190E+02  0.00000000000E+00 0.  1.
         11    1    5    5    0    0 -0.95997525634E+01 -0.50632388296E+02  0.13015884023E+02  0.53152678491E+02  0.00000000000E+00 0. -1.
        -11    1    5    5    0    0 -0.12574982351E+03 -0.59250544690E+03 -0.16751970367E+03  0.62844138457E+03  0.00000000000E+00 0.  1.
          1    1    6    6  503    0 -0.22649315465E+02 -0.98221342912E+01 -0.16527345805E+01  0.24742622025E+02  0.00000000000E+00 0. -1.
         -1    1    6    6    0  503 -0.40912746682E+03  0.19132078206E+03  0.56465838307E+02  0.45516735016E+03  0.00000000000E+00 0.  1.
<mgrwt>
<rscale>  0 0.19920313E+04</rscale>
<asrwt>0</asrwt>
<pdfrwt beam="1">  1        2 0.21607605E+00 0.19920313E+04</pdfrwt>
<pdfrwt beam="2">  1       -2 0.10866733E+00 0.19920313E+04</pdfrwt>
<totfact> 0.90510973E+00</totfact>
</mgrwt>
</event>
<event>
12    2  0.8147979E-008  0.1361895E+04  0.7818608E-02  0.8981872E-01
          2   -1    0    0  501    0  0.00000000000E+00  0.00000000000E+00  0.65094736013E+03  0.65094736013E+03  0.00000000000E+00 0.  1.
         -2   -1    0    0    0  501 -0.00000000000E+00 -0.00000000000E+00 -0.71233047795E+03  0.71233047795E+03  0.00000000000E+00 0. -1.
         23    2    1    2    0    0 -0.12624870837E+03 -0.33847876378E+03  0.95679432959E+02  0.38503332105E+03  0.92679525975E+02 0.  0.
        254    2    1    2    0    0  0.12624870837E+03  0.33847876378E+03 -0.15706255078E+03  0.97824451702E+03  0.89542564199E+03 0.  0.
         23    2    4    4    0    0 -0.22922350007E+03  0.50475598052E+03 -0.70325354789E+02  0.56631787363E+03  0.91914447217E+02 0.  0.
         23    2    4    4    0    0  0.35547220844E+03 -0.16627721674E+03 -0.86737195991E+02  0.41192664340E+03  0.90286292372E+02 0.  0.
          1    1    3    3  502    0  0.37929708199E+01 -0.14057512355E+02 -0.12469203705E+02  0.19169802354E+02  0.00000000000E+00 0. -1.
         -1    1    3    3    0  502 -0.13004167919E+03 -0.32442125142E+03  0.10814863666E+03  0.36586351870E+03  0.00000000000E+00 0.  1.
         11    1    5    5    0    0 -0.13458323199E+03  0.24591121048E+03 -0.76724102281E+02  0.29063991061E+03  0.00000000000E+00 0.  1.
        -11    1    5    5    0    0 -0.94640268080E+02  0.25884477004E+03  0.63987474919E+01  0.27567796301E+03  0.00000000000E+00 0. -1.
          1    1    6    6  503    0  0.23033363073E+03 -0.13067098091E+03 -0.95536297965E+02  0.28152383722E+03  0.00000000000E+00 0. -1.
         -1    1    6    6    0  503  0.12513857772E+03 -0.35606235833E+02  0.87991019739E+01  0.13040280618E+03  0.00000000000E+00 0.  1.
<mgrwt>
<rscale>  0 0.13618952E+04</rscale>
<asrwt>0</asrwt>
<pdfrwt beam="1">  1        2 0.10014575E+00 0.13618952E+04</pdfrwt>
<pdfrwt beam="2">  1       -2 0.10958931E+00 0.13618952E+04</pdfrwt>
<totfact> 0.29042543E+01</totfact>
</mgrwt>
</event>
<event>
12    2  0.8147979E-008  0.1198565E+04  0.7818608E-02  0.9114113E-01
         -1   -1    0    0    0  501 -0.00000000000E+00  0.00000000000E+00  0.17712954253E+03  0.17712954253E+03  0.00000000000E+00 0.  1.
          1   -1    0    0  501    0  0.00000000000E+00 -0.00000000000E+00 -0.20275530385E+04  0.20275530385E+04  0.00000000000E+00 0. -1.
         23    2    1    2    0    0  0.38767145733E+02 -0.41624020719E+02  0.37054545909E+02  0.11255660750E+03  0.89780286421E+02 0.  0.
        254    2    1    2    0    0 -0.38767145733E+02  0.41624020719E+02 -0.18874780419E+04  0.20921259736E+04  0.90065658264E+03 0.  0.
         23    2    4    4    0    0  0.40615287501E+03 -0.38088300536E+02 -0.66484186594E+03  0.78547020862E+03  0.92400570408E+02 0.  0.
         23    2    4    4    0    0 -0.44492002074E+03  0.79712321256E+02 -0.12226361760E+04  0.13066557649E+04  0.90565944159E+02 0.  0.
          3    1    3    3  502    0 -0.12353469653E+02 -0.52556463492E+02  0.17816837417E+02  0.56852702335E+02  0.00000000000E+00 0. -1.
         -3    1    3    3    0  502  0.51120615386E+02  0.10932442772E+02  0.19237708493E+02  0.55703905163E+02  0.00000000000E+00 0.  1.
         11    1    5    5    0    0  0.13428230228E+03  0.11427801025E+02 -0.15375261287E+03  0.20445585662E+03  0.00000000000E+00 0. -1.
        -11    1    5    5    0    0  0.27187057272E+03 -0.49516101561E+02 -0.51108925307E+03  0.58101435200E+03  0.00000000000E+00 0.  1.
          1    1    6    6  503    0 -0.70574160972E+02  0.26473252415E+02 -0.12787853768E+03  0.14844010809E+03  0.00000000000E+00 0. -1.
         -1    1    6    6    0  503 -0.37434585977E+03  0.53239068841E+02 -0.10947576383E+04  0.11582156569E+04  0.00000000000E+00 0.  1.
<mgrwt>
<rscale>  0 0.11985650E+04</rscale>
<asrwt>0</asrwt>
<pdfrwt beam="1">  1        1 0.31193123E+00 0.11985650E+04</pdfrwt>
<pdfrwt beam="2">  1       -1 0.27250699E-01 0.11985650E+04</pdfrwt>
<totfact> 0.34172470E+01</totfact>
</mgrwt>
</event>
<event>
12    2  0.8147979E-008  0.2028800E+04  0.7818608E-02  0.8593273E-01
          2   -1    0    0  501    0  0.00000000000E+00  0.00000000000E+00  0.21915840586E+04  0.21915840586E+04  0.00000000000E+00 0. -1.
         -2   -1    0    0    0  501 -0.00000000000E+00 -0.00000000000E+00 -0.46952689336E+03  0.46952689336E+03  0.00000000000E+00 0.  1.
         23    2    1    2    0    0 -0.58090057555E+03 -0.54469465037E+03  0.48579922276E+03  0.93710558300E+03  0.89600491311E+02 0.  0.
        254    2    1    2    0    0  0.58090057555E+03  0.54469465037E+03  0.12362579425E+04  0.17240053690E+04  0.89984613745E+03 0.  0.
         23    2    4    4    0    0 -0.99950048744E+01  0.51806645701E+02  0.85337588580E+03  0.85970427069E+03  0.89761918016E+02 0.  0.
         23    2    4    4    0    0  0.59089558042E+03  0.49288800467E+03  0.38288205672E+03  0.86430109830E+03  0.91222514028E+02 0.  0.
          4    1    3    3  502    0 -0.29108231725E+03 -0.21863138036E+03  0.24504069740E+03  0.43883201715E+03  0.00000000000E+00 0. -1.
         -4    1    3    3    0  502 -0.28981825830E+03 -0.32606327001E+03  0.24075852536E+03  0.49827356585E+03  0.00000000000E+00 0.  1.
         11    1    5    5    0    0 -0.32155589742E+02  0.22641215812E+02  0.72866154605E+03  0.72972203975E+03  0.00000000000E+00 0.  1.
        -11    1    5    5    0    0  0.22160584867E+02  0.29165429888E+02  0.12471433975E+03  0.12998223094E+03  0.00000000000E+00 0. -1.
          2    1    6    6  503    0  0.38658486322E+03  0.28351870387E+03  0.20104870239E+03  0.51985699250E+03  0.00000000000E+00 0.  1.
         -2    1    6    6    0  503  0.20431071720E+03  0.20936930080E+03  0.18183335432E+03  0.34444410581E+03  0.00000000000E+00 0. -1.
<mgrwt>
<rscale>  0 0.20288003E+04</rscale>
<asrwt>0</asrwt>
<pdfrwt beam="1">  1        2 0.33716677E+00 0.20288003E+04</pdfrwt>
<pdfrwt beam="2">  1       -2 0.72234908E-01 0.20288003E+04</pdfrwt>
<totfact> 0.83955764E+00</totfact>
</mgrwt>
</event>
<event>
12    2  0.8147979E-008  0.3639888E+04  0.7818608E-02  0.8081415E-01
         -2   -1    0    0    0  501 -0.00000000000E+00  0.00000000000E+00  0.20855052571E+04  0.20855052571E+04  0.00000000000E+00 0.  1.
          2   -1    0    0  501    0  0.00000000000E+00 -0.00000000000E+00 -0.15881986203E+04  0.15881986203E+04  0.00000000000E+00 0. -1.
         23    2    1    2    0    0 -0.95052591361E+03 -0.12744451636E+04  0.86122369198E+03  0.18103614540E+04  0.89399995489E+02 0.  0.
        254    2    1    2    0    0  0.95052591361E+03  0.12744451636E+04 -0.36391705524E+03  0.18633424233E+04  0.90105459112E+03 0.  0.
         23    2    4    4    0    0  0.74870153788E+03  0.32129214895E+03 -0.67269780021E+00  0.81945386446E+03  0.87872325858E+02 0.  0.
         23    2    4    4    0    0  0.20182437573E+03  0.95315301460E+03 -0.36324435744E+03  0.10438885589E+04  0.92320703366E+02 0.  0.
          2    1    3    3  502    0 -0.61785469459E+03 -0.89752015501E+03  0.59420006820E+03  0.12411126352E+04  0.00000000000E+00 0. -1.
         -2    1    3    3    0  502 -0.33267121901E+03 -0.37692500855E+03  0.26702362378E+03  0.56924881879E+03  0.00000000000E+00 0.  1.
         11    1    5    5    0    0  0.16672003931E+03  0.66090756776E+02 -0.36302960433E+02  0.18297941025E+03  0.00000000000E+00 0. -1.
        -11    1    5    5    0    0  0.58198149857E+03  0.25520139218E+03  0.35630262633E+02  0.63647445421E+03  0.00000000000E+00 0.  1.
          3    1    6    6  503    0  0.11889849657E+03  0.74753028548E+03 -0.27908484464E+03  0.80673832852E+03  0.00000000000E+00 0. -1.
         -3    1    6    6    0  503  0.82925879161E+02  0.20562272913E+03 -0.84159512798E+02  0.23715023037E+03  0.00000000000E+00 0.  1.
<mgrwt>
<rscale>  0 0.36398882E+04</rscale>
<asrwt>0</asrwt>
<pdfrwt beam="1">  1        2 0.24433825E+00 0.36398882E+04</pdfrwt>
<pdfrwt beam="2">  1       -2 0.32084696E+00 0.36398882E+04</pdfrwt>
<totfact> 0.21757263E-01</totfact>
</mgrwt>
</event>
<event>
12    2  0.8147979E-008  0.2292690E+04  0.7818608E-02  0.8480809E-01
         -2   -1    0    0    0  501 -0.00000000000E+00  0.00000000000E+00  0.44736220869E+03  0.44736220869E+03  0.00000000000E+00 0. -1.
          2   -1    0    0  501    0  0.00000000000E+00 -0.00000000000E+00 -0.29374552611E+04  0.29374552611E+04  0.00000000000E+00 0.  1.
         23    2    1    2    0    0  0.44229450348E+03  0.82572184198E+03 -0.14127573466E+04  0.16975514626E+04  0.91414767485E+02 0.  0.
        254    2    1    2    0    0 -0.44229450348E+03 -0.82572184198E+03 -0.10773357058E+04  0.16872660071E+04  0.89931827946E+03 0.  0.
         23    2    4    4    0    0 -0.47378423178E+03 -0.35535836381E+03 -0.11239288312E+03  0.60968933976E+03  0.91311915005E+02 0.  0.
         23    2    4    4    0    0  0.31489728298E+02 -0.47036347816E+03 -0.96494282266E+03  0.10775766674E+04  0.88450090527E+02 0.  0.
          3    1    3    3  502    0  0.16103211222E+03  0.25601164393E+03 -0.39032818275E+03  0.49379083957E+03  0.00000000000E+00 0. -1.
         -3    1    3    3    0  502  0.28126239127E+03  0.56971019805E+03 -0.10224291638E+04  0.12037606230E+04  0.00000000000E+00 0.  1.
         11    1    5    5    0    0 -0.17690381561E+02 -0.41307478841E+02 -0.16587867361E+01  0.44966754179E+02  0.00000000000E+00 0. -1.
        -11    1    5    5    0    0 -0.45609385022E+03 -0.31405088497E+03 -0.11073409639E+03  0.56472258558E+03  0.00000000000E+00 0.  1.
          4    1    6    6  503    0  0.28508419242E+02 -0.23853707839E+03 -0.58605953147E+03  0.63338648720E+03  0.00000000000E+00 0. -1.
         -4    1    6    6    0  503  0.29813090561E+01 -0.23182639977E+03 -0.37888329119E+03  0.44419018019E+03  0.00000000000E+00 0.  1.
<mgrwt>
<rscale>  0 0.22926897E+04</rscale>
<asrwt>0</asrwt>
<pdfrwt beam="1">  1        2 0.45191620E+00 0.22926897E+04</pdfrwt>
<pdfrwt beam="2">  1       -2 0.68824954E-01 0.22926897E+04</pdfrwt>
<totfact> 0.33352512E+00</totfact>
</mgrwt>
</event>
<event>
12    2  0.8147979E-008  0.1428814E+04  0.7818608E-02  0.8933222E-01
          3   -1    0    0  501    0  0.00000000000E+00  0.00000000000E+00  0.17670774212E+04  0.17670774212E+04  0.00000000000E+00 0.  1.
         -3   -1    0    0    0  501 -0.00000000000E+00 -0.00000000000E+00 -0.28882572947E+03  0.28882572947E+03  0.00000000000E+00 0. -1.
         23    2    1    2    0    0  0.41408032254E+03  0.72517339477E+02  0.53864339507E+03  0.68960411591E+03  0.93251550069E+02 0.  0.
        254    2    1    2    0    0 -0.41408032254E+03 -0.72517339477E+02  0.93960829664E+03  0.13662990347E+04  0.89843643246E+03 0.  0.
         23    2    4    4    0    0  0.22394348894E+03  0.17282519181E+03  0.21985393014E+03  0.36969092470E+03  0.91194276366E+02 0.  0.
         23    2    4    4    0    0 -0.63802381148E+03 -0.24534253129E+03  0.71975436650E+03  0.99660811004E+03  0.88960863481E+02 0.  0.
          1    1    3    3  502    0  0.14678824521E+03  0.41970163378E+02  0.13090648817E+03  0.20110890630E+03  0.00000000000E+00 0. -1.
         -1    1    3    3    0  502  0.26729207733E+03  0.30547176099E+02  0.40773690690E+03  0.48849520961E+03  0.00000000000E+00 0.  1.
         11    1    5    5    0    0  0.93407445436E+02  0.18849983631E+02  0.67016105975E+02  0.11649648581E+03  0.00000000000E+00 0. -1.
        -11    1    5    5    0    0  0.13053604350E+03  0.15397520818E+03  0.15283782417E+03  0.25319443889E+03  0.00000000000E+00 0.  1.
          2    1    6    6  503    0 -0.44968713834E+03 -0.12846690741E+03  0.48713642956E+03  0.67529561652E+03  0.00000000000E+00 0. -1.
         -2    1    6    6    0  503 -0.18833667314E+03 -0.11687562388E+03  0.23261793694E+03  0.32131249352E+03  0.00000000000E+00 0.  1.
<mgrwt>
<rscale>  0 0.14288141E+04</rscale>
<asrwt>0</asrwt>
<pdfrwt beam="1">  1        3 0.27185806E+00 0.14288141E+04</pdfrwt>
<pdfrwt beam="2">  1       -3 0.44434729E-01 0.14288141E+04</pdfrwt>
<totfact> 0.71454324E-01</totfact>
</mgrwt>
</event>
<event>
12    2  0.8147979E-008  0.1215116E+04  0.7818608E-02  0.9099728E-01
          1   -1    0    0  501    0  0.00000000000E+00  0.00000000000E+00  0.18324905323E+03  0.18324905323E+03  0.00000000000E+00 0. -1.
         -1   -1    0    0    0  501 -0.00000000000E+00 -0.00000000000E+00 -0.20143439748E+04  0.20143439748E+04  0.00000000000E+00 0.  1.
         23    2    1    2    0    0 -0.22390819863E+03  0.11629929370E+03 -0.27744231679E+03  0.38551589846E+03  0.89374838103E+02 0.  0.
        254    2    1    2    0    0  0.22390819863E+03 -0.11629929370E+03 -0.15536526048E+04  0.18120771296E+04  0.89784558809E+03 0.  0.
         23    2    4    4    0    0 -0.15133970239E+03  0.27677835404E+03 -0.31466541044E+03  0.45611528613E+03  0.97554451110E+02 0.  0.
         23    2    4    4    0    0  0.37524790103E+03 -0.39307764773E+03 -0.12389871944E+04  0.13559618435E+04  0.90676506110E+02 0.  0.
          4    1    3    3  502    0 -0.10084645118E+02 -0.51171128119E+01  0.38084007126E+01  0.11932678940E+02  0.00000000000E+00 0.  1.
         -4    1    3    3    0  502 -0.21382355352E+03  0.12141640651E+03 -0.28125071751E+03  0.37358321952E+03  0.00000000000E+00 0. -1.
         11    1    5    5    0    0 -0.67783833679E+02  0.47603815046E+02 -0.10999005052E+03  0.13769016859E+03  0.00000000000E+00 0.  1.
        -11    1    5    5    0    0 -0.83555868714E+02  0.22917453899E+03 -0.20467535993E+03  0.31842511754E+03  0.00000000000E+00 0. -1.
          1    1    6    6  503    0  0.34078561194E+03 -0.31135368102E+03 -0.10140079409E+04  0.11141310749E+04  0.00000000000E+00 0. -1.
         -1    1    6    6    0  503  0.34462289089E+02 -0.81723966714E+02 -0.22497925350E+03  0.24183076854E+03  0.00000000000E+00 0.  1.
<mgrwt>
<rscale>  0 0.12151158E+04</rscale>
<asrwt>0</asrwt>
<pdfrwt beam="1">  1        1 0.28192161E-01 0.12151158E+04</pdfrwt>
<pdfrwt beam="2">  1       -1 0.30989908E+00 0.12151158E+04</pdfrwt>
<totfact> 0.47304890E+00</totfact>
</mgrwt>
</event>
<event>
12    2  0.8147979E-008  0.2224743E+04  0.7818608E-02  0.8508199E-01
          1   -1    0    0  501    0  0.00000000000E+00  0.00000000000E+00  0.37088968621E+04  0.37088968621E+04  0.00000000000E+00 0. -1.
         -1   -1    0    0    0  501 -0.00000000000E+00 -0.00000000000E+00 -0.33362231580E+03  0.33362231580E+03  0.00000000000E+00 0.  1.
         23    2    1    2    0    0  0.40162694150E+03  0.82777852457E+03  0.16628146261E+04  0.19025322601E+04  0.90305226747E+02 0.  0.
        254    2    1    2    0    0 -0.40162694150E+03 -0.82777852457E+03  0.17124599202E+04  0.21399869178E+04  0.89470863653E+03 0.  0.
         23    2    4    4    0    0 -0.31578327235E+03 -0.74645069875E+03  0.58959144754E+03  0.10062533087E+04  0.89554036965E+02 0.  0.
         23    2    4    4    0    0 -0.85843669144E+02 -0.81327825824E+02  0.11228684726E+04  0.11337336091E+04  0.10263984971E+03 0.  0.
          3    1    3    3  502    0  0.10389285036E+03  0.27977604738E+03  0.47578648268E+03  0.56164146762E+03  0.00000000000E+00 0. -1.
         -3    1    3    3    0  502  0.29773409114E+03  0.54800247719E+03  0.11870281434E+04  0.13408907925E+04  0.00000000000E+00 0.  1.
         11    1    5    5    0    0 -0.15405323930E+03 -0.41236807239E+03  0.26969029646E+03  0.51624866457E+03  0.00000000000E+00 0. -1.
        -11    1    5    5    0    0 -0.16173003305E+03 -0.33408262636E+03  0.31990115108E+03  0.49000464415E+03  0.00000000000E+00 0.  1.
          4    1    6    6  503    0 -0.86079466273E+02 -0.10095365544E+03  0.10468044610E+04  0.10551781340E+04  0.00000000000E+00 0. -1.
         -4    1    6    6    0  503  0.23579712848E+00  0.19625829614E+02  0.76064011660E+02  0.78555475036E+02  0.00000000000E+00 0.  1.
<mgrwt>
<rscale>  0 0.22247434E+04</rscale>
<asrwt>0</asrwt>
<pdfrwt beam="1">  1        1 0.57059949E+00 0.22247434E+04</pdfrwt>
<pdfrwt beam="2">  1       -1 0.51326513E-01 0.22247434E+04</pdfrwt>
<totfact> 0.59134491E-01</totfact>
</mgrwt>
</event>
<event>
12    2  0.8147979E-008  0.1815237E+04  0.7818608E-02  0.8698238E-01
         -1   -1    0    0    0  501 -0.00000000000E+00  0.00000000000E+00  0.12067892883E+04  0.12067892883E+04  0.00000000000E+00 0.  1.
          1   -1    0    0  501    0  0.00000000000E+00 -0.00000000000E+00 -0.68261394517E+03  0.68261394517E+03  0.00000000000E+00 0. -1.
         23    2    1    2    0    0 -0.31272985764E+03 -0.52336906209E+03 -0.11695962320E+03  0.62690999117E+03  0.87300885127E+02 0.  0.
        254    2    1    2    0    0  0.31272985764E+03  0.52336906209E+03  0.64113496635E+03  0.12624932423E+04  0.90062200884E+03 0.  0.
         23    2    4    4    0    0 -0.13965496505E+03  0.43070639110E+03 -0.47725424597E+01  0.46231735785E+03  0.93290179602E+02 0.  0.
         23    2    4    4    0    0  0.45238482269E+03  0.92662670991E+02  0.64590750881E+03  0.80017588447E+03  0.99229722102E+02 0.  0.
          2    1    3    3  502    0 -0.10979226138E+03 -0.26767431692E+03 -0.61773274460E+02  0.29583748586E+03  0.00000000000E+00 0. -1.
         -2    1    3    3    0  502 -0.20293759626E+03 -0.25569474517E+03 -0.55186348740E+02  0.33107250531E+03  0.00000000000E+00 0.  1.
         11    1    5    5    0    0 -0.14384233993E+03  0.41622263981E+03  0.10978053300E+02  0.44051381624E+03  0.00000000000E+00 0. -1.
        -11    1    5    5    0    0  0.41873748832E+01  0.14483751296E+02 -0.15750595760E+02  0.21803541612E+02  0.00000000000E+00 0.  1.
          1    1    6    6  503    0  0.38664630753E+03  0.41221081192E+02  0.52997389911E+03  0.65731794316E+03  0.00000000000E+00 0. -1.
         -1    1    6    6    0  503  0.65738515165E+02  0.51441589799E+02  0.11593360971E+03  0.14285794131E+03  0.00000000000E+00 0.  1.
<mgrwt>
<rscale>  0 0.18152368E+04</rscale>
<asrwt>0</asrwt>
<pdfrwt beam="1">  1        1 0.10501753E+00 0.18152368E+04</pdfrwt>
<pdfrwt beam="2">  1       -1 0.18565989E+00 0.18152368E+04</pdfrwt>
<totfact> 0.50569368E+00</totfact>
</mgrwt>
</event>
<event>
12    2  0.8147979E-008  0.1864830E+04  0.7818608E-02  0.8672563E-01
          2   -1    0    0  501    0  0.00000000000E+00  0.00000000000E+00  0.18359831181E+04  0.18359831181E+04  0.00000000000E+00 0. -1.
         -2   -1    0    0    0  501 -0.00000000000E+00 -0.00000000000E+00 -0.47353260673E+03  0.47353260673E+03  0.00000000000E+00 0.  1.
         23    2    1    2    0    0 -0.46684052144E+02  0.53479553221E+03 -0.54395657607E+02  0.54735415178E+03  0.91934856860E+02 0.  0.
        254    2    1    2    0    0  0.46684052144E+02 -0.53479553221E+03  0.14168461690E+04  0.17621615731E+04  0.89976368064E+03 0.  0.
         23    2    4    4    0    0 -0.40747867075E+03 -0.21916672858E+03  0.48951210851E+03  0.67825770954E+03  0.79614660334E+02 0.  0.
         23    2    4    4    0    0  0.45416272289E+03 -0.31562880364E+03  0.92733406049E+03  0.10839038635E+04  0.94941061112E+02 0.  0.
          1    1    3    3  502    0  0.25172775596E+02  0.14847654501E+03  0.47871082976E+00  0.15059608964E+03  0.00000000000E+00 0. -1.
         -1    1    3    3    0  502 -0.71856827740E+02  0.38631898720E+03 -0.54874368437E+02  0.39675806214E+03  0.00000000000E+00 0.  1.
         11    1    5    5    0    0 -0.27522695510E+03 -0.12601755155E+03  0.27030819293E+03  0.40582855897E+03  0.00000000000E+00 0. -1.
        -11    1    5    5    0    0 -0.13225171565E+03 -0.93149177025E+02  0.21920391558E+03  0.27242915056E+03  0.00000000000E+00 0.  1.
          1    1    6    6  503    0  0.22483542275E+03 -0.14681789141E+03  0.54086507505E+03  0.60385552078E+03  0.00000000000E+00 0. -1.
         -1    1    6    6    0  503  0.22932730014E+03 -0.16881091222E+03  0.38646898544E+03  0.48004834276E+03  0.00000000000E+00 0.  1.
<mgrwt>
<rscale>  0 0.18648301E+04</rscale>
<asrwt>0</asrwt>
<pdfrwt beam="1">  1        2 0.28245894E+00 0.18648301E+04</pdfrwt>
<pdfrwt beam="2">  1       -2 0.72851171E-01 0.18648301E+04</pdfrwt>
<totfact> 0.13178662E+01</totfact>
</mgrwt>
</event>
<event>
12    2  0.8147979E-008  0.1462428E+04  0.7818608E-02  0.8909829E-01
         -1   -1    0    0    0  501 -0.00000000000E+00  0.00000000000E+00  0.41909405758E+03  0.41909405758E+03  0.00000000000E+00 0.  1.
          1   -1    0    0  501    0  0.00000000000E+00 -0.00000000000E+00 -0.12757854954E+04  0.12757854954E+04  0.00000000000E+00 0. -1.
         23    2    1    2    0    0  0.41846473332E+03 -0.14855725645E+03 -0.28426818987E+03  0.53509188299E+03  0.91284872748E+02 0.  0.
        254    2    1    2    0    0 -0.41846473332E+03  0.14855725645E+03 -0.57242324796E+03  0.11597876700E+04  0.90568044762E+03 0.  0.
         23    2    4    4    0    0 -0.26615095807E+03  0.27943255985E+03 -0.76798163479E+03  0.86542901153E+03  0.10125559061E+03 0.  0.
         23    2    4    4    0    0 -0.15231377525E+03 -0.13087530340E+03  0.19555838684E+03  0.29435865847E+03  0.89867157422E+02 0.  0.
          1    1    3    3  502    0  0.44368549177E+02  0.53722387861E+01 -0.84566044922E+01  0.45485638010E+02  0.00000000000E+00 0.  1.
         -1    1    3    3    0  502  0.37409618415E+03 -0.15392949524E+03 -0.27581158538E+03  0.48960624498E+03  0.00000000000E+00 0. -1.
         11    1    5    5    0    0 -0.22855613440E+03  0.27950903136E+03 -0.70505365990E+03  0.79212616957E+03  0.00000000000E+00 0. -1.
        -11    1    5    5    0    0 -0.37594823675E+02 -0.76471507656E-01 -0.62927974896E+02  0.73302841961E+02  0.00000000000E+00 0.  1.
          4    1    6    6  503    0 -0.12322074136E+03 -0.48118366971E+02  0.11667334008E+03  0.17638423010E+03  0.00000000000E+00 0. -1.
         -4    1    6    6    0  503 -0.29093033889E+02 -0.82756936431E+02  0.78885046758E+02  0.11797442838E+03  0.00000000000E+00 0.  1.
<mgrwt>
<rscale>  0 0.14624283E+04</rscale>
<asrwt>0</asrwt>
<pdfrwt beam="1">  1        1 0.19627469E+00 0.14624283E+04</pdfrwt>
<pdfrwt beam="2">  1       -1 0.64476009E-01 0.14624283E+04</pdfrwt>
<totfact> 0.22281662E+01</totfact>
</mgrwt>
</event>
<event>
12    2  0.8147979E-008  0.2729062E+04  0.7818608E-02  0.8325637E-01
         -1   -1    0    0    0  501 -0.00000000000E+00  0.00000000000E+00  0.70385002866E+03  0.70385002866E+03  0.00000000000E+00 0.  1.
          1   -1    0    0  501    0  0.00000000000E+00 -0.00000000000E+00 -0.26453715217E+04  0.26453715217E+04  0.00000000000E+00 0. -1.
         23    2    1    2    0    0 -0.69806876032E+03  0.80007615546E+03 -0.14350528653E+03  0.10752852567E+04  0.90679476398E+02 0.  0.
        254    2    1    2    0    0  0.69806876032E+03 -0.80007615546E+03 -0.17980162065E+04  0.22739362936E+04  0.90027892335E+03 0.  0.
         23    2    4    4    0    0  0.73974852642E+03 -0.28662218472E+03 -0.71868108330E+03  0.10743835540E+04  0.91746185418E+02 0.  0.
         23    2    4    4    0    0 -0.41679766102E+02 -0.51345397075E+03 -0.10793351232E+04  0.11995527396E+04  0.92683784349E+02 0.  0.
          1    1    3    3  502    0 -0.16822094295E+03  0.16080551162E+03 -0.26713668006E+00  0.23271607073E+03  0.00000000000E+00 0. -1.
         -1    1    3    3    0  502 -0.52984781737E+03  0.63927064385E+03 -0.14323814985E+03  0.84256918602E+03  0.00000000000E+00 0.  1.
         11    1    5    5    0    0  0.64140451352E+03 -0.22251054281E+03 -0.58214773512E+03  0.89431911370E+03  0.00000000000E+00 0.  1.
        -11    1    5    5    0    0  0.98344012896E+02 -0.64111641908E+02 -0.13653334818E+03  0.18006444031E+03  0.00000000000E+00 0. -1.
          1    1    6    6  503    0  0.16270078719E+02 -0.34142209948E+02 -0.11588661092E+03  0.12190206131E+03  0.00000000000E+00 0. -1.
         -1    1    6    6    0  503 -0.57949844821E+02 -0.47931176080E+03 -0.96344851228E+03  0.10776506783E+04  0.00000000000E+00 0.  1.
<mgrwt>
<rscale>  0 0.27290620E+04</rscale>
<asrwt>0</asrwt>
<pdfrwt beam="1">  1        1 0.40698024E+00 0.27290620E+04</pdfrwt>
<pdfrwt beam="2">  1       -1 0.10828462E+00 0.27290620E+04</pdfrwt>
<totfact> 0.73938779E-01</totfact>
</mgrwt>
</event>
<event>
12    2  0.8147979E-008  0.3202070E+04  0.7818608E-02  0.8188271E-01
         -2   -1    0    0    0  501 -0.00000000000E+00  0.00000000000E+00  0.11911762926E+04  0.11911762926E+04  0.00000000000E+00 0.  1.
          2   -1    0    0  501    0  0.00000000000E+00 -0.00000000000E+00 -0.21519178884E+04  0.21519178884E+04  0.00000000000E+00 0. -1.
         23    2    1    2    0    0 -0.13270129114E+04  0.62855730100E+03 -0.55881757556E+03  0.15736766397E+04  0.90186117781E+02 0.  0.
        254    2    1    2    0    0  0.13270129114E+04 -0.62855730100E+03 -0.40192402024E+03  0.17694175413E+04  0.90180262226E+03 0.  0.
         23    2    4    4    0    0  0.12490847444E+03  0.20569790700E+03 -0.62699696316E+02  0.26458045793E+03  0.90320600470E+02 0.  0.
         23    2    4    4    0    0  0.12021044370E+04 -0.83425520799E+03 -0.33922432392E+03  0.15048370833E+04  0.91786033359E+02 0.  0.
          1    1    3    3  502    0 -0.58579032705E+03  0.23780475952E+03 -0.26884444007E+03  0.68700709158E+03  0.00000000000E+00 0. -1.
         -1    1    3    3    0  502 -0.74122258438E+03  0.39075254148E+03 -0.28997313549E+03  0.88666954812E+03  0.00000000000E+00 0.  1.
         11    1    5    5    0    0  0.74670362158E+02  0.16632161954E+03 -0.11365098944E+02  0.18266830482E+03  0.00000000000E+00 0. -1.
        -11    1    5    5    0    0  0.50238112282E+02  0.39376287456E+02 -0.51334597372E+02  0.81912153109E+02  0.00000000000E+00 0.  1.
          3    1    6    6  503    0  0.39052828103E+03 -0.27022277821E+03 -0.15444861008E+03  0.49938668515E+03  0.00000000000E+00 0. -1.
         -3    1    6    6    0  503  0.81157615596E+03 -0.56403242978E+03 -0.18477571384E+03  0.10054503982E+04  0.00000000000E+00 0.  1.
<mgrwt>
<rscale>  0 0.32020703E+04</rscale>
<asrwt>0</asrwt>
<pdfrwt beam="1">  1        2 0.33106429E+00 0.32020703E+04</pdfrwt>
<pdfrwt beam="2">  1       -2 0.18325789E+00 0.32020703E+04</pdfrwt>
<totfact> 0.79674608E-01</totfact>
</mgrwt>
</event>
<event>
12    2  0.8147979E-008  0.2419995E+04  0.7818608E-02  0.8432055E-01
          1   -1    0    0  501    0  0.00000000000E+00  0.00000000000E+00  0.56042322900E+03  0.56042322900E+03  0.00000000000E+00 0.  1.
         -1   -1    0    0    0  501 -0.00000000000E+00 -0.00000000000E+00 -0.26124791883E+04  0.26124791883E+04  0.00000000000E+00 0. -1.
         23    2    1    2    0    0  0.63614146855E+03 -0.82043522654E+03 -0.81402405593E+03  0.13222860216E+04  0.89527819490E+02 0.  0.
        254    2    1    2    0    0 -0.63614146855E+03  0.82043522654E+03 -0.12380319034E+04  0.18506163957E+04  0.90236806301E+03 0.  0.
         23    2    4    4    0    0 -0.18422019049E+03  0.39324020660E+03  0.20055680484E+02  0.44424811584E+03  0.91538076459E+02 0.  0.
         23    2    4    4    0    0 -0.45192127806E+03  0.42719501994E+03 -0.12580875839E+04  0.14063682798E+04  0.91427256117E+02 0.  0.
          3    1    3    3  502    0  0.33775266200E+03 -0.38366785111E+03 -0.44000641755E+03  0.67445053795E+03  0.00000000000E+00 0. -1.
         -3    1    3    3    0  502  0.29838880655E+03 -0.43676737543E+03 -0.37401763838E+03  0.64783548369E+03  0.00000000000E+00 0.  1.
         11    1    5    5    0    0 -0.11997067391E+03  0.21219879727E+03  0.52683289370E+02  0.24939290515E+03  0.00000000000E+00 0.  1.
        -11    1    5    5    0    0 -0.64249516576E+02  0.18104140933E+03 -0.32627608886E+02  0.19485521069E+03  0.00000000000E+00 0. -1.
          3    1    6    6  503    0 -0.38738040664E+03  0.32325014064E+03 -0.96978573148E+03  0.10931782096E+04  0.00000000000E+00 0. -1.
         -3    1    6    6    0  503 -0.64540871421E+02  0.10394487929E+03 -0.28830185240E+03  0.31319007027E+03  0.00000000000E+00 0.  1.
<mgrwt>
<rscale>  0 0.24199951E+04</rscale>
<asrwt>0</asrwt>
<pdfrwt beam="1">  1        1 0.86218960E-01 0.24199951E+04</pdfrwt>
<pdfrwt beam="2">  1       -1 0.40191987E+00 0.24199951E+04</pdfrwt>
<totfact> 0.23457347E-01</totfact>
</mgrwt>
</event>
<event>
12    2  0.8147979E-008  0.3859189E+04  0.7818608E-02  0.8033571E-01
         -2   -1    0    0    0  501 -0.00000000000E+00  0.00000000000E+00  0.14616975610E+04  0.14616975610E+04  0.00000000000E+00 0.  1.
          2   -1    0    0  501    0  0.00000000000E+00 -0.00000000000E+00 -0.25472675677E+04  0.25472675677E+04  0.00000000000E+00 0. -1.
         23    2    1    2    0    0  0.17230818593E+04  0.56881594314E+03 -0.32833079880E+03  0.18463457398E+04  0.92891369454E+02 0.  0.
        254    2    1    2    0    0 -0.17230818593E+04 -0.56881594314E+03 -0.75723920798E+03  0.21626193889E+04  0.90052691916E+03 0.  0.
         23    2    4    4    0    0 -0.10213476292E+04 -0.70682612320E+03 -0.22298608521E+03  0.12651686303E+04  0.90414162089E+02 0.  0.
         23    2    4    4    0    0 -0.70173423007E+03  0.13801018006E+03 -0.53425312277E+03  0.89745075861E+03  0.92269851453E+02 0.  0.
          3    1    3    3  502    0  0.89433911734E+03  0.25457541774E+03 -0.14188919594E+03  0.94062938719E+03  0.00000000000E+00 0. -1.
         -3    1    3    3    0  502  0.82874274194E+03  0.31424052540E+03 -0.18644160287E+03  0.90571635262E+03  0.00000000000E+00 0.  1.
         11    1    5    5    0    0 -0.25986829592E+03 -0.13446654546E+03 -0.61187109151E+02  0.29892581922E+03  0.00000000000E+00 0.  1.
        -11    1    5    5    0    0 -0.76147933330E+03 -0.57235957773E+03 -0.16179897606E+03  0.96624281106E+03  0.00000000000E+00 0. -1.
          2    1    6    6  503    0 -0.24498575310E+03  0.50772905309E+02 -0.13348408091E+03  0.28357345960E+03  0.00000000000E+00 0. -1.
         -2    1    6    6    0  503 -0.45674847697E+03  0.87237274751E+02 -0.40076904186E+03  0.61387729901E+03  0.00000000000E+00 0.  1.
<mgrwt>
<rscale>  0 0.38591889E+04</rscale>
<asrwt>0</asrwt>
<pdfrwt beam="1">  1        2 0.39188731E+00 0.38591889E+04</pdfrwt>
<pdfrwt beam="2">  1       -2 0.22487655E+00 0.38591889E+04</pdfrwt>
<totfact> 0.24003403E-01</totfact>
</mgrwt>
</event>
<event>
12    2  0.8147979E-008  0.2019963E+04  0.7818608E-02  0.8597344E-01
         -2   -1    0    0    0  501 -0.00000000000E+00  0.00000000000E+00  0.29970985256E+03  0.29970985256E+03  0.00000000000E+00 0.  1.
          2   -1    0    0  501    0  0.00000000000E+00 -0.00000000000E+00 -0.34035018762E+04  0.34035018762E+04  0.00000000000E+00 0. -1.
         23    2    1    2    0    0  0.66102953500E+03 -0.21824854329E+03 -0.50011775655E+03  0.86174963174E+03  0.88894232648E+02 0.  0.
        254    2    1    2    0    0 -0.66102953500E+03  0.21824854329E+03 -0.26036742670E+04  0.28414620970E+04  0.90010815286E+03 0.  0.
         23    2    4    4    0    0 -0.34165563169E+03 -0.25939613265E+03 -0.53159427569E+03  0.68933479388E+03  0.92601618856E+02 0.  0.
         23    2    4    4    0    0 -0.31937390330E+03  0.47764467594E+03 -0.20720799914E+04  0.21521273031E+04  0.89399728965E+02 0.  0.
          3    1    3    3  502    0  0.16159971668E+03 -0.16655988566E+02 -0.13290966973E+03  0.20989728606E+03  0.00000000000E+00 0. -1.
         -3    1    3    3    0  502  0.49942981832E+03 -0.20159255473E+03 -0.36720808682E+03  0.65185234568E+03  0.00000000000E+00 0.  1.
         11    1    5    5    0    0 -0.12762157900E+03 -0.13254082954E+03 -0.17066703077E+03  0.25096130043E+03  0.00000000000E+00 0.  1.
        -11    1    5    5    0    0 -0.21403405269E+03 -0.12685530311E+03 -0.36092724492E+03  0.43837349345E+03  0.00000000000E+00 0. -1.
          3    1    6    6  503    0 -0.10132430542E+03  0.20895754927E+03 -0.72325627012E+03  0.75962458131E+03  0.00000000000E+00 0. -1.
         -3    1    6    6    0  503 -0.21804959788E+03  0.26868712667E+03 -0.13488237212E+04  0.13925027218E+04  0.00000000000E+00 0.  1.
<mgrwt>
<rscale>  0 0.20199634E+04</rscale>
<asrwt>0</asrwt>
<pdfrwt beam="1">  1        2 0.52361566E+00 0.20199634E+04</pdfrwt>
<pdfrwt beam="2">  1       -2 0.46109209E-01 0.20199634E+04</pdfrwt>
<totfact> 0.39406945E+00</totfact>
</mgrwt>
</event>
<event>
12    2  0.8147979E-008  0.1779205E+04  0.7818608E-02  0.8717437E-01
          2   -1    0    0  501    0  0.00000000000E+00  0.00000000000E+00  0.19937456392E+04  0.19937456392E+04  0.00000000000E+00 0. -1.
         -2   -1    0    0    0  501 -0.00000000000E+00 -0.00000000000E+00 -0.39693770550E+03  0.39693770550E+03  0.00000000000E+00 0.  1.
         23    2    1    2    0    0  0.63715315925E+03  0.16258062375E+03  0.57984763661E+03  0.88155903098E+03  0.92338701842E+02 0.  0.
        254    2    1    2    0    0 -0.63715315925E+03 -0.16258062375E+03  0.10169602971E+04  0.15091243137E+04  0.90047284293E+03 0.  0.
         23    2    4    4    0    0 -0.20287368794E+02 -0.92462853908E+01 -0.15077744174E+03  0.17640437106E+03  0.88812127933E+02 0.  0.
         23    2    4    4    0    0 -0.61686579046E+03 -0.15333433836E+03  0.11677377389E+04  0.13327199427E+04  0.92174812826E+02 0.  0.
          4    1    3    3  502    0  0.38500354222E+03  0.14293797732E+03  0.34343540835E+03  0.53535677131E+03  0.00000000000E+00 0.  1.
         -4    1    3    3    0  502  0.25214961704E+03  0.19642646429E+02  0.23641222826E+03  0.34620225967E+03  0.00000000000E+00 0. -1.
         11    1    5    5    0    0 -0.49686853507E+02  0.16134077263E+02 -0.95357565632E+02  0.10872974379E+03  0.00000000000E+00 0.  1.
        -11    1    5    5    0    0  0.29399484713E+02 -0.25380362654E+02 -0.55419876103E+02  0.67674627277E+02  0.00000000000E+00 0. -1.
          2    1    6    6  503    0 -0.11886903996E+03 -0.65947236239E+02  0.27441170597E+03  0.30623629929E+03  0.00000000000E+00 0. -1.
         -2    1    6    6    0  503 -0.49799675051E+03 -0.87387102119E+02  0.89332603288E+03  0.10264836434E+04  0.00000000000E+00 0.  1.
<mgrwt>
<rscale>  0 0.17792052E+04</rscale>
<asrwt>0</asrwt>
<pdfrwt beam="1">  1        2 0.30673009E+00 0.17792052E+04</pdfrwt>
<pdfrwt beam="2">  1       -2 0.61067340E-01 0.17792052E+04</pdfrwt>
<totfact> 0.15889536E+01</totfact>
</mgrwt>
</event>
<event>
12    2  0.8147979E-008  0.3351248E+04  0.7818608E-02  0.8149976E-01
         -2   -1    0    0    0  501 -0.00000000000E+00  0.00000000000E+00  0.18756023775E+04  0.18756023775E+04  0.00000000000E+00 0.  1.
          2   -1    0    0  501    0  0.00000000000E+00 -0.00000000000E+00 -0.14969675866E+04  0.14969675866E+04  0.00000000000E+00 0. -1.
         23    2    1    2    0    0 -0.46174062089E+03  0.14579076930E+04  0.42822148090E+03  0.15906490088E+04  0.89952154152E+02 0.  0.
        254    2    1    2    0    0  0.46174062089E+03 -0.14579076930E+04 -0.49586689954E+02  0.17819209553E+04  0.91328210801E+03 0.  0.
         23    2    4    4    0    0  0.46448580633E+03 -0.19254179723E+03 -0.43491714382E+02  0.51328536844E+03  0.93546417760E+02 0.  0.
         23    2    4    4    0    0 -0.27451854371E+01 -0.12653658958E+04 -0.60949755716E+01  0.12686355869E+04  0.90778396534E+02 0.  0.
          2    1    3    3  502    0 -0.32007781022E+03  0.11289187133E+04  0.34166264411E+03  0.12221459112E+04  0.00000000000E+00 0. -1.
         -2    1    3    3    0  502 -0.14166281067E+03  0.32898897974E+03  0.86558836794E+02  0.36850309761E+03  0.00000000000E+00 0.  1.
         11    1    5    5    0    0  0.45514138249E+03 -0.17171732949E+03 -0.51316844680E+02  0.48915635317E+03  0.00000000000E+00 0.  1.
        -11    1    5    5    0    0  0.93444238370E+01 -0.20824467744E+02  0.78251302976E+01  0.24129015269E+02  0.00000000000E+00 0. -1.
          1    1    6    6  503    0  0.15803143582E+02 -0.17224196094E+03  0.25857261077E+02  0.17488747927E+03  0.00000000000E+00 0. -1.
         -1    1    6    6    0  503 -0.18548329019E+02 -0.10931239349E+04 -0.31952236648E+02  0.10937481076E+04  0.00000000000E+00 0.  1.
<mgrwt>
<rscale>  0 0.33512481E+04</rscale>
<asrwt>0</asrwt>
<pdfrwt beam="1">  1        2 0.23030270E+00 0.33512481E+04</pdfrwt>
<pdfrwt beam="2">  1       -2 0.28855421E+00 0.33512481E+04</pdfrwt>
<totfact> 0.39578087E-01</totfact>
</mgrwt>
</event>
<event>
12    2  0.8147979E-008  0.2915116E+04  0.7818608E-02  0.8268394E-01
          2   -1    0    0  501    0  0.00000000000E+00  0.00000000000E+00  0.29109130171E+04  0.29109130171E+04  0.00000000000E+00 0. -1.
         -2   -1    0    0    0  501 -0.00000000000E+00 -0.00000000000E+00 -0.72983107572E+03  0.72983107572E+03  0.00000000000E+00 0.  1.
         23    2    1    2    0    0 -0.12114884323E+04 -0.33312264396E+03  0.14818309381E+04  0.19449537672E+04  0.91363613614E+02 0.  0.
        254    2    1    2    0    0  0.12114884323E+04  0.33312264396E+03  0.69925100327E+03  0.16957903256E+04  0.89893155771E+03 0.  0.
         23    2    4    4    0    0  0.10562626368E+04 -0.11096064967E+03  0.47651376313E+03  0.11675113679E+04  0.89523203540E+02 0.  0.
         23    2    4    4    0    0  0.15522579545E+03  0.44408329364E+03  0.22273724015E+03  0.52827895773E+03  0.90342458316E+02 0.  0.
          1    1    3    3  502    0 -0.41991761447E+03 -0.16064549876E+03  0.53526961258E+03  0.69903600577E+03  0.00000000000E+00 0. -1.
         -1    1    3    3    0  502 -0.79157081781E+03 -0.17247714521E+03  0.94656132550E+03  0.12459177614E+04  0.00000000000E+00 0.  1.
         11    1    5    5    0    0  0.62360007102E+03 -0.34049294678E+02  0.24554710218E+03  0.67106615355E+03  0.00000000000E+00 0.  1.
        -11    1    5    5    0    0  0.43266256581E+03 -0.76911354996E+02  0.23096666095E+03  0.49644521435E+03  0.00000000000E+00 0. -1.
          3    1    6    6  503    0  0.47767581053E+02  0.99422593108E+02  0.13821144156E+02  0.11116482288E+03  0.00000000000E+00 0. -1.
         -3    1    6    6    0  503  0.10745821440E+03  0.34466070053E+03  0.20891609599E+03  0.41711413485E+03  0.00000000000E+00 0.  1.
<mgrwt>
<rscale>  0 0.29151156E+04</rscale>
<asrwt>0</asrwt>
<pdfrwt beam="1">  1        2 0.44783277E+00 0.29151156E+04</pdfrwt>
<pdfrwt beam="2">  1       -2 0.11228171E+00 0.29151156E+04</pdfrwt>
<totfact> 0.10653225E+00</totfact>
</mgrwt>
</event>
<event>
12    2  0.8147979E-008  0.2006655E+04  0.7818608E-02  0.8603515E-01
          2   -1    0    0  501    0  0.00000000000E+00  0.00000000000E+00  0.14137832890E+04  0.14137832890E+04  0.00000000000E+00 0. -1.
         -2   -1    0    0    0  501 -0.00000000000E+00 -0.00000000000E+00 -0.71203712306E+03  0.71203712306E+03  0.00000000000E+00 0.  1.
         23    2    1    2    0    0 -0.67672996021E+03 -0.42136545338E+03  0.28718486140E+03  0.85203335846E+03  0.89293980514E+02 0.  0.
        254    2    1    2    0    0  0.67672996021E+03  0.42136545338E+03  0.41456130449E+03  0.12737870536E+04  0.90286217015E+03 0.  0.
         23    2    4    4    0    0  0.69060591438E+02 -0.16142130638E+03  0.37710965462E+03  0.42606914905E+03  0.92179307453E+02 0.  0.
         23    2    4    4    0    0  0.60766936877E+03  0.58278675977E+03  0.37451649875E+02  0.84771790451E+03  0.91217051325E+02 0.  0.
          4    1    3    3  502    0 -0.59696226853E+03 -0.39196641740E+03  0.27869347641E+03  0.76659746687E+03  0.00000000000E+00 0. -1.
         -4    1    3    3    0  502 -0.79767691673E+02 -0.29399035980E+02  0.84913849971E+01  0.85435891583E+02  0.00000000000E+00 0.  1.
         11    1    5    5    0    0  0.43326344121E+02 -0.12880998447E+03  0.35248708556E+03  0.37777814876E+03  0.00000000000E+00 0. -1.
        -11    1    5    5    0    0  0.25734247317E+02 -0.32611321912E+02  0.24622569053E+02  0.48291000286E+02  0.00000000000E+00 0.  1.
          3    1    6    6  503    0  0.29405708376E+03  0.22475771261E+03  0.34833080881E+02  0.37175118212E+03  0.00000000000E+00 0. -1.
         -3    1    6    6    0  503  0.31361228501E+03  0.35802904716E+03  0.26185689936E+01  0.47596672239E+03  0.00000000000E+00 0.  1.
<mgrwt>
<rscale>  0 0.20066551E+04</rscale>
<asrwt>0</asrwt>
<pdfrwt beam="1">  1        2 0.21750512E+00 0.20066551E+04</pdfrwt>
<pdfrwt beam="2">  1       -2 0.10954417E+00 0.20066551E+04</pdfrwt>
<totfact> 0.87584061E+00</totfact>
</mgrwt>
</event>
<event>
12    2  0.8147979E-008  0.4479372E+04  0.7818608E-02  0.7914258E-01
         -2   -1    0    0    0  501 -0.00000000000E+00  0.00000000000E+00  0.19678571832E+04  0.19678571832E+04  0.00000000000E+00 0.  1.
          2   -1    0    0  501    0  0.00000000000E+00 -0.00000000000E+00 -0.25490635097E+04  0.25490635097E+04  0.00000000000E+00 0. -1.
         23    2    1    2    0    0  0.15471653419E+04 -0.45046164943E+03 -0.17118334105E+04  0.23526595827E+04  0.89427032893E+02 0.  0.
        254    2    1    2    0    0 -0.15471653419E+04  0.45046164943E+03  0.11306270839E+04  0.21642611103E+04  0.89948444002E+03 0.  0.
         23    2    4    4    0    0 -0.15582692942E+04  0.51834696215E+03  0.82833970019E+03  0.18414903694E+04  0.89740489348E+02 0.  0.
         23    2    4    4    0    0  0.11103952336E+02 -0.67885312720E+02  0.30228738376E+03  0.32277074083E+03  0.89841946319E+02 0.  0.
          4    1    3    3  502    0  0.65862487376E+03 -0.22488152836E+03 -0.69397566067E+03  0.98283296838E+03  0.00000000000E+00 0.  1.
         -4    1    3    3    0  502  0.88854046810E+03 -0.22558012107E+03 -0.10178577498E+04  0.13698266143E+04  0.00000000000E+00 0. -1.
         11    1    5    5    0    0 -0.14352503800E+04  0.45241868636E+03  0.74932973873E+03  0.16811071882E+04  0.00000000000E+00 0.  1.
        -11    1    5    5    0    0 -0.12301891424E+03  0.65928275789E+02  0.79009961454E+02  0.16038318122E+03  0.00000000000E+00 0. -1.
          4    1    6    6  503    0 -0.32756234457E+02 -0.16426828036E+01  0.70747797654E+02  0.77980255036E+02  0.00000000000E+00 0. -1.
         -4    1    6    6    0  503  0.43860186793E+02 -0.66242629916E+02  0.23153958610E+03  0.24479048580E+03  0.00000000000E+00 0.  1.
<mgrwt>
<rscale>  0 0.44793718E+04</rscale>
<asrwt>0</asrwt>
<pdfrwt beam="1">  1        2 0.39216362E+00 0.44793718E+04</pdfrwt>
<pdfrwt beam="2">  1       -2 0.30274726E+00 0.44793718E+04</pdfrwt>
<totfact> 0.75641609E-02</totfact>
</mgrwt>
</event>
<event>
12    2  0.8147979E-008  0.1375862E+04  0.7818608E-02  0.8971479E-01
         -2   -1    0    0    0  501 -0.00000000000E+00  0.00000000000E+00  0.16633873122E+03  0.16633873122E+03  0.00000000000E+00 0.  1.
          2   -1    0    0  501    0  0.00000000000E+00 -0.00000000000E+00 -0.28450904370E+04  0.28450904370E+04  0.00000000000E+00 0. -1.
         23    2    1    2    0    0 -0.35925648854E+02  0.30991165936E+03 -0.12696670597E+04  0.13106574685E+04  0.91829561874E+02 0.  0.
        254    2    1    2    0    0  0.35925648854E+02 -0.30991165936E+03 -0.14090846461E+04  0.17007716997E+04  0.89987162744E+03 0.  0.
         23    2    4    4    0    0  0.66777858354E+02 -0.18124120055E+03  0.60747331724E+02  0.22216716264E+03  0.91434975254E+02 0.  0.
         23    2    4    4    0    0 -0.30852209500E+02 -0.12867045881E+03 -0.14698319778E+04  0.14786045371E+04  0.91418752267E+02 0.  0.
          3    1    3    3  502    0  0.47313021063E+01  0.76035462092E+02 -0.48244516335E+03  0.48842308745E+03  0.00000000000E+00 0. -1.
         -3    1    3    3    0  502 -0.40656950960E+02  0.23387619727E+03 -0.78722189630E+03  0.82223438102E+03  0.00000000000E+00 0.  1.
         11    1    5    5    0    0  0.14764170190E+02 -0.15342712156E+03  0.51193328217E+02  0.16241495992E+03  0.00000000000E+00 0. -1.
        -11    1    5    5    0    0  0.52013688164E+02 -0.27814078987E+02  0.95540035064E+01  0.59752202715E+02  0.00000000000E+00 0.  1.
          3    1    6    6  503    0 -0.90380086835E+01 -0.59236968648E+02 -0.11027728193E+04  0.11043996537E+04  0.00000000000E+00 0. -1.
         -3    1    6    6    0  503 -0.21814200817E+02 -0.69433490165E+02 -0.36705915855E+03  0.37420488344E+03  0.00000000000E+00 0.  1.
<mgrwt>
<rscale>  0 0.13758615E+04</rscale>
<asrwt>0</asrwt>
<pdfrwt beam="1">  1        2 0.43770622E+00 0.13758615E+04</pdfrwt>
<pdfrwt beam="2">  1       -2 0.25590574E-01 0.13758615E+04</pdfrwt>
<totfact> 0.29325776E+01</totfact>
</mgrwt>
</event>
<event>
12    2  0.8147979E-008  0.2116553E+04  0.7818608E-02  0.8553987E-01
          2   -1    0    0  501    0  0.00000000000E+00  0.00000000000E+00  0.34007136346E+04  0.34007136346E+04  0.00000000000E+00 0. -1.
         -2   -1    0    0    0  501 -0.00000000000E+00 -0.00000000000E+00 -0.32932767242E+03  0.32932767242E+03  0.00000000000E+00 0.  1.
         23    2    1    2    0    0 -0.57227665828E+03 -0.64515447700E+03  0.11755956803E+04  0.14609347527E+04  0.92629775152E+02 0.  0.
        254    2    1    2    0    0  0.57227665828E+03  0.64515447700E+03  0.18957902819E+04  0.22691065544E+04  0.90061028712E+03 0.  0.
         23    2    4    4    0    0  0.46354247485E+03  0.49115460772E+03  0.19394945130E+04  0.20556605455E+04  0.89425039615E+02 0.  0.
         23    2    4    4    0    0  0.10873418342E+03  0.15399986929E+03 -0.43704231069E+02  0.21344600888E+03  0.90055852158E+02 0.  0.
          3    1    3    3  502    0 -0.14405011884E+03 -0.15041788790E+03  0.35271430073E+03  0.40961366637E+03  0.00000000000E+00 0. -1.
         -3    1    3    3    0  502 -0.42822653944E+03 -0.49473658911E+03  0.82288137954E+03  0.10513210863E+04  0.00000000000E+00 0.  1.
         11    1    5    5    0    0  0.28287767354E+03  0.26482620177E+03  0.99600741349E+03  0.10687298363E+04  0.00000000000E+00 0. -1.
        -11    1    5    5    0    0  0.18066480131E+03  0.22632840595E+03  0.94348709950E+03  0.98693070917E+03  0.00000000000E+00 0.  1.
          2    1    6    6  503    0  0.17832550344E+02  0.10238234932E+03 -0.28908241973E+02  0.10786951264E+03  0.00000000000E+00 0. -1.
         -2    1    6    6    0  503  0.90901633081E+02  0.51617519970E+02 -0.14795989096E+02  0.10557649624E+03  0.00000000000E+00 0.  1.
<mgrwt>
<rscale>  0 0.21165530E+04</rscale>
<asrwt>0</asrwt>
<pdfrwt beam="1">  1        2 0.52318669E+00 0.21165530E+04</pdfrwt>
<pdfrwt beam="2">  1       -2 0.50665798E-01 0.21165530E+04</pdfrwt>
<totfact> 0.32401462E+00</totfact>
</mgrwt>
</event>
<event>
12    2  0.8147979E-008  0.2246786E+04  0.7818608E-02  0.8499203E-01
         -2   -1    0    0    0  501 -0.00000000000E+00  0.00000000000E+00  0.51770298734E+03  0.51770298734E+03  0.00000000000E+00 0.  1.
          2   -1    0    0  501    0  0.00000000000E+00 -0.00000000000E+00 -0.24377139971E+04  0.24377139971E+04  0.00000000000E+00 0. -1.
         23    2    1    2    0    0  0.31202271375E+03 -0.37177972976E+03  0.25231485382E+03  0.55438955367E+03  0.90036939111E+02 0.  0.
        254    2    1    2    0    0 -0.31202271375E+03  0.37177972976E+03 -0.21723258636E+04  0.24010274308E+04  0.90019704753E+03 0.  0.
         23    2    4    4    0    0  0.23684410624E+03  0.32058700086E+03 -0.13199848644E+04  0.13820297514E+04  0.93675159608E+02 0.  0.
         23    2    4    4    0    0 -0.54886681999E+03  0.51192728898E+02 -0.85234099914E+03  0.10189976794E+04  0.89418176207E+02 0.  0.
          1    1    3    3  502    0  0.17760532648E+03 -0.24623276893E+03  0.11417175162E+03  0.32436001196E+03  0.00000000000E+00 0. -1.
         -1    1    3    3    0  502  0.13441738727E+03 -0.12554696082E+03  0.13814310221E+03  0.23002954171E+03  0.00000000000E+00 0.  1.
         11    1    5    5    0    0  0.24420624616E+03  0.30606344584E+03 -0.12870180979E+04  0.13452609813E+04  0.00000000000E+00 0. -1.
        -11    1    5    5    0    0 -0.73621399160E+01  0.14523555022E+02 -0.32966766556E+02  0.36768770061E+02  0.00000000000E+00 0.  1.
          1    1    6    6  503    0 -0.23654378926E+03 -0.54055851294E+01 -0.42843276516E+03  0.48942498797E+03  0.00000000000E+00 0.  1.
         -1    1    6    6    0  503 -0.31232303073E+03  0.56598314028E+02 -0.42390823399E+03  0.52957269144E+03  0.00000000000E+00 0. -1.
<mgrwt>
<rscale>  0 0.22467860E+04</rscale>
<asrwt>0</asrwt>
<pdfrwt beam="1">  1        2 0.37503292E+00 0.22467860E+04</pdfrwt>
<pdfrwt beam="2">  1       -2 0.79646614E-01 0.22467860E+04</pdfrwt>
<totfact> 0.48077150E+00</totfact>
</mgrwt>
</event>
<event>
12    2  0.8147979E-008  0.2182549E+04  0.7818608E-02  0.8525727E-01
         -1   -1    0    0    0  501 -0.00000000000E+00  0.00000000000E+00  0.26440539048E+04  0.26440539048E+04  0.00000000000E+00 0.  1.
          1   -1    0    0  501    0  0.00000000000E+00 -0.00000000000E+00 -0.45039918431E+03  0.45039918431E+03  0.00000000000E+00 0. -1.
         23    2    1    2    0    0 -0.64860334402E+02 -0.35740207188E+03 -0.25828898442E+03  0.45478049799E+03  0.90382508876E+02 0.  0.
        254    2    1    2    0    0  0.64860334402E+02  0.35740207188E+03  0.24519437049E+04  0.26396725912E+04  0.90768956826E+03 0.  0.
         23    2    4    4    0    0  0.45712981280E+03  0.94249604212E+02  0.95773614471E+03  0.10697283737E+04  0.95966749678E+02 0.  0.
         23    2    4    4    0    0 -0.39226947840E+03  0.26315246767E+03  0.14942075602E+04  0.15699442174E+04  0.94572976220E+02 0.  0.
          3    1    3    3  502    0 -0.72977296800E+02 -0.35852700767E+03 -0.25006049441E+03  0.44316763413E+03  0.00000000000E+00 0. -1.
         -3    1    3    3    0  502  0.81169623972E+01  0.11249357869E+01 -0.82284900055E+01  0.11612863852E+02  0.00000000000E+00 0.  1.
         11    1    5    5    0    0  0.13146553571E+03  0.15025239915E+02  0.18513506267E+03  0.22756084097E+03  0.00000000000E+00 0. -1.
        -11    1    5    5    0    0  0.32566427710E+03  0.79224364297E+02  0.77260108204E+03  0.84216753277E+03  0.00000000000E+00 0.  1.
          2    1    6    6  503    0 -0.10802062971E+03  0.46699080774E+02  0.49452387398E+03  0.50833367243E+03  0.00000000000E+00 0. -1.
         -2    1    6    6    0  503 -0.28424884869E+03  0.21645338690E+03  0.99968368626E+03  0.10616105450E+04  0.00000000000E+00 0.  1.
<mgrwt>
<rscale>  0 0.21825487E+04</rscale>
<asrwt>0</asrwt>
<pdfrwt beam="1">  1        1 0.69292183E-01 0.21825487E+04</pdfrwt>
<pdfrwt beam="2">  1       -1 0.40677752E+00 0.21825487E+04</pdfrwt>
<totfact> 0.30047512E-01</totfact>
</mgrwt>
</event>
<event>
12    2  0.8147979E-008  0.1429171E+04  0.7818608E-02  0.8932969E-01
         -1   -1    0    0    0  501 -0.00000000000E+00  0.00000000000E+00  0.20386641843E+04  0.20386641843E+04  0.00000000000E+00 0.  1.
          1   -1    0    0  501    0  0.00000000000E+00 -0.00000000000E+00 -0.25047409338E+03  0.25047409338E+03  0.00000000000E+00 0. -1.
         23    2    1    2    0    0 -0.25178775849E+03 -0.18035518992E+03  0.78249835727E+02  0.33222143397E+03  0.91230337827E+02 0.  0.
        254    2    1    2    0    0  0.25178775849E+03  0.18035518992E+03  0.17099402552E+04  0.19569168438E+04  0.89983486655E+03 0.  0.
         23    2    4    4    0    0 -0.30741153819E+03  0.11851218279E+03  0.39098889796E+03  0.51927944372E+03  0.90729438780E+02 0.  0.
         23    2    4    4    0    0  0.55919929668E+03  0.61843007134E+02  0.13189513573E+04  0.14376374000E+04  0.10315134604E+03 0.  0.
          3    1    3    3  502    0 -0.87786457705E+02 -0.11580427287E+03  0.20513933475E+02  0.14675800911E+03  0.00000000000E+00 0. -1.
         -3    1    3    3    0  502 -0.16400130079E+03 -0.64550917052E+02  0.57735902252E+02  0.18546342486E+03  0.00000000000E+00 0.  1.
         11    1    5    5    0    0 -0.48815988391E+02 -0.14186760800E+02  0.51494368345E+02  0.72359760059E+02  0.00000000000E+00 0.  1.
        -11    1    5    5    0    0 -0.25859554980E+03  0.13269894359E+03  0.33949452962E+03  0.44691968366E+03  0.00000000000E+00 0. -1.
          4    1    6    6  503    0  0.33154557134E+03 -0.14528700444E+02  0.76585894860E+03  0.83466968207E+03  0.00000000000E+00 0. -1.
         -4    1    6    6    0  503  0.22765372534E+03  0.76371707578E+02  0.55309240867E+03  0.60296771796E+03  0.00000000000E+00 0.  1.
<mgrwt>
<rscale>  0 0.14291712E+04</rscale>
<asrwt>0</asrwt>
<pdfrwt beam="1">  1        1 0.38534477E-01 0.14291712E+04</pdfrwt>
<pdfrwt beam="2">  1       -1 0.31364063E+00 0.14291712E+04</pdfrwt>
<totfact> 0.29175933E+00</totfact>
</mgrwt>
</event>
<event>
12    2  0.8147979E-008  0.1554701E+04  0.7818608E-02  0.8848871E-01
          2   -1    0    0  501    0  0.00000000000E+00  0.00000000000E+00  0.20522887104E+04  0.20522887104E+04  0.00000000000E+00 0. -1.
         -2   -1    0    0    0  501 -0.00000000000E+00 -0.00000000000E+00 -0.29443890931E+03  0.29443890931E+03  0.00000000000E+00 0.  1.
         23    2    1    2    0    0 -0.81768593503E+02 -0.36328064261E+03  0.57147735514E+02  0.38761794612E+03  0.91229821320E+02 0.  0.
        254    2    1    2    0    0  0.81768593503E+02  0.36328064261E+03  0.17007020655E+04  0.19591096736E+04  0.89836755791E+03 0.  0.
         23    2    4    4    0    0  0.26944835105E+03 -0.18404909881E+03  0.35201663192E+03  0.48863597120E+03  0.91503653194E+02 0.  0.
         23    2    4    4    0    0 -0.18767975755E+03  0.54732974143E+03  0.13486854336E+04  0.14704737024E+04  0.92449841506E+02 0.  0.
          4    1    3    3  502    0 -0.68527139801E+02 -0.22941849199E+03 -0.48937485046E+01  0.23948436719E+03  0.00000000000E+00 0. -1.
         -4    1    3    3    0  502 -0.13241453702E+02 -0.13386215062E+03  0.62041484018E+02  0.14813357892E+03  0.00000000000E+00 0.  1.
         11    1    5    5    0    0  0.68713922779E+02 -0.15371554539E+02  0.11687046129E+03  0.13644263481E+03  0.00000000000E+00 0. -1.
        -11    1    5    5    0    0  0.20073442827E+03 -0.16867754427E+03  0.23514617063E+03  0.35219333639E+03  0.00000000000E+00 0.  1.
          3    1    6    6  503    0 -0.67110968249E+02  0.22758358702E+03  0.66671976005E+03  0.70768171488E+03  0.00000000000E+00 0. -1.
         -3    1    6    6    0  503 -0.12056878930E+03  0.31974615441E+03  0.68196567358E+03  0.76279198747E+03  0.00000000000E+00 0.  1.
<mgrwt>
<rscale>  0 0.15547008E+04</rscale>
<asrwt>0</asrwt>
<pdfrwt beam="1">  1        2 0.31573671E+00 0.15547008E+04</pdfrwt>
<pdfrwt beam="2">  1       -2 0.45298295E-01 0.15547008E+04</pdfrwt>
<totfact> 0.27795307E+01</totfact>
</mgrwt>
</event>
<event>
12    2  0.8147979E-008  0.2663287E+04  0.7818608E-02  0.8347016E-01
         -2   -1    0    0    0  501 -0.00000000000E+00  0.00000000000E+00  0.81972235927E+03  0.81972235927E+03  0.00000000000E+00 0.  1.
          2   -1    0    0  501    0  0.00000000000E+00 -0.00000000000E+00 -0.21632629155E+04  0.21632629155E+04  0.00000000000E+00 0. -1.
         23    2    1    2    0    0 -0.10788450756E+04 -0.45419537025E+03 -0.73903473495E+03  0.13873054934E+04  0.90796811925E+02 0.  0.
        254    2    1    2    0    0  0.10788450756E+04  0.45419537025E+03 -0.60450582127E+03  0.15956797814E+04  0.90031469242E+03 0.  0.
         23    2    4    4    0    0  0.11896056274E+04  0.32887931813E+03 -0.65314359636E+03  0.13995635150E+04  0.94118651414E+02 0.  0.
         23    2    4    4    0    0 -0.11076055185E+03  0.12531605212E+03  0.48637775087E+02  0.19611626634E+03  0.90132924017E+02 0.  0.
          3    1    3    3  502    0 -0.30517948177E+03 -0.15401826551E+03 -0.25630876526E+03  0.42725908458E+03  0.00000000000E+00 0. -1.
         -3    1    3    3    0  502 -0.77366559378E+03 -0.30017710474E+03 -0.48272596969E+03  0.96004640878E+03  0.00000000000E+00 0.  1.
         11    1    5    5    0    0  0.53272089883E+03  0.14544886939E+03 -0.34530500031E+03  0.65129292404E+03  0.00000000000E+00 0.  1.
        -11    1    5    5    0    0  0.65688472858E+03  0.18343044874E+03 -0.30783859604E+03  0.74827059101E+03  0.00000000000E+00 0. -1.
          3    1    6    6  503    0 -0.80317048921E+02  0.82127370772E+02 -0.12219184037E+02  0.11552074202E+03  0.00000000000E+00 0. -1.
         -3    1    6    6    0  503 -0.30443502932E+02  0.43188681351E+02  0.60856959123E+02  0.80595524326E+02  0.00000000000E+00 0.  1.
<mgrwt>
<rscale>  0 0.26632874E+04</rscale>
<asrwt>0</asrwt>
<pdfrwt beam="1">  1        2 0.33280968E+00 0.26632874E+04</pdfrwt>
<pdfrwt beam="2">  1       -2 0.12611113E+00 0.26632874E+04</pdfrwt>
<totfact> 0.22344112E+00</totfact>
</mgrwt>
</event>
<event>
12    2  0.8147979E-008  0.1812346E+04  0.7818608E-02  0.8699761E-01
         -2   -1    0    0    0  501 -0.00000000000E+00  0.00000000000E+00  0.21846602648E+04  0.21846602648E+04  0.00000000000E+00 0.  1.
          2   -1    0    0  501    0  0.00000000000E+00 -0.00000000000E+00 -0.37587055041E+03  0.37587055041E+03  0.00000000000E+00 0. -1.
         23    2    1    2    0    0 -0.38805158221E+03 -0.26092218090E+03  0.13700624800E+04  0.14510427462E+04  0.98941584965E+02 0.  0.
        254    2    1    2    0    0  0.38805158221E+03  0.26092218090E+03  0.43872723436E+03  0.11094880690E+04  0.90543789080E+03 0.  0.
         23    2    4    4    0    0  0.66540657404E+03  0.94851798806E+02  0.23870445361E+03  0.71909639679E+03  0.91416843049E+02 0.  0.
         23    2    4    4    0    0 -0.27735499183E+03  0.16607038210E+03  0.20002278075E+03  0.39039167219E+03  0.88833448640E+02 0.  0.
          1    1    3    3  502    0 -0.31206084976E+03 -0.22039568491E+03  0.98564139866E+03  0.10570928051E+04  0.00000000000E+00 0. -1.
         -1    1    3    3    0  502 -0.75990732452E+02 -0.40526495997E+02  0.38442108133E+03  0.39394994107E+03  0.00000000000E+00 0.  1.
         11    1    5    5    0    0  0.65704235822E+03  0.92245448243E+02  0.22096846477E+03  0.69931462564E+03  0.00000000000E+00 0.  1.
        -11    1    5    5    0    0  0.83642158201E+01  0.26063505633E+01  0.17735988843E+02  0.19781771149E+02  0.00000000000E+00 0. -1.
          2    1    6    6  503    0 -0.78202263023E+02  0.74968227583E+02  0.27957056497E+02  0.11188130361E+03  0.00000000000E+00 0. -1.
         -2    1    6    6    0  503 -0.19915272880E+03  0.91102154514E+02  0.17206572425E+03  0.27851036858E+03  0.00000000000E+00 0.  1.
<mgrwt>
<rscale>  0 0.18123459E+04</rscale>
<asrwt>0</asrwt>
<pdfrwt beam="1">  1        2 0.57826240E-01 0.18123459E+04</pdfrwt>
<pdfrwt beam="2">  1       -2 0.33610157E+00 0.18123459E+04</pdfrwt>
<totfact> 0.15347672E+00</totfact>
</mgrwt>
</event>
<event>
12    2  0.8147979E-008  0.2103218E+04  0.7818608E-02  0.8559827E-01
          2   -1    0    0  501    0  0.00000000000E+00  0.00000000000E+00  0.27695902155E+04  0.27695902155E+04  0.00000000000E+00 0.  1.
         -2   -1    0    0    0  501 -0.00000000000E+00 -0.00000000000E+00 -0.39929443402E+03  0.39929443402E+03  0.00000000000E+00 0. -1.
         23    2    1    2    0    0  0.74571480865E+03 -0.34424892807E+03  0.13287219166E+04  0.15647796196E+04  0.91844575816E+02 0.  0.
        254    2    1    2    0    0 -0.74571480865E+03  0.34424892807E+03  0.10415738649E+04  0.16041050299E+04  0.90204153484E+03 0.  0.
         23    2    4    4    0    0 -0.22323197160E+03 -0.71485529815E+02 -0.10722861324E+03  0.27210936448E+03  0.87194246512E+02 0.  0.
         23    2    4    4    0    0 -0.52248283705E+03  0.41573445789E+03  0.11488024782E+04  0.13319956654E+04  0.92961628628E+02 0.  0.
          2    1    3    3  502    0  0.27344715209E+03 -0.13901966337E+03  0.57920075443E+03  0.65541843560E+03  0.00000000000E+00 0. -1.
         -2    1    3    3    0  502  0.47226765656E+03 -0.20522926470E+03  0.74952116216E+03  0.90936118405E+03  0.00000000000E+00 0.  1.
         11    1    5    5    0    0 -0.52729184514E+02  0.53464323544E+01  0.62376662827E+01  0.53365341928E+02  0.00000000000E+00 0.  1.
        -11    1    5    5    0    0 -0.17050278708E+03 -0.76831962169E+02 -0.11346627952E+03  0.21874402255E+03  0.00000000000E+00 0. -1.
          4    1    6    6  503    0 -0.12270831894E+03  0.12384931086E+03  0.37295876728E+03  0.41169676393E+03  0.00000000000E+00 0.  1.
         -4    1    6    6    0  503 -0.39977451811E+03  0.29188514703E+03  0.77584371089E+03  0.92029890150E+03  0.00000000000E+00 0. -1.
<mgrwt>
<rscale>  0 0.21032184E+04</rscale>
<asrwt>0</asrwt>
<pdfrwt beam="1">  1        2 0.42609079E+00 0.21032184E+04</pdfrwt>
<pdfrwt beam="2">  1       -2 0.61429915E-01 0.21032184E+04</pdfrwt>
<totfact> 0.54806912E+00</totfact>
</mgrwt>
</event>
<event>
12    2  0.8147979E-008  0.1613778E+04  0.7818608E-02  0.8812128E-01
          2   -1    0    0  501    0  0.00000000000E+00  0.00000000000E+00  0.71347202870E+03  0.71347202870E+03  0.00000000000E+00 0. -1.
         -2   -1    0    0    0  501 -0.00000000000E+00 -0.00000000000E+00 -0.91253679929E+03  0.91253679929E+03  0.00000000000E+00 0.  1.
         23    2    1    2    0    0 -0.41610720379E+03  0.30715517541E+03  0.12781760703E+03  0.54070812685E+03  0.92403630643E+02 0.  0.
        254    2    1    2    0    0  0.41610720379E+03 -0.30715517541E+03 -0.32688237763E+03  0.10853007011E+04  0.89640170474E+03 0.  0.
         23    2    4    4    0    0  0.26924856026E+02 -0.55248206746E+03 -0.22893471881E+03  0.60554624011E+03  0.91179826166E+02 0.  0.
         23    2    4    4    0    0  0.38918234776E+03  0.24532689205E+03 -0.97947658816E+02  0.47975446102E+03  0.94458537103E+02 0.  0.
          1    1    3    3  502    0 -0.31237078642E+03  0.18455151218E+03  0.66843203459E+02  0.36892110635E+03  0.00000000000E+00 0. -1.
         -1    1    3    3    0  502 -0.10373641736E+03  0.12260366323E+03  0.60974403572E+02  0.17178702051E+03  0.00000000000E+00 0.  1.
         11    1    5    5    0    0  0.36315141932E+02 -0.12790026267E+03 -0.81752878627E+02  0.15607946658E+03  0.00000000000E+00 0.  1.
        -11    1    5    5    0    0 -0.93902859061E+01 -0.42458180479E+03 -0.14718184018E+03  0.44946677353E+03  0.00000000000E+00 0. -1.
          3    1    6    6  503    0  0.32193358057E+03  0.16486009288E+03 -0.98581558537E+02  0.37488452116E+03  0.00000000000E+00 0. -1.
         -3    1    6    6    0  503  0.67248767189E+02  0.80466799171E+02  0.63389972166E+00  0.10486993986E+03  0.00000000000E+00 0.  1.
<mgrwt>
<rscale>  0 0.16137775E+04</rscale>
<asrwt>0</asrwt>
<pdfrwt beam="1">  1        2 0.10976493E+00 0.16137775E+04</pdfrwt>
<pdfrwt beam="2">  1       -2 0.14039028E+00 0.16137775E+04</pdfrwt>
<totfact> 0.13653628E+01</totfact>
</mgrwt>
</event>
<event>
12    2  0.8147979E-008  0.1718614E+04  0.7818608E-02  0.8750819E-01
         -2   -1    0    0    0  501 -0.00000000000E+00  0.00000000000E+00  0.42438177661E+03  0.42438177661E+03  0.00000000000E+00 0.  1.
          2   -1    0    0  501    0  0.00000000000E+00 -0.00000000000E+00 -0.17399622628E+04  0.17399622628E+04  0.00000000000E+00 0. -1.
         23    2    1    2    0    0 -0.46737530362E+03  0.40424376309E+03 -0.53713939471E+03  0.82431757742E+03  0.95540801042E+02 0.  0.
        254    2    1    2    0    0  0.46737530362E+03 -0.40424376309E+03 -0.77844109151E+03  0.13400264620E+04  0.89880347770E+03 0.  0.
         23    2    4    4    0    0  0.55756213212E+03 -0.64608571351E+02 -0.79293820857E+03  0.97621560139E+03  0.95896293475E+02 0.  0.
         23    2    4    4    0    0 -0.90186828508E+02 -0.33963519174E+03  0.14497117069E+02  0.36381086063E+03  0.93072275154E+02 0.  0.
          2    1    3    3  502    0 -0.25815000443E+03  0.21440316077E+03 -0.35321880338E+03  0.48721008118E+03  0.00000000000E+00 0. -1.
         -2    1    3    3    0  502 -0.20922529919E+03  0.18984060232E+03 -0.18392059133E+03  0.33710749624E+03  0.00000000000E+00 0.  1.
         11    1    5    5    0    0  0.38222649416E+03 -0.85155816694E+02 -0.57630791606E+03  0.69676353239E+03  0.00000000000E+00 0. -1.
        -11    1    5    5    0    0  0.17533563797E+03  0.20547245343E+02 -0.21663029251E+03  0.27945206900E+03  0.00000000000E+00 0.  1.
          2    1    6    6  503    0 -0.47977136029E+02 -0.12249035205E+03  0.48089872686E+02  0.14006544107E+03  0.00000000000E+00 0. -1.
         -2    1    6    6    0  503 -0.42209692480E+02 -0.21714483969E+03 -0.33592755617E+02  0.22374541956E+03  0.00000000000E+00 0.  1.
<mgrwt>
<rscale>  0 0.17186137E+04</rscale>
<asrwt>0</asrwt>
<pdfrwt beam="1">  1        2 0.26768650E+00 0.17186137E+04</pdfrwt>
<pdfrwt beam="2">  1       -2 0.65289504E-01 0.17186137E+04</pdfrwt>
<totfact> 0.19141722E+01</totfact>
</mgrwt>
</event>
<event>
12    2  0.8147979E-008  0.2113538E+04  0.7818608E-02  0.8555303E-01
          2   -1    0    0  501    0  0.00000000000E+00  0.00000000000E+00  0.21937242262E+04  0.21937242262E+04  0.00000000000E+00 0. -1.
         -2   -1    0    0    0  501 -0.00000000000E+00 -0.00000000000E+00 -0.50907070913E+03  0.50907070913E+03  0.00000000000E+00 0.  1.
         23    2    1    2    0    0 -0.58567538795E+03  0.63023783182E+03  0.76102421469E+03  0.11524436438E+04  0.93558068575E+02 0.  0.
        254    2    1    2    0    0  0.58567538795E+03 -0.63023783182E+03  0.92362930240E+03  0.15503512915E+04  0.90015701636E+03 0.  0.
         23    2    4    4    0    0  0.18939212658E+03 -0.36908325591E+03 -0.83857485629E+02  0.43313856780E+03  0.92114676451E+02 0.  0.
         23    2    4    4    0    0  0.39628326137E+03 -0.26115457591E+03  0.10074867880E+04  0.11172127237E+04  0.88839778156E+02 0.  0.
          4    1    3    3  502    0 -0.88196883262E+02  0.78083426827E+02  0.66708797009E+02  0.13537272754E+03  0.00000000000E+00 0.  1.
         -4    1    3    3    0  502 -0.49747850469E+03  0.55215440499E+03  0.69431541768E+03  0.10170709163E+04  0.00000000000E+00 0. -1.
         11    1    5    5    0    0 -0.80185268466E+01 -0.38813224083E+02 -0.14278282203E+02  0.42126386971E+02  0.00000000000E+00 0. -1.
        -11    1    5    5    0    0  0.19741065342E+03 -0.33027003183E+03 -0.69579203426E+02  0.39101218083E+03  0.00000000000E+00 0.  1.
          1    1    6    6  503    0  0.89609998033E+02 -0.39728242572E+02  0.14061016483E+03  0.17140450244E+03  0.00000000000E+00 0. -1.
         -1    1    6    6    0  503  0.30667326334E+03 -0.22142633334E+03  0.86687662320E+03  0.94580822125E+03  0.00000000000E+00 0.  1.
<mgrwt>
<rscale>  0 0.21135380E+04</rscale>
<asrwt>0</asrwt>
<pdfrwt beam="1">  1        2 0.33749603E+00 0.21135380E+04</pdfrwt>
<pdfrwt beam="2">  1       -2 0.78318572E-01 0.21135380E+04</pdfrwt>
<totfact> 0.69475606E+00</totfact>
</mgrwt>
</event>
<event>
12    2  0.8147979E-008  0.2411946E+04  0.7818608E-02  0.8435045E-01
          2   -1    0    0  501    0  0.00000000000E+00  0.00000000000E+00  0.13362952122E+04  0.13362952122E+04  0.00000000000E+00 0. -1.
         -2   -1    0    0    0  501 -0.00000000000E+00 -0.00000000000E+00 -0.10883601330E+04  0.10883601330E+04  0.00000000000E+00 0.  1.
         23    2    1    2    0    0  0.93938631564E+03  0.41581076086E+03 -0.16771087465E+02  0.10330386805E+04  0.10743559546E+03 0.  0.
        254    2    1    2    0    0 -0.93938631564E+03 -0.41581076086E+03  0.26470616665E+03  0.13916166646E+04  0.90065662032E+03 0.  0.
         23    2    4    4    0    0 -0.27019261925E+02 -0.42242605550E+03  0.18536006871E+03  0.47104492190E+03  0.91384629415E+02 0.  0.
         23    2    4    4    0    0 -0.91236705372E+03  0.66152946461E+01  0.79346097940E+02  0.92057174272E+03  0.93269112805E+02 0.  0.
          2    1    3    3  502    0  0.23840800264E+03  0.59390307947E+02  0.13537943230E+02  0.24606678018E+03  0.00000000000E+00 0. -1.
         -2    1    3    3    0  502  0.70097831300E+03  0.35642045291E+03 -0.30309030695E+02  0.78697190032E+03  0.00000000000E+00 0.  1.
         11    1    5    5    0    0 -0.50559837243E+02 -0.27509448806E+03  0.89367762286E+02  0.29363220436E+03  0.00000000000E+00 0.  1.
        -11    1    5    5    0    0  0.23540575318E+02 -0.14733156745E+03  0.95992306426E+02  0.17741271754E+03  0.00000000000E+00 0. -1.
          2    1    6    6  503    0 -0.12760771163E+02 -0.89825342681E+01 -0.61585987558E+01  0.16776517553E+02  0.00000000000E+00 0. -1.
         -2    1    6    6    0  503 -0.89960628255E+03  0.15597828914E+02  0.85504696696E+02  0.90379522517E+03  0.00000000000E+00 0.  1.
<mgrwt>
<rscale>  0 0.24119456E+04</rscale>
<asrwt>0</asrwt>
<pdfrwt beam="1">  1        2 0.20558388E+00 0.24119456E+04</pdfrwt>
<pdfrwt beam="2">  1       -2 0.16744002E+00 0.24119456E+04</pdfrwt>
<totfact> 0.31452453E+00</totfact>
</mgrwt>
</event>
<event>
12    2  0.8147979E-008  0.2027175E+04  0.7818608E-02  0.8594020E-01
          1   -1    0    0  501    0  0.00000000000E+00  0.00000000000E+00  0.28503482845E+04  0.28503482845E+04  0.00000000000E+00 0. -1.
         -1   -1    0    0    0  501 -0.00000000000E+00 -0.00000000000E+00 -0.36043300744E+03  0.36043300744E+03  0.00000000000E+00 0.  1.
         23    2    1    2    0    0  0.73077400842E+02  0.43089493985E+03  0.20837687178E+04  0.21308038885E+04  0.84984621459E+02 0.  0.
        254    2    1    2    0    0 -0.73077400842E+02 -0.43089493985E+03  0.40614655925E+03  0.10799774035E+04  0.90021409054E+03 0.  0.
         23    2    4    4    0    0 -0.32340069053E+03 -0.46578709919E+02  0.49901699762E+03  0.60291664040E+03  0.87937071306E+02 0.  0.
         23    2    4    4    0    0  0.25032328969E+03 -0.38431622993E+03 -0.92870438366E+02  0.47706076312E+03  0.92743406406E+02 0.  0.
          2    1    3    3  502    0  0.41536327025E+02  0.39503595187E+03  0.18818651363E+04  0.19233291609E+04  0.00000000000E+00 0. -1.
         -2    1    3    3    0  502  0.31541073817E+02  0.35858987979E+02  0.20190358153E+03  0.20747472759E+03  0.00000000000E+00 0.  1.
         11    1    5    5    0    0 -0.11372926460E+03 -0.49250406569E+02  0.23580474623E+03  0.26639036492E+03  0.00000000000E+00 0. -1.
        -11    1    5    5    0    0 -0.20967142593E+03  0.26716966504E+01  0.26321225139E+03  0.33652627549E+03  0.00000000000E+00 0.  1.
          4    1    6    6  503    0  0.14016672034E+03 -0.14438073252E+03 -0.65559094730E+02  0.21163766280E+03  0.00000000000E+00 0. -1.
         -4    1    6    6    0  503  0.11015656935E+03 -0.23993549741E+03 -0.27311343636E+02  0.26542310032E+03  0.00000000000E+00 0.  1.
<mgrwt>
<rscale>  0 0.20271750E+04</rscale>
<asrwt>0</asrwt>
<pdfrwt beam="1">  1        1 0.43851511E+00 0.20271750E+04</pdfrwt>
<pdfrwt beam="2">  1       -1 0.55451234E-01 0.20271750E+04</pdfrwt>
<totfact> 0.23373424E+00</totfact>
</mgrwt>
</event>
<event>
12    2  0.9863601E-008  0.3283996E+04  0.7818608E-02  0.8166980E-01
          1   -1    0    0  501    0  0.00000000000E+00  0.00000000000E+00  0.23693272976E+04  0.23693272976E+04  0.00000000000E+00 0. -1.
         -1   -1    0    0    0  501 -0.00000000000E+00 -0.00000000000E+00 -0.11379420178E+04  0.11379420178E+04  0.00000000000E+00 0.  1.
         23    2    1    2    0    0  0.16459018011E+02 -0.14722697533E+04  0.96055091354E+03  0.17604591210E+04  0.93322737830E+02 0.  0.
        254    2    1    2    0    0 -0.16459018011E+02  0.14722697533E+04  0.27083436633E+03  0.17468101944E+04  0.90008081604E+03 0.  0.
         23    2    4    4    0    0  0.36189628684E+03  0.11014959281E+04  0.45619534522E+02  0.11640040421E+04  0.92531433350E+02 0.  0.
         23    2    4    4    0    0 -0.37835530486E+03  0.37077382523E+03  0.22521483181E+03  0.58280615224E+03  0.91188400793E+02 0.  0.
          4    1    3    3  502    0 -0.87058149155E+01 -0.54399442169E+03  0.30453573646E+03  0.62349638076E+03  0.00000000000E+00 0. -1.
         -4    1    3    3    0  502  0.25164832926E+02 -0.92827533163E+03  0.65601517708E+03  0.11369627402E+04  0.00000000000E+00 0.  1.
         11    1    5    5    0    0  0.10366072125E+03  0.20648005504E+03  0.23293578647E+02  0.23221143182E+03  0.00000000000E+00 0. -1.
        -11    1    5    5    0    0  0.25823556559E+03  0.89501587305E+03  0.22325955875E+02  0.93179261032E+03  0.00000000000E+00 0.  1.
          1    1    6    6  503    0 -0.15533682265E+03  0.17673092302E+03  0.54819222153E+02  0.24159572584E+03  0.00000000000E+00 0. -1.
         -1    1    6    6    0  503 -0.22301848220E+03  0.19404290221E+03  0.17039560965E+03  0.34121042641E+03  0.00000000000E+00 0.  1.
<mgrwt>
<rscale>  0 0.32839958E+04</rscale>
<asrwt>0</asrwt>
<pdfrwt beam="1">  1        1 0.36451189E+00 0.32839958E+04</pdfrwt>
<pdfrwt beam="2">  1       -1 0.17506800E+00 0.32839958E+04</pdfrwt>
<totfact> 0.31299432E-01</totfact>
</mgrwt>
</event>
<event>
12    2  0.8147979E-008  0.2371943E+04  0.7818608E-02  0.8450083E-01
         -2   -1    0    0    0  501 -0.00000000000E+00  0.00000000000E+00  0.47334310066E+03  0.47334310066E+03  0.00000000000E+00 0.  1.
          2   -1    0    0  501    0  0.00000000000E+00 -0.00000000000E+00 -0.29714766673E+04  0.29714766673E+04  0.00000000000E+00 0. -1.
         23    2    1    2    0    0 -0.13694842591E+03 -0.71670213176E+03 -0.20926152016E+04  0.22179950826E+04  0.89705001936E+02 0.  0.
        254    2    1    2    0    0  0.13694842591E+03  0.71670213176E+03 -0.40551836508E+03  0.12268246854E+04  0.89901993711E+03 0.  0.
         23    2    4    4    0    0 -0.10192118012E+03  0.84320213394E+03 -0.39809233527E+03  0.94257595675E+03  0.92704698906E+02 0.  0.
         23    2    4    4    0    0  0.23886960603E+03 -0.12650000218E+03 -0.74260298159E+01  0.28424872868E+03  0.87642766954E+02 0.  0.
          1    1    3    3  502    0 -0.92285310602E+02 -0.45469610307E+03 -0.14556129556E+04  0.15277677183E+04  0.00000000000E+00 0. -1.
         -1    1    3    3    0  502 -0.44663115308E+02 -0.26200602868E+03 -0.63700224598E+03  0.69022736422E+03  0.00000000000E+00 0.  1.
         11    1    5    5    0    0 -0.28724263107E+02  0.22101440537E+03 -0.15058943947E+03  0.26897886525E+03  0.00000000000E+00 0.  1.
        -11    1    5    5    0    0 -0.73196917015E+02  0.62218772857E+03 -0.24750289580E+03  0.67359709150E+03  0.00000000000E+00 0. -1.
          1    1    6    6  503    0  0.19843971705E+03 -0.13266062835E+03 -0.24455197093E+02  0.23994837003E+03  0.00000000000E+00 0. -1.
         -1    1    6    6    0  503  0.40429888982E+02  0.61606261699E+01  0.17029167277E+02  0.44300358644E+02  0.00000000000E+00 0.  1.
<mgrwt>
<rscale>  0 0.23719426E+04</rscale>
<asrwt>0</asrwt>
<pdfrwt beam="1">  1        2 0.45715025E+00 0.23719426E+04</pdfrwt>
<pdfrwt beam="2">  1       -2 0.72822017E-01 0.23719426E+04</pdfrwt>
<totfact> 0.27882716E+00</totfact>
</mgrwt>
</event>
<event>
12    2  0.8147979E-008  0.1818062E+04  0.7818608E-02  0.8696753E-01
         -1   -1    0    0    0  501 -0.00000000000E+00  0.00000000000E+00  0.54330046104E+03  0.54330046104E+03  0.00000000000E+00 0.  1.
          1   -1    0    0  501    0  0.00000000000E+00 -0.00000000000E+00 -0.15209576293E+04  0.15209576293E+04  0.00000000000E+00 0. -1.
         23    2    1    2    0    0 -0.63355078143E+03  0.14296739012E+03 -0.60960205088E+03  0.89532517088E+03  0.90367216934E+02 0.  0.
        254    2    1    2    0    0  0.63355078143E+03 -0.14296739012E+03 -0.36805511741E+03  0.11689329195E+04  0.89950727264E+03 0.  0.
         23    2    4    4    0    0  0.54388880702E+02 -0.36379375154E+03 -0.38793507926E+03  0.54219767884E+03  0.90446963527E+02 0.  0.
         23    2    4    4    0    0  0.57916190073E+03  0.22082636142E+03  0.19879961849E+02  0.62673524065E+03  0.90603862185E+02 0.  0.
          3    1    3    3  502    0 -0.23379396289E+03  0.44715322001E+02 -0.28335938284E+03  0.37006974606E+03  0.00000000000E+00 0. -1.
         -3    1    3    3    0  502 -0.39975681854E+03  0.98252068124E+02 -0.32624266804E+03  0.52525542482E+03  0.00000000000E+00 0.  1.
         11    1    5    5    0    0  0.10269020887E+02 -0.39198634512E+02 -0.92853828841E+02  0.10131050917E+03  0.00000000000E+00 0.  1.
        -11    1    5    5    0    0  0.44119859815E+02 -0.32459511703E+03 -0.29508125042E+03  0.44088716967E+03  0.00000000000E+00 0. -1.
          1    1    6    6  503    0  0.42565861482E+03  0.14582552060E+03 -0.23196168152E+02  0.45054234102E+03  0.00000000000E+00 0. -1.
         -1    1    6    6    0  503  0.15350328590E+03  0.75000840817E+02  0.43076130001E+02  0.17619289964E+03  0.00000000000E+00 0.  1.
<mgrwt>
<rscale>  0 0.18180616E+04</rscale>
<asrwt>0</asrwt>
<pdfrwt beam="1">  1        1 0.23399348E+00 0.18180616E+04</pdfrwt>
<pdfrwt beam="2">  1       -1 0.83584687E-01 0.18180616E+04</pdfrwt>
<totfact> 0.84623609E+00</totfact>
</mgrwt>
</event>
<event>
12    2  0.8147979E-008  0.1995482E+04  0.7818608E-02  0.8608736E-01
          2   -1    0    0  501    0  0.00000000000E+00  0.00000000000E+00  0.10805761150E+04  0.10805761150E+04  0.00000000000E+00 0. -1.
         -2   -1    0    0    0  501 -0.00000000000E+00 -0.00000000000E+00 -0.92125614360E+03  0.92125614360E+03  0.00000000000E+00 0.  1.
         23    2    1    2    0    0  0.68370997507E+03  0.26876879493E+03  0.36002545318E+03  0.82321764241E+03  0.91503905370E+02 0.  0.
        254    2    1    2    0    0 -0.68370997507E+03 -0.26876879493E+03 -0.20070548181E+03  0.11786146162E+04  0.89952972594E+03 0.  0.
         23    2    4    4    0    0 -0.38449400770E+03 -0.28968986511E+03 -0.53159048724E+03  0.72297463821E+03  0.91367507725E+02 0.  0.
         23    2    4    4    0    0 -0.29921596737E+03  0.20921070178E+02  0.33088500543E+03  0.45563997794E+03  0.90305129288E+02 0.  0.
          4    1    3    3  502    0  0.18714193382E+03  0.10428425494E+03  0.71688468286E+02  0.22591269488E+03  0.00000000000E+00 0.  1.
         -4    1    3    3    0  502  0.49656804125E+03  0.16448453999E+03  0.28833698489E+03  0.59730494753E+03  0.00000000000E+00 0. -1.
         11    1    5    5    0    0 -0.22147290991E+03 -0.21434611729E+03 -0.30221783419E+03  0.43165973536E+03  0.00000000000E+00 0. -1.
        -11    1    5    5    0    0 -0.16302109779E+03 -0.75343747815E+02 -0.22937265305E+03  0.29131490286E+03  0.00000000000E+00 0.  1.
          2    1    6    6  503    0 -0.14583509360E+03  0.27403000939E+02  0.10209325230E+03  0.18011616016E+03  0.00000000000E+00 0. -1.
         -2    1    6    6    0  503 -0.15338087376E+03 -0.64819307612E+01  0.22879175313E+03  0.27552381778E+03  0.00000000000E+00 0.  1.
<mgrwt>
<rscale>  0 0.19954823E+04</rscale>
<asrwt>0</asrwt>
<pdfrwt beam="1">  1        2 0.16624248E+00 0.19954823E+04</pdfrwt>
<pdfrwt beam="2">  1       -2 0.14173171E+00 0.19954823E+04</pdfrwt>
<totfact> 0.72412474E+00</totfact>
</mgrwt>
</event>
<event>
12    2  0.8147979E-008  0.2048934E+04  0.7818608E-02  0.8584078E-01
          1   -1    0    0  501    0  0.00000000000E+00  0.00000000000E+00  0.18071491314E+04  0.18071491314E+04  0.00000000000E+00 0. -1.
         -1   -1    0    0    0  501 -0.00000000000E+00 -0.00000000000E+00 -0.58076684831E+03  0.58076684831E+03  0.00000000000E+00 0.  1.
         23    2    1    2    0    0  0.53171864272E+03 -0.62003366269E+03  0.37288792694E+03  0.90240543368E+03  0.90131585929E+02 0.  0.
        254    2    1    2    0    0 -0.53171864272E+03  0.62003366269E+03  0.85349435616E+03  0.14855105460E+04  0.90062339995E+03 0.  0.
         23    2    4    4    0    0 -0.35805324855E+03  0.46252191564E+02 -0.72749121997E+02  0.37846358660E+03  0.87182897438E+02 0.  0.
         23    2    4    4    0    0 -0.17366539417E+03  0.57378147113E+03  0.92624347815E+03  0.11070469595E+04  0.90780746106E+02 0.  0.
          1    1    3    3  502    0  0.22269540993E+03 -0.31023109523E+03  0.20749053945E+03  0.43461350878E+03  0.00000000000E+00 0. -1.
         -1    1    3    3    0  502  0.30902323279E+03 -0.30980256746E+03  0.16539738749E+03  0.46779192490E+03  0.00000000000E+00 0.  1.
         11    1    5    5    0    0 -0.23644720630E+03  0.48505500452E+02 -0.85734594116E+02  0.25614543832E+03  0.00000000000E+00 0. -1.
        -11    1    5    5    0    0 -0.12160604225E+03 -0.22533088882E+01  0.12985472119E+02  0.12231814828E+03  0.00000000000E+00 0.  1.
          4    1    6    6  503    0 -0.65898897314E+02  0.25894262229E+03  0.49301079317E+03  0.56076161467E+03  0.00000000000E+00 0. -1.
         -4    1    6    6    0  503 -0.10776649686E+03  0.31483884884E+03  0.43323268498E+03  0.54628534478E+03  0.00000000000E+00 0.  1.
<mgrwt>
<rscale>  0 0.20489337E+04</rscale>
<asrwt>0</asrwt>
<pdfrwt beam="1">  1        1 0.27802294E+00 0.20489337E+04</pdfrwt>
<pdfrwt beam="2">  1       -1 0.89348747E-01 0.20489337E+04</pdfrwt>
<totfact> 0.45674493E+00</totfact>
</mgrwt>
</event>
<event>
12    2  0.8147979E-008  0.1738089E+04  0.7818608E-02  0.8739934E-01
          2   -1    0    0  501    0  0.00000000000E+00  0.00000000000E+00  0.10169169419E+04  0.10169169419E+04  0.00000000000E+00 0.  1.
         -2   -1    0    0    0  501 -0.00000000000E+00 -0.00000000000E+00 -0.74267419945E+03  0.74267419945E+03  0.00000000000E+00 0. -1.
         23    2    1    2    0    0  0.37647006631E+03 -0.18748863629E+03 -0.37548258861E+03  0.57169278556E+03  0.94677173333E+02 0.  0.
        254    2    1    2    0    0 -0.37647006631E+03  0.18748863629E+03  0.64972533110E+03  0.11878983558E+04  0.90115359309E+03 0.  0.
         23    2    4    4    0    0 -0.33467880817E+03 -0.25576769348E+03  0.47567181694E+02  0.43362840742E+03  0.91345176565E+02 0.  0.
         23    2    4    4    0    0 -0.41791258144E+02  0.44325632976E+03  0.60215814941E+03  0.75426994841E+03  0.90033521788E+02 0.  0.
          4    1    3    3  502    0  0.35117911293E+03 -0.19576090258E+03 -0.36522606190E+03  0.54317508838E+03  0.00000000000E+00 0. -1.
         -4    1    3    3    0  502  0.25290953382E+02  0.82722662988E+01 -0.10256526703E+02  0.28517697185E+02  0.00000000000E+00 0.  1.
         11    1    5    5    0    0 -0.25251799949E+02  0.56815553754E+01  0.41721434341E+01  0.26217174771E+02  0.00000000000E+00 0.  1.
        -11    1    5    5    0    0 -0.30942700822E+03 -0.26144924885E+03  0.43395038260E+02  0.40741123265E+03  0.00000000000E+00 0. -1.
          3    1    6    6  503    0 -0.38305634644E+02  0.34675011464E+03  0.40361067210E+03  0.53348340019E+03  0.00000000000E+00 0. -1.
         -3    1    6    6    0  503 -0.34856234998E+01  0.96506215119E+02  0.19854747731E+03  0.22078654821E+03  0.00000000000E+00 0.  1.
<mgrwt>
<rscale>  0 0.17380886E+04</rscale>
<asrwt>0</asrwt>
<pdfrwt beam="1">  1        2 0.15644876E+00 0.17380886E+04</pdfrwt>
<pdfrwt beam="2">  1       -2 0.11425757E+00 0.17380886E+04</pdfrwt>
<totfact> 0.13963692E+01</totfact>
</mgrwt>
</event>
<event>
12    2  0.8147979E-008  0.1926607E+04  0.7818608E-02  0.8641725E-01
         -3   -1    0    0    0  501 -0.00000000000E+00  0.00000000000E+00  0.21359945175E+04  0.21359945175E+04  0.00000000000E+00 0.  1.
          3   -1    0    0  501    0  0.00000000000E+00 -0.00000000000E+00 -0.43443636486E+03  0.43443636486E+03  0.00000000000E+00 0. -1.
         23    2    1    2    0    0 -0.17325268651E+03  0.60033513862E+03  0.12168183305E+04  0.13711464211E+04  0.94746433239E+02 0.  0.
        254    2    1    2    0    0  0.17325268651E+03 -0.60033513862E+03  0.48473982213E+03  0.11992844612E+04  0.90160509747E+03 0.  0.
         23    2    4    4    0    0 -0.19890988566E+03 -0.66963984687E+03  0.35659625611E+03  0.78935363623E+03  0.89082018524E+02 0.  0.
         23    2    4    4    0    0  0.37216257217E+03  0.69304708252E+02  0.12814356602E+03  0.40993082502E+03  0.91183249977E+02 0.  0.
          1    1    3    3  502    0 -0.21121331615E+02  0.21399200959E+03  0.36814909851E+03  0.42634780350E+03  0.00000000000E+00 0. -1.
         -1    1    3    3    0  502 -0.15213135489E+03  0.38634312904E+03  0.84866923196E+03  0.94479861758E+03  0.00000000000E+00 0.  1.
         11    1    5    5    0    0 -0.12294259849E+03 -0.46643136195E+03  0.20194223362E+03  0.52292806738E+03  0.00000000000E+00 0.  1.
        -11    1    5    5    0    0 -0.75967287175E+02 -0.20320848492E+03  0.15465402249E+03  0.26642556885E+03  0.00000000000E+00 0. -1.
          4    1    6    6  503    0  0.30143004719E+03  0.91021336915E+02  0.11199977409E+03  0.33419890263E+03  0.00000000000E+00 0.  1.
         -4    1    6    6    0  503  0.70732524974E+02 -0.21716628663E+02  0.16143791929E+02  0.75731922381E+02  0.00000000000E+00 0. -1.
<mgrwt>
<rscale>  0 0.19266071E+04</rscale>
<asrwt>0</asrwt>
<pdfrwt beam="1">  1        3 0.66836365E-01 0.19266071E+04</pdfrwt>
<pdfrwt beam="2">  1       -3 0.32861453E+00 0.19266071E+04</pdfrwt>
<totfact> 0.13897321E-01</totfact>
</mgrwt>
</event>
<event>
12    2  0.8147979E-008  0.1113510E+04  0.7818608E-02  0.9192124E-01
          2   -1    0    0  501    0  0.00000000000E+00  0.00000000000E+00  0.38518215979E+04  0.38518215979E+04  0.00000000000E+00 0. -1.
         -2   -1    0    0    0  501 -0.00000000000E+00 -0.00000000000E+00 -0.80475160181E+02  0.80475160181E+02  0.00000000000E+00 0.  1.
         23    2    1    2    0    0 -0.13772048118E+03  0.21988598135E+02  0.29709459385E+03  0.34041116732E+03  0.90355607227E+02 0.  0.
        254    2    1    2    0    0  0.13772048118E+03 -0.21988598135E+02  0.34742518439E+04  0.35918855908E+04  0.90098046211E+03 0.  0.
         23    2    4    4    0    0  0.47269276519E+03 -0.14769341497E+03  0.14847017311E+04  0.15678110665E+04  0.91872274442E+02 0.  0.
         23    2    4    4    0    0 -0.33497228401E+03  0.12570481683E+03  0.19895501128E+04  0.20240745243E+04  0.10276135714E+03 0.  0.
          4    1    3    3  502    0 -0.11158374600E+02 -0.80283253302E+01  0.11944362354E+03  0.12023203623E+03  0.00000000000E+00 0. -1.
         -4    1    3    3    0  502 -0.12656210658E+03  0.30016923465E+02  0.17765097031E+03  0.22017913109E+03  0.00000000000E+00 0.  1.
         11    1    5    5    0    0  0.45076772066E+03 -0.12134188304E+03  0.14172140152E+04  0.14921162674E+04  0.00000000000E+00 0. -1.
        -11    1    5    5    0    0  0.21925044526E+02 -0.26351531925E+02  0.67487715897E+02  0.75694799090E+02  0.00000000000E+00 0.  1.
          4    1    6    6  503    0 -0.29753404879E+03  0.12479928803E+03  0.18968642536E+04  0.19241089806E+04  0.00000000000E+00 0. -1.
         -4    1    6    6    0  503 -0.37438235218E+02  0.90552880045E+00  0.92685859228E+02  0.99965543762E+02  0.00000000000E+00 0.  1.
<mgrwt>
<rscale>  0 0.11135097E+04</rscale>
<asrwt>0</asrwt>
<pdfrwt beam="1">  1        2 0.59258779E+00 0.11135097E+04</pdfrwt>
<pdfrwt beam="2">  1       -2 0.12380797E-01 0.11135097E+04</pdfrwt>
<totfact> 0.22459261E+01</totfact>
</mgrwt>
</event>
<event>
12    2  0.8147979E-008  0.1339408E+04  0.7818608E-02  0.8998885E-01
         -2   -1    0    0    0  501 -0.00000000000E+00  0.00000000000E+00  0.18923827842E+03  0.18923827842E+03  0.00000000000E+00 0.  1.
          2   -1    0    0  501    0  0.00000000000E+00 -0.00000000000E+00 -0.23700467106E+04  0.23700467106E+04  0.00000000000E+00 0. -1.
         23    2    1    2    0    0 -0.50251432958E+02  0.27725892985E+03 -0.18103843929E+03  0.34738078821E+03  0.92199646511E+02 0.  0.
        254    2    1    2    0    0  0.50251432958E+02 -0.27725892985E+03 -0.19997699929E+04  0.22119042008E+04  0.90224300961E+03 0.  0.
         23    2    4    4    0    0 -0.40467697737E+03 -0.17418322625E+03 -0.74872557259E+03  0.87360196273E+03  0.92125750528E+02 0.  0.
         23    2    4    4    0    0  0.45492841033E+03 -0.10307570361E+03 -0.12510444203E+04  0.13383022381E+04  0.91412688917E+02 0.  0.
          4    1    3    3  502    0  0.80962326719E+01  0.11607846326E+03 -0.33161552274E+02  0.12099358316E+03  0.00000000000E+00 0. -1.
         -4    1    3    3    0  502 -0.58347665630E+02  0.16118046659E+03 -0.14787688702E+03  0.22638720505E+03  0.00000000000E+00 0.  1.
         11    1    5    5    0    0 -0.34433953149E+02 -0.70504353210E+01 -0.12018661280E+03  0.12522071579E+03  0.00000000000E+00 0.  1.
        -11    1    5    5    0    0 -0.37024302422E+03 -0.16713279093E+03 -0.62853895979E+03  0.74838124694E+03  0.00000000000E+00 0. -1.
          1    1    6    6  503    0  0.37516751382E+03 -0.73599840025E+02 -0.11054466290E+04  0.11696922028E+04  0.00000000000E+00 0. -1.
         -1    1    6    6    0  503  0.79760896507E+02 -0.29475863583E+02 -0.14559779135E+03  0.16861003526E+03  0.00000000000E+00 0.  1.
<mgrwt>
<rscale>  0 0.13394082E+04</rscale>
<asrwt>0</asrwt>
<pdfrwt beam="1">  1        2 0.36462260E+00 0.13394082E+04</pdfrwt>
<pdfrwt beam="2">  1       -2 0.29113579E-01 0.13394082E+04</pdfrwt>
<totfact> 0.43975623E+01</totfact>
</mgrwt>
</event>
<event>
12    2  0.8147979E-008  0.1781805E+04  0.7818608E-02  0.8716036E-01
          1   -1    0    0  501    0  0.00000000000E+00  0.00000000000E+00  0.94819847946E+03  0.94819847946E+03  0.00000000000E+00 0. -1.
         -1   -1    0    0    0  501 -0.00000000000E+00 -0.00000000000E+00 -0.83706885503E+03  0.83706885503E+03  0.00000000000E+00 0.  1.
         23    2    1    2    0    0  0.37371562881E+03  0.44743306125E+03 -0.26315415388E+03  0.64612564648E+03  0.91479652455E+02 0.  0.
        254    2    1    2    0    0 -0.37371562881E+03 -0.44743306125E+03  0.37428377832E+03  0.11391416880E+04  0.90426529467E+03 0.  0.
         23    2    4    4    0    0 -0.96081480690E+02  0.46612598630E+02 -0.25302119776E+03  0.28887084324E+03  0.89567026726E+02 0.  0.
         23    2    4    4    0    0 -0.27763414812E+03 -0.49404565988E+03  0.62730497607E+03  0.85027084478E+03  0.91033742204E+02 0.  0.
          2    1    3    3  502    0  0.15240199307E+03  0.16966122524E+03 -0.55496275707E+02  0.23471500902E+03  0.00000000000E+00 0. -1.
         -2    1    3    3    0  502  0.22131363574E+03  0.27777183601E+03 -0.20765787817E+03  0.41141063746E+03  0.00000000000E+00 0.  1.
         11    1    5    5    0    0 -0.10929542618E+03  0.43378996056E+02 -0.24782711825E+03  0.27430914681E+03  0.00000000000E+00 0.  1.
        -11    1    5    5    0    0  0.13213945489E+02  0.32336025744E+01 -0.51940795045E+01  0.14561696429E+02  0.00000000000E+00 0. -1.
          2    1    6    6  503    0 -0.16602829499E+03 -0.20980755901E+03  0.26726564835E+03  0.37817394588E+03  0.00000000000E+00 0. -1.
         -2    1    6    6    0  503 -0.11160585314E+03 -0.28423810087E+03  0.36003932772E+03  0.47209689890E+03  0.00000000000E+00 0.  1.
<mgrwt>
<rscale>  0 0.17818052E+04</rscale>
<asrwt>0</asrwt>
<pdfrwt beam="1">  1        1 0.14587669E+00 0.17818052E+04</pdfrwt>
<pdfrwt beam="2">  1       -1 0.12877982E+00 0.17818052E+04</pdfrwt>
<totfact> 0.81639382E+00</totfact>
</mgrwt>
</event>
<event>
12    2  0.8147979E-008  0.1979387E+04  0.7818608E-02  0.8616319E-01
          2   -1    0    0  501    0  0.00000000000E+00  0.00000000000E+00  0.17967481870E+04  0.17967481870E+04  0.00000000000E+00 0. -1.
         -2   -1    0    0    0  501 -0.00000000000E+00 -0.00000000000E+00 -0.54514784262E+03  0.54514784262E+03  0.00000000000E+00 0.  1.
         23    2    1    2    0    0 -0.24048177717E+03 -0.51744091661E+03  0.11278594158E+04  0.12672651361E+04  0.91200197657E+02 0.  0.
        254    2    1    2    0    0  0.24048177717E+03  0.51744091661E+03  0.12374092858E+03  0.10746308935E+04  0.90218798073E+03 0.  0.
         23    2    4    4    0    0 -0.31302401762E+03  0.33323644512E+03 -0.18716100167E+02  0.46780579750E+03  0.97269768193E+02 0.  0.
         23    2    4    4    0    0  0.55350579479E+03  0.18420447149E+03  0.14245702875E+03  0.60682509602E+03  0.87422765556E+02 0.  0.
          2    1    3    3  502    0 -0.17581171559E+03 -0.37009996837E+03  0.89368646078E+03  0.98313744518E+03  0.00000000000E+00 0. -1.
         -2    1    3    3    0  502 -0.64670061574E+02 -0.14734094824E+03  0.23417295506E+03  0.28412769096E+03  0.00000000000E+00 0.  1.
         11    1    5    5    0    0 -0.97279283618E+02  0.83146853452E+02 -0.46951376246E+02  0.13631247189E+03  0.00000000000E+00 0. -1.
        -11    1    5    5    0    0 -0.21574473400E+03  0.25008959167E+03  0.28235276080E+02  0.33149332561E+03  0.00000000000E+00 0.  1.
          1    1    6    6  503    0  0.36169635792E+02  0.36733774363E+02  0.18611557949E+02  0.54808784164E+02  0.00000000000E+00 0. -1.
         -1    1    6    6    0  503  0.51733615900E+03  0.14747069713E+03  0.12384547080E+03  0.55201631186E+03  0.00000000000E+00 0.  1.
<mgrwt>
<rscale>  0 0.19793872E+04</rscale>
<asrwt>0</asrwt>
<pdfrwt beam="1">  1        2 0.27642280E+00 0.19793872E+04</pdfrwt>
<pdfrwt beam="2">  1       -2 0.83868900E-01 0.19793872E+04</pdfrwt>
<totfact> 0.10015965E+01</totfact>
</mgrwt>
</event>
<event>
12    2  0.8147979E-008  0.3010766E+04  0.7818608E-02  0.8240663E-01
         -2   -1    0    0    0  501 -0.00000000000E+00  0.00000000000E+00  0.46279464910E+03  0.46279464910E+03  0.00000000000E+00 0. -1.
          2   -1    0    0  501    0  0.00000000000E+00 -0.00000000000E+00 -0.48967250876E+04  0.48967250876E+04  0.00000000000E+00 0.  1.
         23    2    1    2    0    0  0.47951689383E+02 -0.10187753250E+04 -0.36451080070E+04  0.37861933049E+04  0.90801057980E+02 0.  0.
        254    2    1    2    0    0 -0.47951689383E+02  0.10187753250E+04 -0.78882243151E+03  0.15733264318E+04  0.90161671740E+03 0.  0.
         23    2    4    4    0    0  0.19576914970E+03 -0.73422993230E+02 -0.21157347044E+03  0.31099873538E+03  0.90776561419E+02 0.  0.
         23    2    4    4    0    0 -0.24372083909E+03  0.10921983183E+04 -0.57724896107E+03  0.12623276964E+04  0.89206705131E+02 0.  0.
          3    1    3    3  502    0  0.17651835173E+02 -0.28799915860E+03 -0.11879560507E+04  0.12224952683E+04  0.00000000000E+00 0. -1.
         -3    1    3    3    0  502  0.30299854210E+02 -0.73077616643E+03 -0.24571519563E+04  0.25636980366E+04  0.00000000000E+00 0.  1.
         11    1    5    5    0    0  0.20388635457E+03 -0.68286054925E+02 -0.18827383490E+03  0.28579654964E+03  0.00000000000E+00 0.  1.
        -11    1    5    5    0    0 -0.81172048639E+01 -0.51369383055E+01 -0.23299635538E+02  0.25202185742E+02  0.00000000000E+00 0. -1.
          3    1    6    6  503    0 -0.75614312713E+02  0.24207601065E+03 -0.96693795110E+02  0.27141851306E+03  0.00000000000E+00 0. -1.
         -3    1    6    6    0  503 -0.16810652637E+03  0.85012230760E+03 -0.48055516596E+03  0.99090918334E+03  0.00000000000E+00 0.  1.
<mgrwt>
<rscale>  0 0.30107661E+04</rscale>
<asrwt>0</asrwt>
<pdfrwt beam="1">  1        2 0.75334233E+00 0.30107661E+04</pdfrwt>
<pdfrwt beam="2">  1       -2 0.71199176E-01 0.30107661E+04</pdfrwt>
<totfact> 0.70351038E-02</totfact>
</mgrwt>
</event>
<event>
12    2  0.8147979E-008  0.3341974E+04  0.7818608E-02  0.8152297E-01
         -2   -1    0    0    0  501 -0.00000000000E+00  0.00000000000E+00  0.91438497757E+03  0.91438497757E+03  0.00000000000E+00 0.  1.
          2   -1    0    0  501    0  0.00000000000E+00 -0.00000000000E+00 -0.30536341259E+04  0.30536341259E+04  0.00000000000E+00 0. -1.
         23    2    1    2    0    0 -0.45583711551E+03  0.11691300400E+04 -0.20690704477E+04  0.24216708375E+04  0.93726205870E+02 0.  0.
        254    2    1    2    0    0  0.45583711551E+03 -0.11691300400E+04 -0.70178700647E+02  0.15463482659E+04  0.90089698814E+03 0.  0.
         23    2    4    4    0    0  0.48162115473E+03 -0.67531374620E+03 -0.41945706070E+03  0.93442324609E+03  0.95890482188E+02 0.  0.
         23    2    4    4    0    0 -0.25784039224E+02 -0.49381629379E+03  0.34927836005E+03  0.61192501984E+03  0.89092695612E+02 0.  0.
          1    1    3    3  502    0 -0.43751342174E+03  0.10897085688E+04 -0.19695183548E+04  0.22930079173E+04  0.00000000000E+00 0. -1.
         -1    1    3    3    0  502 -0.18323693770E+02  0.79421471153E+02 -0.99552092920E+02  0.12866292021E+03  0.00000000000E+00 0.  1.
         11    1    5    5    0    0  0.19384314927E+03 -0.22303877884E+03 -0.18998328390E+03  0.35130486980E+03  0.00000000000E+00 0. -1.
        -11    1    5    5    0    0  0.28777800546E+03 -0.45227496736E+03 -0.22947377680E+03  0.58311837629E+03  0.00000000000E+00 0.  1.
          1    1    6    6  503    0 -0.42439062799E+02 -0.44271972112E+03  0.28539781209E+03  0.52844463917E+03  0.00000000000E+00 0. -1.
         -1    1    6    6    0  503  0.16655023575E+02 -0.51096572675E+02  0.63880547963E+02  0.83480380674E+02  0.00000000000E+00 0.  1.
<mgrwt>
<rscale>  0 0.33419738E+04</rscale>
<asrwt>0</asrwt>
<pdfrwt beam="1">  1        2 0.46978986E+00 0.33419738E+04</pdfrwt>
<pdfrwt beam="2">  1       -2 0.14067461E+00 0.33419738E+04</pdfrwt>
<totfact> 0.47515489E-01</totfact>
</mgrwt>
</event>
<event>
12    2  0.8147979E-008  0.1560245E+04  0.7818608E-02  0.8845350E-01
          2   -1    0    0  501    0  0.00000000000E+00  0.00000000000E+00  0.65595594540E+03  0.65595594540E+03  0.00000000000E+00 0. -1.
         -2   -1    0    0    0  501 -0.00000000000E+00 -0.00000000000E+00 -0.92779295234E+03  0.92779295234E+03  0.00000000000E+00 0.  1.
         23    2    1    2    0    0 -0.39682899017E+03 -0.11162847949E+03 -0.40818342310E+03  0.58635414712E+03  0.85225078923E+02 0.  0.
        254    2    1    2    0    0  0.39682899017E+03  0.11162847949E+03  0.13634641616E+03  0.99739475061E+03  0.89792637698E+03 0.  0.
         23    2    4    4    0    0 -0.82607154968E+02  0.38851838904E+03  0.15959027057E+03  0.43557281876E+03  0.80524190788E+02 0.  0.
         23    2    4    4    0    0  0.47943614514E+03 -0.27688990955E+03 -0.23243854410E+02  0.56182193186E+03  0.92609756885E+02 0.  0.
          1    1    3    3  502    0 -0.37358157822E+03 -0.80915902847E+02 -0.36564840309E+03  0.52897006872E+03  0.00000000000E+00 0. -1.
         -1    1    3    3    0  502 -0.23247411953E+02 -0.30712576647E+02 -0.42535020011E+02  0.57384078403E+02  0.00000000000E+00 0.  1.
         11    1    5    5    0    0 -0.58432068105E+02  0.13811923873E+03  0.88589014212E+02  0.17418164119E+03  0.00000000000E+00 0.  1.
        -11    1    5    5    0    0 -0.24175086863E+02  0.25039915031E+03  0.71001256359E+02  0.26139117756E+03  0.00000000000E+00 0. -1.
          1    1    6    6  503    0  0.22846742551E+03 -0.18013987233E+03 -0.32071940782E+02  0.29270522289E+03  0.00000000000E+00 0. -1.
         -1    1    6    6    0  503  0.25096871963E+03 -0.96750037216E+02  0.88280863721E+01  0.26911670897E+03  0.00000000000E+00 0.  1.
<mgrwt>
<rscale>  0 0.15602452E+04</rscale>
<asrwt>0</asrwt>
<pdfrwt beam="1">  1        2 0.10091630E+00 0.15602452E+04</pdfrwt>
<pdfrwt beam="2">  1       -2 0.14273738E+00 0.15602452E+04</pdfrwt>
<totfact> 0.14593162E+01</totfact>
</mgrwt>
</event>
<event>
12    2  0.8147979E-008  0.2021918E+04  0.7818608E-02  0.8596441E-01
          1   -1    0    0  501    0  0.00000000000E+00  0.00000000000E+00  0.23933032894E+04  0.23933032894E+04  0.00000000000E+00 0. -1.
         -1   -1    0    0    0  501 -0.00000000000E+00 -0.00000000000E+00 -0.42704095585E+03  0.42704095585E+03  0.00000000000E+00 0.  1.
         23    2    1    2    0    0  0.80689498904E+03  0.37906848992E+02  0.75250558601E+03  0.11077193655E+04  0.90890500845E+02 0.  0.
        254    2    1    2    0    0 -0.80689498904E+03 -0.37906848992E+02  0.12137567476E+04  0.17126248798E+04  0.89853329605E+03 0.  0.
         23    2    4    4    0    0  0.13053821127E+03 -0.87202653904E+02  0.96840854427E+01  0.18310596525E+03  0.93752256236E+02 0.  0.
         23    2    4    4    0    0 -0.93743320031E+03  0.49295804912E+02  0.12040726621E+04  0.15295189146E+04  0.91793533949E+02 0.  0.
          3    1    3    3  502    0  0.12317001692E+03  0.36295085122E+02  0.13681214903E+03  0.18763195463E+03  0.00000000000E+00 0. -1.
         -3    1    3    3    0  502  0.68372497212E+03  0.16117638704E+01  0.61569343697E+03  0.92008741086E+03  0.00000000000E+00 0.  1.
         11    1    5    5    0    0  0.89353545331E+02 -0.25861670481E+02 -0.31880937818E+02  0.98332478152E+02  0.00000000000E+00 0.  1.
        -11    1    5    5    0    0  0.41184665937E+02 -0.61340983424E+02  0.41565023261E+02  0.84773487096E+02  0.00000000000E+00 0. -1.
          1    1    6    6  503    0  0.11790907004E+01 -0.69814782498E+00  0.89533608993E+01  0.90576120837E+01  0.00000000000E+00 0. -1.
         -1    1    6    6    0  503 -0.93861229101E+03  0.49993952737E+02  0.11951193012E+04  0.15204613025E+04  0.00000000000E+00 0.  1.
<mgrwt>
<rscale>  0 0.20219184E+04</rscale>
<asrwt>0</asrwt>
<pdfrwt beam="1">  1        1 0.36820050E+00 0.20219184E+04</pdfrwt>
<pdfrwt beam="2">  1       -1 0.65698610E-01 0.20219184E+04</pdfrwt>
<totfact> 0.34921891E+00</totfact>
</mgrwt>
</event>
<event>
12    2  0.8147979E-008  0.3757535E+04  0.7818608E-02  0.8055330E-01
         -2   -1    0    0    0  501 -0.00000000000E+00  0.00000000000E+00  0.12599743876E+04  0.12599743876E+04  0.00000000000E+00 0.  1.
          2   -1    0    0  501    0  0.00000000000E+00 -0.00000000000E+00 -0.28014600100E+04  0.28014600100E+04  0.00000000000E+00 0. -1.
         23    2    1    2    0    0 -0.32047157502E+03  0.16421438609E+04 -0.10117536615E+03  0.16772373970E+04  0.59584737803E+02 0.  0.
        254    2    1    2    0    0  0.32047157502E+03 -0.16421438609E+04 -0.14403102563E+04  0.23841970006E+04  0.90031284175E+03 0.  0.
         23    2    4    4    0    0  0.44330130718E+03 -0.10162025330E+04 -0.44329171194E+03  0.11971030771E+04  0.85817238023E+02 0.  0.
         23    2    4    4    0    0 -0.12282973216E+03 -0.62594132785E+03 -0.99701854432E+03  0.11870939234E+04  0.90864274143E+02 0.  0.
          4    1    3    3  502    0 -0.10608959733E+03  0.60493856736E+03 -0.63406826269E+02  0.61743509663E+03  0.00000000000E+00 0. -1.
         -4    1    3    3    0  502 -0.21438197769E+03  0.10372052935E+04 -0.37768539884E+02  0.10598023003E+04  0.00000000000E+00 0.  1.
         11    1    5    5    0    0  0.35855023711E+03 -0.81529134329E+03 -0.39198462370E+03  0.97309310561E+03  0.00000000000E+00 0. -1.
        -11    1    5    5    0    0  0.84751070074E+02 -0.20091118972E+03 -0.51307088243E+02  0.22400997151E+03  0.00000000000E+00 0.  1.
          3    1    6    6  503    0 -0.87935737508E+02 -0.45469266395E+03 -0.64456082517E+03  0.79368556112E+03  0.00000000000E+00 0. -1.
         -3    1    6    6    0  503 -0.34893994649E+02 -0.17124866390E+03 -0.35245771915E+03  0.39340836231E+03  0.00000000000E+00 0.  1.
<mgrwt>
<rscale>  0 0.37575353E+04</rscale>
<asrwt>0</asrwt>
<pdfrwt beam="1">  1        2 0.43099385E+00 0.37575353E+04</pdfrwt>
<pdfrwt beam="2">  1       -2 0.19384221E+00 0.37575353E+04</pdfrwt>
<totfact> 0.27116289E-01</totfact>
</mgrwt>
</event>
<event>
12    2  0.8147979E-008  0.1253416E+04  0.7818608E-02  0.9067345E-01
          1   -1    0    0  501    0  0.00000000000E+00  0.00000000000E+00  0.35694126050E+03  0.35694126050E+03  0.00000000000E+00 0. -1.
         -1   -1    0    0    0  501 -0.00000000000E+00 -0.00000000000E+00 -0.11003576420E+04  0.11003576420E+04  0.00000000000E+00 0.  1.
         23    2    1    2    0    0  0.25582104203E+03 -0.75935249112E+02 -0.32581767677E+03  0.43003112427E+03  0.86942749809E+02 0.  0.
        254    2    1    2    0    0 -0.25582104203E+03  0.75935249112E+02 -0.41759870470E+03  0.10272677782E+04  0.89982211706E+03 0.  0.
         23    2    4    4    0    0 -0.20633216793E+03  0.15870089746E+03  0.23425875729E+03  0.36208576005E+03  0.92032569671E+02 0.  0.
         23    2    4    4    0    0 -0.49488874102E+02 -0.82765648352E+02 -0.65185746200E+03  0.66518201815E+03  0.90827668188E+02 0.  0.
          4    1    3    3  502    0  0.82540229093E+02  0.11564657627E+02 -0.12905771091E+03  0.15363112793E+03  0.00000000000E+00 0. -1.
         -4    1    3    3    0  502  0.17328081294E+03 -0.87499906739E+02 -0.19675996587E+03  0.27639999635E+03  0.00000000000E+00 0.  1.
         11    1    5    5    0    0 -0.13450286293E+03  0.79740646888E+02  0.19117200222E+03  0.24697434145E+03  0.00000000000E+00 0.  1.
        -11    1    5    5    0    0 -0.71829305003E+02  0.78960250576E+02  0.43086755073E+02  0.11511141860E+03  0.00000000000E+00 0. -1.
          3    1    6    6  503    0 -0.48683950673E+01 -0.79737004433E+02 -0.51614115076E+03  0.52228668244E+03  0.00000000000E+00 0. -1.
         -3    1    6    6    0  503 -0.44620479035E+02 -0.30286439190E+01 -0.13571631124E+03  0.14289533572E+03  0.00000000000E+00 0.  1.
<mgrwt>
<rscale>  0 0.12534162E+04</rscale>
<asrwt>0</asrwt>
<pdfrwt beam="1">  1        1 0.54914040E-01 0.12534162E+04</pdfrwt>
<pdfrwt beam="2">  1       -1 0.16928579E+00 0.12534162E+04</pdfrwt>
<totfact> 0.17135736E+01</totfact>
</mgrwt>
</event>
<event>
12    2  0.8147979E-008  0.1821838E+04  0.7818608E-02  0.8694771E-01
          2   -1    0    0  501    0  0.00000000000E+00  0.00000000000E+00  0.17044417611E+04  0.17044417611E+04  0.00000000000E+00 0. -1.
         -2   -1    0    0    0  501 -0.00000000000E+00 -0.00000000000E+00 -0.48683027642E+03  0.48683027642E+03  0.00000000000E+00 0.  1.
         23    2    1    2    0    0 -0.67758058386E+02  0.24686597488E+03 -0.30125829180E+03  0.40757284331E+03  0.99121643435E+02 0.  0.
        254    2    1    2    0    0  0.67758058386E+02 -0.24686597488E+03  0.15188697764E+04  0.17836991942E+04  0.89949066335E+03 0.  0.
         23    2    4    4    0    0 -0.19844503063E+03 -0.24105701686E+03  0.14604260727E+04  0.14961873222E+04  0.90792476466E+02 0.  0.
         23    2    4    4    0    0  0.26620308902E+03 -0.58089580175E+01  0.58443703734E+02  0.28751187194E+03  0.91376043932E+02 0.  0.
          2    1    3    3  502    0  0.25075075388E+02  0.57955423542E+02 -0.83803839063E+02  0.10493175861E+03  0.00000000000E+00 0.  1.
         -2    1    3    3    0  502 -0.92833133774E+02  0.18891055134E+03 -0.21745445274E+03  0.30264108470E+03  0.00000000000E+00 0. -1.
         11    1    5    5    0    0 -0.20665086023E+03 -0.21797080572E+03  0.13319950184E+04  0.13654400679E+04  0.00000000000E+00 0. -1.
        -11    1    5    5    0    0  0.82058295969E+01 -0.23086211144E+02  0.12843105436E+03  0.13074725431E+03  0.00000000000E+00 0.  1.
          3    1    6    6  503    0  0.15933082105E+03 -0.48226022362E+02  0.37425333997E+02  0.17062448650E+03  0.00000000000E+00 0. -1.
         -3    1    6    6    0  503  0.10687226797E+03  0.42417064345E+02  0.21018369737E+02  0.11688738544E+03  0.00000000000E+00 0.  1.
<mgrwt>
<rscale>  0 0.18218385E+04</rscale>
<asrwt>0</asrwt>
<pdfrwt beam="1">  1        2 0.26222181E+00 0.18218385E+04</pdfrwt>
<pdfrwt beam="2">  1       -2 0.74896966E-01 0.18218385E+04</pdfrwt>
<totfact> 0.14717822E+01</totfact>
</mgrwt>
</event>
<event>
12    2  0.8147979E-008  0.1652316E+04  0.7818608E-02  0.8789038E-01
         -2   -1    0    0    0  501 -0.00000000000E+00  0.00000000000E+00  0.28531199611E+03  0.28531199611E+03  0.00000000000E+00 0.  1.
          2   -1    0    0  501    0  0.00000000000E+00 -0.00000000000E+00 -0.23922465171E+04  0.23922465171E+04  0.00000000000E+00 0. -1.
         23    2    1    2    0    0 -0.36884276831E+03 -0.29301126569E+03 -0.12793729365E+04  0.13669081563E+04  0.98702621589E+02 0.  0.
        254    2    1    2    0    0  0.36884276831E+03  0.29301126569E+03 -0.82756158448E+03  0.13106503569E+04  0.90058069736E+03 0.  0.
         23    2    4    4    0    0  0.65579131475E+03  0.14957077149E+03 -0.60764868937E+03  0.91104182618E+03  0.91250288648E+02 0.  0.
         23    2    4    4    0    0 -0.28694854643E+03  0.14344049419E+03 -0.21991289511E+03  0.39960853075E+03  0.91709610929E+02 0.  0.
          2    1    3    3  502    0 -0.12992337543E+03 -0.11757351391E+03 -0.61366610540E+03  0.63819252861E+03  0.00000000000E+00 0. -1.
         -2    1    3    3    0  502 -0.23891939288E+03 -0.17543775178E+03 -0.66570683113E+03  0.72871562770E+03  0.00000000000E+00 0.  1.
         11    1    5    5    0    0  0.44079659068E+03  0.62708244568E+02 -0.42948704394E+03  0.61862191944E+03  0.00000000000E+00 0.  1.
        -11    1    5    5    0    0  0.21499472406E+03  0.86862526925E+02 -0.17816164543E+03  0.29241990675E+03  0.00000000000E+00 0. -1.
          1    1    6    6  503    0 -0.15849508232E+03  0.28419200816E+02 -0.11323779952E+03  0.19685309582E+03  0.00000000000E+00 0. -1.
         -1    1    6    6    0  503 -0.12845346411E+03  0.11502129338E+03 -0.10667509559E+03  0.20275543493E+03  0.00000000000E+00 0.  1.
<mgrwt>
<rscale>  0 0.16523155E+04</rscale>
<asrwt>0</asrwt>
<pdfrwt beam="1">  1        2 0.36803792E+00 0.16523155E+04</pdfrwt>
<pdfrwt beam="2">  1       -2 0.43894153E-01 0.16523155E+04</pdfrwt>
<totfact> 0.18906014E+01</totfact>
</mgrwt>
</event>
<event>
12    2  0.8147979E-008  0.1705684E+04  0.7818608E-02  0.8758129E-01
          2   -1    0    0  501    0  0.00000000000E+00  0.00000000000E+00  0.22637637228E+04  0.22637637228E+04  0.00000000000E+00 0. -1.
         -2   -1    0    0    0  501 -0.00000000000E+00 -0.00000000000E+00 -0.32129657258E+03  0.32129657258E+03  0.00000000000E+00 0.  1.
         23    2    1    2    0    0 -0.53120682326E+03 -0.71728849912E+02  0.11379587071E+04  0.12612764429E+04  0.92425803451E+02 0.  0.
        254    2    1    2    0    0  0.53120682326E+03  0.71728849912E+02  0.80450844312E+03  0.13237838526E+04  0.90434735378E+03 0.  0.
         23    2    4    4    0    0 -0.21697500272E+03 -0.11552345003E+03  0.11839461292E+03  0.28747696998E+03  0.90564367104E+02 0.  0.
         23    2    4    4    0    0  0.74818182599E+03  0.18725229994E+03  0.68611383020E+03  0.10363068826E+04  0.91325233849E+02 0.  0.
          4    1    3    3  502    0 -0.42375357044E+03 -0.84891636080E+02  0.84817730970E+03  0.95193404553E+03  0.00000000000E+00 0. -1.
         -4    1    3    3    0  502 -0.10745325283E+03  0.13162786168E+02  0.28978139744E+03  0.30934239733E+03  0.00000000000E+00 0.  1.
         11    1    5    5    0    0 -0.16235812706E+02 -0.43785596730E+02  0.78756089666E+01  0.47358265507E+02  0.00000000000E+00 0.  1.
        -11    1    5    5    0    0 -0.20073919002E+03 -0.71737853299E+02  0.11051900395E+03  0.24011870448E+03  0.00000000000E+00 0. -1.
          4    1    6    6  503    0  0.12571404760E+03 -0.29603870716E+01  0.10866120400E+03  0.16619278838E+03  0.00000000000E+00 0. -1.
         -4    1    6    6    0  503  0.62246777839E+03  0.19021268701E+03  0.57745262620E+03  0.87011409421E+03  0.00000000000E+00 0.  1.
<mgrwt>
<rscale>  0 0.17056841E+04</rscale>
<asrwt>0</asrwt>
<pdfrwt beam="1">  1        2 0.34827133E+00 0.17056841E+04</pdfrwt>
<pdfrwt beam="2">  1       -2 0.49430243E-01 0.17056841E+04</pdfrwt>
<totfact> 0.17525015E+01</totfact>
</mgrwt>
</event>
<event>
12    2  0.1030849E-007  0.3210189E+04  0.7818608E-02  0.8186131E-01
         -2   -1    0    0    0  501 -0.00000000000E+00  0.00000000000E+00  0.18175012056E+04  0.18175012056E+04  0.00000000000E+00 0.  1.
          2   -1    0    0  501    0  0.00000000000E+00 -0.00000000000E+00 -0.14175111404E+04  0.14175111404E+04  0.00000000000E+00 0. -1.
         23    2    1    2    0    0 -0.79112160410E+03  0.12021376270E+04 -0.15475704039E+03  0.14503090933E+04  0.91861079149E+02 0.  0.
        254    2    1    2    0    0  0.79112160410E+03 -0.12021376270E+04  0.55474710557E+03  0.17847032526E+04  0.89800505680E+03 0.  0.
         23    2    4    4    0    0  0.58852521179E+03 -0.11396152466E+04  0.11975073695E+03  0.12914674053E+04  0.91994482312E+02 0.  0.
         23    2    4    4    0    0  0.20259639231E+03 -0.62522380387E+02  0.43499636863E+03  0.49323584730E+03  0.95422293623E+02 0.  0.
          4    1    3    3  502    0 -0.42454999994E+03  0.70653787173E+03 -0.57921513518E+02  0.82631311763E+03  0.00000000000E+00 0.  1.
         -4    1    3    3    0  502 -0.36657160416E+03  0.49559975526E+03 -0.96835526869E+02  0.62399597568E+03  0.00000000000E+00 0. -1.
         11    1    5    5    0    0  0.58157637269E+03 -0.11346736024E+04  0.12547946078E+03  0.12811948940E+04  0.00000000000E+00 0. -1.
        -11    1    5    5    0    0  0.69488391017E+01 -0.49416441735E+01 -0.57287238309E+01  0.10272511316E+02  0.00000000000E+00 0.  1.
          2    1    6    6  503    0  0.15262241429E+03 -0.24383434108E+02  0.37800885029E+03  0.40838565609E+03  0.00000000000E+00 0. -1.
         -2    1    6    6    0  503  0.49973978021E+02 -0.38138946280E+02  0.56987518331E+02  0.84850191209E+02  0.00000000000E+00 0.  1.
<mgrwt>
<rscale>  0 0.32101889E+04</rscale>
<asrwt>0</asrwt>
<pdfrwt beam="1">  1        2 0.21807864E+00 0.32101889E+04</pdfrwt>
<pdfrwt beam="2">  1       -2 0.27961557E+00 0.32101889E+04</pdfrwt>
<totfact> 0.50371241E-01</totfact>
</mgrwt>
</event>
<event>
12    2  0.8147979E-008  0.2408450E+04  0.7818608E-02  0.8436347E-01
         -2   -1    0    0    0  501 -0.00000000000E+00  0.00000000000E+00  0.11548730979E+04  0.11548730979E+04  0.00000000000E+00 0.  1.
          2   -1    0    0  501    0  0.00000000000E+00 -0.00000000000E+00 -0.12556863434E+04  0.12556863434E+04  0.00000000000E+00 0. -1.
         23    2    1    2    0    0  0.47282311403E+03  0.91774636646E+03  0.18909893722E+02  0.10362922113E+04  0.87885566719E+02 0.  0.
        254    2    1    2    0    0 -0.47282311403E+03 -0.91774636646E+03 -0.11972313925E+03  0.13742672300E+04  0.89914220182E+03 0.  0.
         23    2    4    4    0    0 -0.20828172601E+02  0.16674390596E+03 -0.24576526666E+02  0.19200092638E+03  0.89571240475E+02 0.  0.
         23    2    4    4    0    0 -0.45199494142E+03 -0.10844902724E+04 -0.95146612580E+02  0.11822663036E+04  0.91006355667E+02 0.  0.
          3    1    3    3  502    0  0.25511364418E+03  0.57879976855E+03 -0.76539079799E+01  0.63257468004E+03  0.00000000000E+00 0. -1.
         -3    1    3    3    0  502  0.21770946985E+03  0.33894659791E+03  0.26563801702E+02  0.40371753127E+03  0.00000000000E+00 0.  1.
         11    1    5    5    0    0  0.58686665585E+01  0.14567524653E+03 -0.44690406814E+02  0.15248918375E+03  0.00000000000E+00 0.  1.
        -11    1    5    5    0    0 -0.26696839160E+02  0.21068659422E+02  0.20113880147E+02  0.39511742629E+02  0.00000000000E+00 0. -1.
          2    1    6    6  503    0 -0.50932096953E+02 -0.19736010032E+03 -0.35224505786E+02  0.20684741600E+03  0.00000000000E+00 0. -1.
         -2    1    6    6    0  503 -0.40106284447E+03 -0.88713017210E+03 -0.59922106794E+02  0.97541888763E+03  0.00000000000E+00 0.  1.
<mgrwt>
<rscale>  0 0.24084504E+04</rscale>
<asrwt>0</asrwt>
<pdfrwt beam="1">  1        2 0.19318251E+00 0.24084504E+04</pdfrwt>
<pdfrwt beam="2">  1       -2 0.17767278E+00 0.24084504E+04</pdfrwt>
<totfact> 0.29683933E+00</totfact>
</mgrwt>
</event>
<event>
12    2  0.8147979E-008  0.2735779E+04  0.7818608E-02  0.8323488E-01
         -1   -1    0    0    0  501 -0.00000000000E+00  0.00000000000E+00  0.76939808420E+03  0.76939808420E+03  0.00000000000E+00 0.  1.
          1   -1    0    0  501    0  0.00000000000E+00 -0.00000000000E+00 -0.24319297354E+04  0.24319297354E+04  0.00000000000E+00 0. -1.
         23    2    1    2    0    0  0.92471573533E+03  0.49128072203E+03 -0.14705902680E+04  0.18076612612E+04  0.92453014833E+02 0.  0.
        254    2    1    2    0    0 -0.92471573533E+03 -0.49128072203E+03 -0.19194138327E+03  0.13936665584E+04  0.89944929957E+03 0.  0.
         23    2    4    4    0    0 -0.40799823413E+03 -0.15571694294E+03  0.35096689397E+03  0.56747595352E+03  0.90226779777E+02 0.  0.
         23    2    4    4    0    0 -0.51671750120E+03 -0.33556377909E+03 -0.54290827724E+03  0.82619060492E+03  0.90782665059E+02 0.  0.
          1    1    3    3  502    0  0.72115240401E+03  0.41209991155E+03 -0.11153617117E+04  0.13906541176E+04  0.00000000000E+00 0. -1.
         -1    1    3    3    0  502  0.20356333133E+03  0.79180810487E+02 -0.35522855622E+03  0.41700714354E+03  0.00000000000E+00 0.  1.
         11    1    5    5    0    0 -0.20808476162E+03 -0.36118860648E+02  0.14170126581E+03  0.25432870236E+03  0.00000000000E+00 0.  1.
        -11    1    5    5    0    0 -0.19991347251E+03 -0.11959808230E+03  0.20926562816E+03  0.31314725116E+03  0.00000000000E+00 0. -1.
          3    1    6    6  503    0 -0.35433197833E+03 -0.21643845961E+03 -0.30925988267E+03  0.51772428251E+03  0.00000000000E+00 0. -1.
         -3    1    6    6    0  503 -0.16238552287E+03 -0.11912531949E+03 -0.23364839456E+03  0.30846632241E+03  0.00000000000E+00 0.  1.
<mgrwt>
<rscale>  0 0.27357793E+04</rscale>
<asrwt>0</asrwt>
<pdfrwt beam="1">  1        1 0.37414303E+00 0.27357793E+04</pdfrwt>
<pdfrwt beam="2">  1       -1 0.11836894E+00 0.27357793E+04</pdfrwt>
<totfact> 0.84118693E-01</totfact>
</mgrwt>
</event>
<event>
12    2  0.8147979E-008  0.1679030E+04  0.7818608E-02  0.8773416E-01
         -2   -1    0    0    0  501 -0.00000000000E+00  0.00000000000E+00  0.74690259474E+03  0.74690259474E+03  0.00000000000E+00 0.  1.
          2   -1    0    0  501    0  0.00000000000E+00 -0.00000000000E+00 -0.94361081581E+03  0.94361081581E+03  0.00000000000E+00 0. -1.
         23    2    1    2    0    0  0.12630985721E+03 -0.49073017971E+03  0.24023353566E+03  0.56783204893E+03  0.89167229587E+02 0.  0.
        254    2    1    2    0    0 -0.12630985721E+03  0.49073017971E+03 -0.43694175673E+03  0.11226813616E+04  0.90151264642E+03 0.  0.
         23    2    4    4    0    0  0.25310812819E+03  0.43488817653E+02  0.13022773421E+03  0.30205598851E+03  0.91233522440E+02 0.  0.
         23    2    4    4    0    0 -0.37941798541E+03  0.44724136206E+03 -0.56716949094E+03  0.82062537312E+03  0.88101804536E+02 0.  0.
          1    1    3    3  502    0  0.10734228307E+03 -0.23911755513E+03  0.12734094096E+03  0.29140227547E+03  0.00000000000E+00 0. -1.
         -1    1    3    3    0  502  0.18967574142E+02 -0.25161262458E+03  0.11289259470E+03  0.27642977346E+03  0.00000000000E+00 0.  1.
         11    1    5    5    0    0  0.17685125911E+03  0.29268716234E+02  0.13489730330E+03  0.22434417317E+03  0.00000000000E+00 0.  1.
        -11    1    5    5    0    0  0.76256869087E+02  0.14220101419E+02 -0.46695690917E+01  0.77711815336E+02  0.00000000000E+00 0. -1.
          3    1    6    6  503    0 -0.57541738810E+02  0.27352419673E+02 -0.53061264023E+02  0.82913836644E+02  0.00000000000E+00 0. -1.
         -3    1    6    6    0  503 -0.32187624660E+03  0.41988894238E+03 -0.51410822692E+03  0.73771153647E+03  0.00000000000E+00 0.  1.
<mgrwt>
<rscale>  0 0.16790299E+04</rscale>
<asrwt>0</asrwt>
<pdfrwt beam="1">  1        2 0.14517089E+00 0.16790299E+04</pdfrwt>
<pdfrwt beam="2">  1       -2 0.11490809E+00 0.16790299E+04</pdfrwt>
<totfact> 0.15438518E+01</totfact>
</mgrwt>
</event>
<event>
12    2  0.8147979E-008  0.1924020E+04  0.7818608E-02  0.8642992E-01
          1   -1    0    0  501    0  0.00000000000E+00  0.00000000000E+00  0.10110845648E+04  0.10110845648E+04  0.00000000000E+00 0. -1.
         -1   -1    0    0    0  501 -0.00000000000E+00 -0.00000000000E+00 -0.91531702017E+03  0.91531702017E+03  0.00000000000E+00 0.  1.
         23    2    1    2    0    0  0.45926544983E+03 -0.50855739345E+03 -0.26432696831E+03  0.73991855599E+03  0.89751587683E+02 0.  0.
        254    2    1    2    0    0 -0.45926544983E+03  0.50855739345E+03  0.36009451291E+03  0.11864830290E+04  0.89917659218E+03 0.  0.
         23    2    4    4    0    0 -0.13308056583E+03 -0.17792620157E+03  0.34503470180E+03  0.42075575718E+03  0.92834754002E+02 0.  0.
         23    2    4    4    0    0 -0.32618488399E+03  0.68648359503E+03  0.15059811114E+02  0.76572727177E+03  0.91951900673E+02 0.  0.
          3    1    3    3  502    0  0.36705292825E+03 -0.38988453568E+03 -0.16719393785E+03  0.56097381058E+03  0.00000000000E+00 0. -1.
         -3    1    3    3    0  502  0.92212521575E+02 -0.11867285778E+03 -0.97133030451E+02  0.17894474542E+03  0.00000000000E+00 0.  1.
         11    1    5    5    0    0 -0.53869752109E+02 -0.12505738273E+02  0.58096367446E+02  0.80209298666E+02  0.00000000000E+00 0. -1.
        -11    1    5    5    0    0 -0.79210813725E+02 -0.16542046330E+03  0.28693833435E+03  0.34054645852E+03  0.00000000000E+00 0.  1.
          1    1    6    6  503    0 -0.27803644137E+02  0.14199616720E+03  0.34880423394E+01  0.14473465572E+03  0.00000000000E+00 0. -1.
         -1    1    6    6    0  503 -0.29838123985E+03  0.54448742783E+03  0.11571768775E+02  0.62099261605E+03  0.00000000000E+00 0.  1.
<mgrwt>
<rscale>  0 0.19240197E+04</rscale>
<asrwt>0</asrwt>
<pdfrwt beam="1">  1        1 0.15555147E+00 0.19240197E+04</pdfrwt>
<pdfrwt beam="2">  1       -1 0.14081800E+00 0.19240197E+04</pdfrwt>
<totfact> 0.57175577E+00</totfact>
</mgrwt>
</event>
<event>
12    2  0.8147979E-008  0.1269368E+04  0.7818608E-02  0.9054216E-01
          1   -1    0    0  501    0  0.00000000000E+00  0.00000000000E+00  0.84370614809E+03  0.84370614809E+03  0.00000000000E+00 0. -1.
         -1   -1    0    0    0  501 -0.00000000000E+00 -0.00000000000E+00 -0.47744534917E+03  0.47744534917E+03  0.00000000000E+00 0.  1.
         23    2    1    2    0    0 -0.12010999643E+03 -0.24236166089E+03  0.24059420214E+03  0.37416970203E+03  0.94614004783E+02 0.  0.
        254    2    1    2    0    0  0.12010999643E+03  0.24236166089E+03  0.12566659678E+03  0.94698179523E+03  0.89878631556E+03 0.  0.
         23    2    4    4    0    0  0.12603586955E+03 -0.32231761475E+03  0.10136508941E+03  0.37249110555E+03  0.93279457373E+02 0.  0.
         23    2    4    4    0    0 -0.59258731159E+01  0.56467927564E+03  0.24301507366E+02  0.57449068969E+03  0.10271898055E+03 0.  0.
          1    1    3    3  502    0  0.56565915276E+01 -0.56140997959E+02  0.21665055425E+02  0.60441569355E+02  0.00000000000E+00 0. -1.
         -1    1    3    3    0  502 -0.12576658796E+03 -0.18622066293E+03  0.21892914672E+03  0.31372813268E+03  0.00000000000E+00 0.  1.
         11    1    5    5    0    0  0.85072199709E+02 -0.10408744427E+03  0.19491828472E+02  0.13583595472E+03  0.00000000000E+00 0. -1.
        -11    1    5    5    0    0  0.40963669839E+02 -0.21823017048E+03  0.81873260942E+02  0.23665515082E+03  0.00000000000E+00 0.  1.
          2    1    6    6  503    0 -0.51541235514E+02  0.31650184641E+03  0.30175059264E+02  0.32208764637E+03  0.00000000000E+00 0. -1.
         -2    1    6    6    0  503  0.45615362398E+02  0.24817742923E+03 -0.58735518982E+01  0.25240304332E+03  0.00000000000E+00 0.  1.
<mgrwt>
<rscale>  0 0.12693677E+04</rscale>
<asrwt>0</asrwt>
<pdfrwt beam="1">  1        1 0.12980095E+00 0.12693677E+04</pdfrwt>
<pdfrwt beam="2">  1       -1 0.73453131E-01 0.12693677E+04</pdfrwt>
<totfact> 0.37297840E+01</totfact>
</mgrwt>
</event>
<event>
12    2  0.8147979E-008  0.2812312E+04  0.7818608E-02  0.8299456E-01
          1   -1    0    0  501    0  0.00000000000E+00  0.00000000000E+00  0.18061244026E+04  0.18061244026E+04  0.00000000000E+00 0. -1.
         -1   -1    0    0    0  501 -0.00000000000E+00 -0.00000000000E+00 -0.10947608962E+04  0.10947608962E+04  0.00000000000E+00 0.  1.
         23    2    1    2    0    0  0.12693789273E+03  0.11935089740E+04  0.71864929504E+03  0.14022897411E+04  0.96864900823E+02 0.  0.
        254    2    1    2    0    0 -0.12693789273E+03 -0.11935089740E+04 -0.72857886264E+01  0.14985955577E+04  0.89730633745E+03 0.  0.
         23    2    4    4    0    0 -0.26109513170E+03  0.14988066683E+02 -0.25983273232E+02  0.27923465193E+03  0.94348028117E+02 0.  0.
         23    2    4    4    0    0  0.13415723897E+03 -0.12084970407E+04  0.18697484606E+02  0.12193609058E+04  0.89600002756E+02 0.  0.
          1    1    3    3  502    0  0.69971908742E+02  0.69455490551E+03  0.47305451124E+03  0.84325746684E+03  0.00000000000E+00 0. -1.
         -1    1    3    3    0  502  0.56965983987E+02  0.49895406852E+03  0.24559478381E+03  0.55903227425E+03  0.00000000000E+00 0.  1.
         11    1    5    5    0    0 -0.23996059302E+03 -0.16003083818E+02 -0.21393424689E+02  0.24144329254E+03  0.00000000000E+00 0. -1.
        -11    1    5    5    0    0 -0.21134538681E+02  0.30991150501E+02 -0.45898485435E+01  0.37791359387E+02  0.00000000000E+00 0.  1.
          4    1    6    6  503    0  0.10511780670E+03 -0.88336521172E+03 -0.25458801978E+02  0.88996179758E+03  0.00000000000E+00 0. -1.
         -4    1    6    6    0  503  0.29039432267E+02 -0.32513182899E+03  0.44156286584E+02  0.32939910821E+03  0.00000000000E+00 0.  1.
<mgrwt>
<rscale>  0 0.28123118E+04</rscale>
<asrwt>0</asrwt>
<pdfrwt beam="1">  1        1 0.27786529E+00 0.28123118E+04</pdfrwt>
<pdfrwt beam="2">  1       -1 0.16842475E+00 0.28123118E+04</pdfrwt>
<totfact> 0.88196538E-01</totfact>
</mgrwt>
</event>
<event>
12    2  0.8147979E-008  0.1507946E+04  0.7818608E-02  0.8879186E-01
          3   -1    0    0  501    0  0.00000000000E+00  0.00000000000E+00  0.40570391674E+03  0.40570391674E+03  0.00000000000E+00 0. -1.
         -3   -1    0    0    0  501 -0.00000000000E+00 -0.00000000000E+00 -0.14012079383E+04  0.14012079383E+04  0.00000000000E+00 0.  1.
         23    2    1    2    0    0  0.35784125789E+03  0.25928133574E+03 -0.54109473944E+03  0.70342151898E+03  0.82104442060E+02 0.  0.
        254    2    1    2    0    0 -0.35784125789E+03 -0.25928133574E+03 -0.45440928213E+03  0.11034903361E+04  0.90328619452E+03 0.  0.
         23    2    4    4    0    0  0.11695764835E+03 -0.43015066471E+03 -0.65094092668E+02  0.45944608278E+03  0.90248413980E+02 0.  0.
         23    2    4    4    0    0 -0.47479890624E+03  0.17086932896E+03 -0.38931518946E+03  0.64404425330E+03  0.92716527724E+02 0.  0.
          1    1    3    3  502    0  0.16937717024E+03  0.12327327886E+03 -0.19281819994E+03  0.28471702673E+03  0.00000000000E+00 0. -1.
         -1    1    3    3    0  502  0.18846408764E+03  0.13600805689E+03 -0.34827653949E+03  0.41870449225E+03  0.00000000000E+00 0.  1.
         11    1    5    5    0    0  0.73346266653E+02 -0.12283679342E+03 -0.37055998729E+02  0.14778937611E+03  0.00000000000E+00 0. -1.
        -11    1    5    5    0    0  0.43611381694E+02 -0.30731387129E+03 -0.28038093940E+02  0.31165670667E+03  0.00000000000E+00 0.  1.
          3    1    6    6  503    0 -0.26303900163E+03  0.52161410374E+02 -0.17496117836E+03  0.32019016700E+03  0.00000000000E+00 0. -1.
         -3    1    6    6    0  503 -0.21175990461E+03  0.11870791859E+03 -0.21435401110E+03  0.32385408630E+03  0.00000000000E+00 0.  1.
<mgrwt>
<rscale>  0 0.15079464E+04</rscale>
<asrwt>0</asrwt>
<pdfrwt beam="1">  1        3 0.62415986E-01 0.15079464E+04</pdfrwt>
<pdfrwt beam="2">  1       -3 0.21557046E+00 0.15079464E+04</pdfrwt>
<totfact> 0.74041342E-01</totfact>
</mgrwt>
</event>
<event>
12    2  0.8147979E-008  0.1941054E+04  0.7818608E-02  0.8634687E-01
          1   -1    0    0  501    0  0.00000000000E+00  0.00000000000E+00  0.18594104341E+04  0.18594104341E+04  0.00000000000E+00 0. -1.
         -1   -1    0    0    0  501 -0.00000000000E+00 -0.00000000000E+00 -0.50657069138E+03  0.50657069138E+03  0.00000000000E+00 0.  1.
         23    2    1    2    0    0  0.37165976200E+03  0.42591865713E+03 -0.84697044982E+02  0.57869598665E+03  0.90431047495E+02 0.  0.
        254    2    1    2    0    0 -0.37165976200E+03 -0.42591865713E+03  0.14375367877E+04  0.17872851388E+04  0.89907645407E+03 0.  0.
         23    2    4    4    0    0  0.20684189015E+03 -0.31552643540E+03  0.91728876677E+03  0.99620444267E+03  0.93081206432E+02 0.  0.
         23    2    4    4    0    0 -0.57850165215E+03 -0.11039222174E+03  0.52024802088E+03  0.79108069611E+03  0.91104667077E+02 0.  0.
          1    1    3    3  502    0  0.40863669220E+02  0.76161247598E+02  0.13196248513E+02  0.87432923276E+02  0.00000000000E+00 0. -1.
         -1    1    3    3    0  502  0.33079609278E+03  0.34975740954E+03 -0.97893293495E+02  0.49126306337E+03  0.00000000000E+00 0.  1.
         11    1    5    5    0    0  0.22688752592E+02 -0.49859985618E+01  0.27746281923E+02  0.36186956716E+02  0.00000000000E+00 0.  1.
        -11    1    5    5    0    0  0.18415313756E+03 -0.31054043684E+03  0.88954248485E+03  0.96001748595E+03  0.00000000000E+00 0. -1.
          2    1    6    6  503    0 -0.51027428979E+03 -0.66081050630E+02  0.45291036524E+03  0.68547381789E+03  0.00000000000E+00 0. -1.
         -2    1    6    6    0  503 -0.68227362368E+02 -0.44311171107E+02  0.67337655643E+02  0.10560687822E+03  0.00000000000E+00 0.  1.
<mgrwt>
<rscale>  0 0.19410542E+04</rscale>
<asrwt>0</asrwt>
<pdfrwt beam="1">  1        1 0.28606314E+00 0.19410542E+04</pdfrwt>
<pdfrwt beam="2">  1       -1 0.77933953E-01 0.19410542E+04</pdfrwt>
<totfact> 0.57073551E+00</totfact>
</mgrwt>
</event>
<event>
12    2  0.8147979E-008  0.3427523E+04  0.7818608E-02  0.8131184E-01
          1   -1    0    0  501    0  0.00000000000E+00  0.00000000000E+00  0.24492514757E+04  0.24492514757E+04  0.00000000000E+00 0. -1.
         -1   -1    0    0    0  501 -0.00000000000E+00 -0.00000000000E+00 -0.11991331589E+04  0.11991331589E+04  0.00000000000E+00 0.  1.
         23    2    1    2    0    0  0.10045352709E+04 -0.10990153059E+04 -0.23704194463E+02  0.14919178140E+04  0.91274978346E+02 0.  0.
        254    2    1    2    0    0 -0.10045352709E+04  0.10990153059E+04  0.12738225112E+04  0.21564668206E+04  0.90044411557E+03 0.  0.
         23    2    4    4    0    0 -0.83611033658E+03  0.49527070674E+03  0.35091502812E+03  0.10372027841E+04  0.90965325778E+02 0.  0.
         23    2    4    4    0    0 -0.16842493430E+03  0.60374459920E+03  0.92290748310E+03  0.11192640365E+04  0.90106945086E+02 0.  0.
          3    1    3    3  502    0  0.68580057074E+03 -0.80764015798E+03 -0.31549324471E+02  0.10600001922E+04  0.00000000000E+00 0. -1.
         -3    1    3    3    0  502  0.31873470014E+03 -0.29137514796E+03  0.78451300080E+01  0.43191762176E+03  0.00000000000E+00 0.  1.
         11    1    5    5    0    0 -0.15472611189E+03  0.64869743589E+02  0.33922575683E+02  0.17116949049E+03  0.00000000000E+00 0. -1.
        -11    1    5    5    0    0 -0.68138422469E+03  0.43040096315E+03  0.31699245244E+03  0.86603329361E+03  0.00000000000E+00 0.  1.
          3    1    6    6  503    0 -0.52847869461E+02  0.25952535452E+03  0.31917703421E+03  0.41475328343E+03  0.00000000000E+00 0. -1.
         -3    1    6    6    0  503 -0.11557706484E+03  0.34421924468E+03  0.60373044888E+03  0.70451075310E+03  0.00000000000E+00 0.  1.
<mgrwt>
<rscale>  0 0.34275231E+04</rscale>
<asrwt>0</asrwt>
<pdfrwt beam="1">  1        1 0.37680792E+00 0.34275231E+04</pdfrwt>
<pdfrwt beam="2">  1       -1 0.18448203E+00 0.34275231E+04</pdfrwt>
<totfact> 0.23304453E-01</totfact>
</mgrwt>
</event>
<event>
12    2  0.8147979E-008  0.2742123E+04  0.7818608E-02  0.8321465E-01
         -1   -1    0    0    0  501 -0.00000000000E+00  0.00000000000E+00  0.78234308260E+03  0.78234308260E+03  0.00000000000E+00 0.  1.
          1   -1    0    0  501    0  0.00000000000E+00 -0.00000000000E+00 -0.24027952601E+04  0.24027952601E+04  0.00000000000E+00 0. -1.
         23    2    1    2    0    0  0.88467007774E+03  0.84204848201E+03 -0.69400989336E+03  0.14077509578E+04  0.91794523607E+02 0.  0.
        254    2    1    2    0    0 -0.88467007774E+03 -0.84204848201E+03 -0.92644228419E+03  0.17773873850E+04  0.89951310039E+03 0.  0.
         23    2    4    4    0    0 -0.91793181068E+03 -0.34590133302E+03 -0.76144499563E+03  0.12451516299E+04  0.91419685552E+02 0.  0.
         23    2    4    4    0    0  0.33261732938E+02 -0.49614714898E+03 -0.16499728856E+03  0.53223575503E+03  0.93714766057E+02 0.  0.
          4    1    3    3  502    0  0.77580365116E+03  0.69461603059E+03 -0.59897890750E+03  0.12013069827E+04  0.00000000000E+00 0.  1.
         -4    1    3    3    0  502  0.10886642659E+03  0.14743245141E+03 -0.95030985867E+02  0.20644397507E+03  0.00000000000E+00 0. -1.
         11    1    5    5    0    0 -0.82347143994E+03 -0.33250933661E+03 -0.66468623435E+03  0.11092679845E+04  0.00000000000E+00 0. -1.
        -11    1    5    5    0    0 -0.94460370743E+02 -0.13391996412E+02 -0.96758761271E+02  0.13588364542E+03  0.00000000000E+00 0.  1.
          3    1    6    6  503    0 -0.14805848926E+02 -0.37326899290E+03 -0.11138811974E+03  0.38981568394E+03  0.00000000000E+00 0. -1.
         -3    1    6    6    0  503  0.48067581864E+02 -0.12287815608E+03 -0.53609168822E+02  0.14242007109E+03  0.00000000000E+00 0.  1.
<mgrwt>
<rscale>  0 0.27421234E+04</rscale>
<asrwt>0</asrwt>
<pdfrwt beam="1">  1        1 0.36966080E+00 0.27421234E+04</pdfrwt>
<pdfrwt beam="2">  1       -1 0.12036048E+00 0.27421234E+04</pdfrwt>
<totfact> 0.84533129E-01</totfact>
</mgrwt>
</event>
<event>
12    2  0.8147979E-008  0.1376706E+04  0.7818608E-02  0.8970855E-01
         -1   -1    0    0    0  501 -0.00000000000E+00  0.00000000000E+00  0.98834347583E+03  0.98834347583E+03  0.00000000000E+00 0.  1.
          1   -1    0    0  501    0  0.00000000000E+00 -0.00000000000E+00 -0.47941796814E+03  0.47941796814E+03  0.00000000000E+00 0. -1.
         23    2    1    2    0    0 -0.31018173865E+03  0.55049999708E+01  0.37782217462E+03  0.49714473036E+03  0.90334219809E+02 0.  0.
        254    2    1    2    0    0  0.31018173865E+03 -0.55049999708E+01  0.13110333306E+03  0.97061671362E+03  0.91031077374E+03 0.  0.
         23    2    4    4    0    0  0.54815765439E+03  0.28200696269E+01 -0.16501899229E+03  0.57941463910E+03  0.89472282458E+02 0.  0.
         23    2    4    4    0    0 -0.23797591573E+03 -0.83250695977E+01  0.29612232536E+03  0.39120207452E+03  0.92998861708E+02 0.  0.
          3    1    3    3  502    0 -0.12799925489E+03 -0.27030232613E+02  0.10636691516E+03  0.16860712728E+03  0.00000000000E+00 0. -1.
         -3    1    3    3    0  502 -0.18218248376E+03  0.32535232584E+02  0.27145525946E+03  0.32853760308E+03  0.00000000000E+00 0.  1.
         11    1    5    5    0    0  0.25895527051E+03  0.20496281027E+02 -0.36009297443E+02  0.26224911661E+03  0.00000000000E+00 0. -1.
        -11    1    5    5    0    0  0.28920238388E+03 -0.17676211400E+02 -0.12900969485E+03  0.31716552249E+03  0.00000000000E+00 0.  1.
          3    1    6    6  503    0 -0.18222952412E+03  0.32397057029E+02  0.19593212390E+03  0.26953026906E+03  0.00000000000E+00 0. -1.
         -3    1    6    6    0  503 -0.55746391618E+02 -0.40722126627E+02  0.10019020145E+03  0.12167180545E+03  0.00000000000E+00 0.  1.
<mgrwt>
<rscale>  0 0.13767057E+04</rscale>
<asrwt>0</asrwt>
<pdfrwt beam="1">  1        1 0.73756611E-01 0.13767057E+04</pdfrwt>
<pdfrwt beam="2">  1       -1 0.15205284E+00 0.13767057E+04</pdfrwt>
<totfact> 0.15428718E+01</totfact>
</mgrwt>
</event>
<event>
12    2  0.8147979E-008  0.2658793E+04  0.7818608E-02  0.8348500E-01
         -2   -1    0    0    0  501 -0.00000000000E+00  0.00000000000E+00  0.17273553972E+04  0.17273553972E+04  0.00000000000E+00 0. -1.
          2   -1    0    0  501    0  0.00000000000E+00 -0.00000000000E+00 -0.10231220909E+04  0.10231220909E+04  0.00000000000E+00 0.  1.
         23    2    1    2    0    0 -0.17127674678E+03  0.80804326696E+03  0.11784486764E+04  0.14419237035E+04  0.90183360109E+02 0.  0.
        254    2    1    2    0    0  0.17127674678E+03 -0.80804326696E+03 -0.47421537013E+03  0.13085537846E+04  0.89730883461E+03 0.  0.
         23    2    4    4    0    0 -0.22718418927E+03 -0.22450357345E+03  0.14802423267E+03  0.36352615697E+03  0.90694999864E+02 0.  0.
         23    2    4    4    0    0  0.39846093604E+03 -0.58353969351E+03 -0.62223960280E+03  0.94502762763E+03  0.81273625791E+02 0.  0.
          3    1    3    3  502    0 -0.11544129955E+03  0.67933828092E+03  0.10105371475E+04  0.12231159062E+04  0.00000000000E+00 0. -1.
         -3    1    3    3    0  502 -0.55835447225E+02  0.12870498604E+03  0.16791152889E+03  0.21880779724E+03  0.00000000000E+00 0.  1.
         11    1    5    5    0    0 -0.40775963004E+02 -0.95054409482E+02  0.63392495462E+02  0.12131211152E+03  0.00000000000E+00 0. -1.
        -11    1    5    5    0    0 -0.18640822626E+03 -0.12944916396E+03  0.84631737207E+02  0.24221404545E+03  0.00000000000E+00 0.  1.
          1    1    6    6  503    0  0.90122201791E+02 -0.15366367313E+03 -0.11446799322E+03  0.21174857064E+03  0.00000000000E+00 0. -1.
         -1    1    6    6    0  503  0.30833873425E+03 -0.42987602039E+03 -0.50777160958E+03  0.73327905700E+03  0.00000000000E+00 0.  1.
<mgrwt>
<rscale>  0 0.26587933E+04</rscale>
<asrwt>0</asrwt>
<pdfrwt beam="1">  1        2 0.15740340E+00 0.26587933E+04</pdfrwt>
<pdfrwt beam="2">  1       -2 0.26574698E+00 0.26587933E+04</pdfrwt>
<totfact> 0.11026358E+00</totfact>
</mgrwt>
</event>
<event>
12    2  0.8147979E-008  0.1292736E+04  0.7818608E-02  0.9035345E-01
         -2   -1    0    0    0  501 -0.00000000000E+00  0.00000000000E+00  0.14091822319E+03  0.14091822319E+03  0.00000000000E+00 0. -1.
          2   -1    0    0  501    0  0.00000000000E+00 -0.00000000000E+00 -0.29647814865E+04  0.29647814865E+04  0.00000000000E+00 0.  1.
         23    2    1    2    0    0 -0.10605947745E+03  0.10113706393E+03 -0.13859843244E+04  0.13967660336E+04  0.92333562177E+02 0.  0.
        254    2    1    2    0    0  0.10605947745E+03 -0.10113706393E+03 -0.14378789390E+04  0.17089336761E+04  0.91185588105E+03 0.  0.
         23    2    4    4    0    0  0.70966070476E+02  0.28364105201E+03 -0.11430185144E+03  0.32698865787E+03  0.91478082540E+02 0.  0.
         23    2    4    4    0    0  0.35093406976E+02 -0.38477811594E+03 -0.13235770875E+04  0.13819450182E+04  0.92897691790E+02 0.  0.
          3    1    3    3  502    0  0.53309701852E+01 -0.54107472275E+01 -0.12271632134E+02  0.14432199552E+02  0.00000000000E+00 0. -1.
         -3    1    3    3    0  502 -0.11139044764E+03  0.10654781115E+03 -0.13737126922E+04  0.13823338340E+04  0.00000000000E+00 0.  1.
         11    1    5    5    0    0  0.38198185639E+01  0.18535584089E+03 -0.51549965613E+02  0.19242863020E+03  0.00000000000E+00 0.  1.
        -11    1    5    5    0    0  0.67146251912E+02  0.98285211127E+02 -0.62751885822E+02  0.13456002767E+03  0.00000000000E+00 0. -1.
          1    1    6    6  503    0  0.11617839139E+02 -0.36631016275E+03 -0.12472724585E+04  0.13000025751E+04  0.00000000000E+00 0. -1.
         -1    1    6    6    0  503  0.23475567837E+02 -0.18467953188E+02 -0.76304628991E+02  0.81942443128E+02  0.00000000000E+00 0.  1.
<mgrwt>
<rscale>  0 0.12927362E+04</rscale>
<asrwt>0</asrwt>
<pdfrwt beam="1">  1        2 0.45612025E+00 0.12927362E+04</pdfrwt>
<pdfrwt beam="2">  1       -2 0.21679726E-01 0.12927362E+04</pdfrwt>
<totfact> 0.33660863E+01</totfact>
</mgrwt>
</event>
<event>
12    2  0.8147979E-008  0.1822052E+04  0.7818608E-02  0.8694659E-01
         -2   -1    0    0    0  501 -0.00000000000E+00  0.00000000000E+00  0.57721945633E+03  0.57721945633E+03  0.00000000000E+00 0.  1.
          2   -1    0    0  501    0  0.00000000000E+00 -0.00000000000E+00 -0.14378738496E+04  0.14378738496E+04  0.00000000000E+00 0. -1.
         23    2    1    2    0    0  0.14023061931E+03  0.55686410566E+03 -0.73874837527E+03  0.94007706969E+03  0.90738504634E+02 0.  0.
        254    2    1    2    0    0 -0.14023061931E+03 -0.55686410566E+03 -0.12190601801E+03  0.10750162362E+04  0.90057568932E+03 0.  0.
         23    2    4    4    0    0  0.19387755665E+03 -0.45408798070E+02  0.26750369975E+03  0.34496482776E+03  0.88272516074E+02 0.  0.
         23    2    4    4    0    0 -0.33410817596E+03 -0.51145530759E+03 -0.38940971776E+03  0.73005140849E+03  0.90112850637E+02 0.  0.
          4    1    3    3  502    0  0.20867722542E+01  0.11988163167E+03 -0.19544342528E+03  0.22929041130E+03  0.00000000000E+00 0. -1.
         -4    1    3    3    0  502  0.13814384705E+03  0.43698247399E+03 -0.54330494999E+03  0.71078665838E+03  0.00000000000E+00 0.  1.
         11    1    5    5    0    0  0.21493343980E+02 -0.30523784746E+02  0.88277005325E+02  0.95846204618E+02  0.00000000000E+00 0.  1.
        -11    1    5    5    0    0  0.17238421267E+03 -0.14885013324E+02  0.17922669443E+03  0.24911862314E+03  0.00000000000E+00 0. -1.
          3    1    6    6  503    0 -0.48741231541E+02 -0.55498312021E+02 -0.16928449282E+02  0.75778246776E+02  0.00000000000E+00 0. -1.
         -3    1    6    6    0  503 -0.28536694442E+03 -0.45595699557E+03 -0.37248126847E+03  0.65427316171E+03  0.00000000000E+00 0.  1.
<mgrwt>
<rscale>  0 0.18220524E+04</rscale>
<asrwt>0</asrwt>
<pdfrwt beam="1">  1        2 0.22121136E+00 0.18220524E+04</pdfrwt>
<pdfrwt beam="2">  1       -2 0.88802995E-01 0.18220524E+04</pdfrwt>
<totfact> 0.14142304E+01</totfact>
</mgrwt>
</event>
<event>
12    2  0.8147979E-008  0.2871145E+04  0.7818608E-02  0.8281515E-01
         -2   -1    0    0    0  501 -0.00000000000E+00  0.00000000000E+00  0.10151386398E+04  0.10151386398E+04  0.00000000000E+00 0.  1.
          2   -1    0    0  501    0  0.00000000000E+00 -0.00000000000E+00 -0.20301350847E+04  0.20301350847E+04  0.00000000000E+00 0. -1.
         23    2    1    2    0    0  0.66615232089E+03  0.10046534539E+04 -0.95409245345E+03  0.15399037527E+04  0.89015058778E+02 0.  0.
        254    2    1    2    0    0 -0.66615232089E+03 -0.10046534539E+04 -0.60903991442E+02  0.15053699718E+04  0.89963435836E+03 0.  0.
         23    2    4    4    0    0 -0.57970602066E+03 -0.87670592188E+03 -0.39483942918E+03  0.11260968581E+04  0.86738774794E+02 0.  0.
         23    2    4    4    0    0 -0.86446300227E+02 -0.12794753206E+03  0.33393543774E+03  0.37927311376E+03  0.92150336190E+02 0.  0.
          4    1    3    3  502    0  0.28432562604E+03  0.47926090057E+03 -0.48468837574E+03  0.73854918185E+03  0.00000000000E+00 0. -1.
         -4    1    3    3    0  502  0.38182669485E+03  0.52539255336E+03 -0.46940407771E+03  0.80135457083E+03  0.00000000000E+00 0.  1.
         11    1    5    5    0    0 -0.53956309279E+03 -0.76911704200E+03 -0.34384095836E+03  0.10004478797E+04  0.00000000000E+00 0. -1.
        -11    1    5    5    0    0 -0.40142927872E+02 -0.10758887988E+03 -0.50998470818E+02  0.12564897834E+03  0.00000000000E+00 0.  1.
          1    1    6    6  503    0 -0.73800206752E+02 -0.12306199239E+03  0.33618707876E+03  0.36553040422E+03  0.00000000000E+00 0. -1.
         -1    1    6    6    0  503 -0.12646093475E+02 -0.48855396651E+01 -0.22516410223E+01  0.13742709532E+02  0.00000000000E+00 0.  1.
<mgrwt>
<rscale>  0 0.28711451E+04</rscale>
<asrwt>0</asrwt>
<pdfrwt beam="1">  1        2 0.31232848E+00 0.28711451E+04</pdfrwt>
<pdfrwt beam="2">  1       -2 0.15617518E+00 0.28711451E+04</pdfrwt>
<totfact> 0.14958967E+00</totfact>
</mgrwt>
</event>
<event>
12    2  0.8147979E-008  0.2105236E+04  0.7818608E-02  0.8558941E-01
         -2   -1    0    0    0  501 -0.00000000000E+00  0.00000000000E+00  0.20901992865E+04  0.20901992865E+04  0.00000000000E+00 0.  1.
          2   -1    0    0  501    0  0.00000000000E+00 -0.00000000000E+00 -0.53009501836E+03  0.53009501836E+03  0.00000000000E+00 0. -1.
         23    2    1    2    0    0 -0.51151224755E+03 -0.64699577616E+03  0.34804532821E+03  0.90076378320E+03  0.99957635431E+02 0.  0.
        254    2    1    2    0    0  0.51151224755E+03  0.64699577616E+03  0.12120589400E+04  0.17195305217E+04  0.89858223180E+03 0.  0.
         23    2    4    4    0    0  0.51715398691E+03  0.22514848034E+03  0.17730313218E+03  0.59802607375E+03  0.89770261374E+02 0.  0.
         23    2    4    4    0    0 -0.56417393529E+01  0.42184729582E+03  0.10347558078E+04  0.11215044479E+04  0.95213837250E+02 0.  0.
          3    1    3    3  502    0 -0.38192402630E+03 -0.53509093782E+03  0.24916806686E+03  0.70304551713E+03  0.00000000000E+00 0. -1.
         -3    1    3    3    0  502 -0.12958822125E+03 -0.11190483834E+03  0.98877261344E+02  0.19771826608E+03  0.00000000000E+00 0.  1.
         11    1    5    5    0    0  0.51848399130E+03  0.22880279445E+03  0.17811188169E+03  0.59405404668E+03  0.00000000000E+00 0. -1.
        -11    1    5    5    0    0 -0.13300043948E+01 -0.36543141023E+01 -0.80874950535E+00  0.39720270657E+01  0.00000000000E+00 0.  1.
          1    1    6    6  503    0  0.35076169593E+02  0.29985260386E+03  0.67451464316E+03  0.73899386029E+03  0.00000000000E+00 0.  1.
         -1    1    6    6    0  503 -0.40717908946E+02  0.12199469196E+03  0.36024116462E+03  0.38251058765E+03  0.00000000000E+00 0. -1.
<mgrwt>
<rscale>  0 0.21052356E+04</rscale>
<asrwt>0</asrwt>
<pdfrwt beam="1">  1        2 0.81553081E-01 0.21052356E+04</pdfrwt>
<pdfrwt beam="2">  1       -2 0.32156912E+00 0.21052356E+04</pdfrwt>
<totfact> 0.12418873E+00</totfact>
</mgrwt>
</event>
<event>
12    2  0.8147979E-008  0.1389298E+04  0.7818608E-02  0.8961602E-01
         -1   -1    0    0    0  501 -0.00000000000E+00  0.00000000000E+00  0.46259491989E+03  0.46259491989E+03  0.00000000000E+00 0.  1.
          1   -1    0    0  501    0  0.00000000000E+00 -0.00000000000E+00 -0.10431095986E+04  0.10431095986E+04  0.00000000000E+00 0. -1.
         23    2    1    2    0    0 -0.15763808540E+03 -0.14714604804E+03 -0.53109313395E+03  0.58012265792E+03  0.89334516684E+02 0.  0.
        254    2    1    2    0    0  0.15763808540E+03  0.14714604804E+03 -0.49421544744E+02  0.92558186056E+03  0.89875333996E+03 0.  0.
         23    2    4    4    0    0  0.33656744385E+03 -0.18319317044E+03  0.22317181064E+03  0.45283280923E+03  0.91730660604E+02 0.  0.
         23    2    4    4    0    0 -0.17892935845E+03  0.33033921848E+03 -0.27259335539E+03  0.47274905133E+03  0.89692884599E+02 0.  0.
          2    1    3    3  502    0 -0.75324842960E+02 -0.46033257054E+02 -0.32050632698E+03  0.33244127054E+03  0.00000000000E+00 0. -1.
         -2    1    3    3    0  502 -0.82313242438E+02 -0.10111279099E+03 -0.21058680697E+03  0.24768138738E+03  0.00000000000E+00 0.  1.
         11    1    5    5    0    0  0.22006079244E+03 -0.16715262735E+03  0.16041449325E+03  0.31953022211E+03  0.00000000000E+00 0.  1.
        -11    1    5    5    0    0  0.11650665142E+03 -0.16040543087E+02  0.62757317398E+02  0.13330258712E+03  0.00000000000E+00 0. -1.
          4    1    6    6  503    0 -0.12647825239E+03  0.14732723836E+03 -0.15974142306E+03  0.25143465500E+03  0.00000000000E+00 0. -1.
         -4    1    6    6    0  503 -0.52451106060E+02  0.18301198012E+03 -0.11285193232E+03  0.22131439633E+03  0.00000000000E+00 0.  1.
<mgrwt>
<rscale>  0 0.13892980E+04</rscale>
<asrwt>0</asrwt>
<pdfrwt beam="1">  1        1 0.16047840E+00 0.13892980E+04</pdfrwt>
<pdfrwt beam="2">  1       -1 0.71168451E-01 0.13892980E+04</pdfrwt>
<totfact> 0.27264093E+01</totfact>
</mgrwt>
</event>
<event>
12    2  0.8147979E-008  0.1795705E+04  0.7818608E-02  0.8708587E-01
         -1   -1    0    0    0  501 -0.00000000000E+00  0.00000000000E+00  0.68230195528E+03  0.68230195528E+03  0.00000000000E+00 0.  1.
          1   -1    0    0  501    0  0.00000000000E+00 -0.00000000000E+00 -0.11814989644E+04  0.11814989644E+04  0.00000000000E+00 0. -1.
         23    2    1    2    0    0 -0.17600440316E+03 -0.39338444461E+02  0.48075243891E+03  0.52162491424E+03  0.91894398611E+02 0.  0.
        254    2    1    2    0    0  0.17600440316E+03  0.39338444461E+02 -0.97994944799E+03  0.13421760054E+04  0.89922769402E+03 0.  0.
         23    2    4    4    0    0  0.47835403431E+03  0.12558555119E+03 -0.85519951817E+03  0.99212055405E+03  0.91338190738E+02 0.  0.
         23    2    4    4    0    0 -0.30234963115E+03 -0.86247106727E+02 -0.12474992982E+03  0.35005545134E+03  0.90124420378E+02 0.  0.
          2    1    3    3  502    0 -0.88957104551E+02  0.25844638854E+02  0.24748894704E+03  0.26425762187E+03  0.00000000000E+00 0.  1.
         -2    1    3    3    0  502 -0.87047298607E+02 -0.65183083315E+02  0.23326349187E+03  0.25736729237E+03  0.00000000000E+00 0. -1.
         11    1    5    5    0    0  0.16487668272E+03  0.44014632347E+02 -0.21366225401E+03  0.27344682692E+03  0.00000000000E+00 0.  1.
        -11    1    5    5    0    0  0.31347735159E+03  0.81570918842E+02 -0.64153726416E+03  0.71867372713E+03  0.00000000000E+00 0. -1.
          1    1    6    6  503    0 -0.27897342204E+03 -0.54013187229E+02 -0.92547816425E+02  0.29884560048E+03  0.00000000000E+00 0. -1.
         -1    1    6    6    0  503 -0.23376209111E+02 -0.32233919498E+02 -0.32202113394E+02  0.51209850866E+02  0.00000000000E+00 0.  1.
<mgrwt>
<rscale>  0 0.17957049E+04</rscale>
<asrwt>0</asrwt>
<pdfrwt beam="1">  1        1 0.18176907E+00 0.17957049E+04</pdfrwt>
<pdfrwt beam="2">  1       -1 0.10496953E+00 0.17957049E+04</pdfrwt>
<totfact> 0.88673211E+00</totfact>
</mgrwt>
</event>
<event>
12    2  0.8147979E-008  0.1355767E+04  0.7818608E-02  0.8986474E-01
          1   -1    0    0  501    0  0.00000000000E+00  0.00000000000E+00  0.73135611031E+03  0.73135611031E+03  0.00000000000E+00 0. -1.
         -1   -1    0    0    0  501 -0.00000000000E+00 -0.00000000000E+00 -0.62832070996E+03  0.62832070996E+03  0.00000000000E+00 0.  1.
         23    2    1    2    0    0  0.28899214608E+03  0.40550155849E+02  0.26207808066E+03  0.40213458351E+03  0.88693445418E+02 0.  0.
        254    2    1    2    0    0 -0.28899214608E+03 -0.40550155849E+02 -0.15904268031E+03  0.95754223676E+03  0.89801547057E+03 0.  0.
         23    2    4    4    0    0  0.14513431187E+03 -0.35891927559E+03 -0.68729902146E+02  0.40323291563E+03  0.89364254224E+02 0.  0.
         23    2    4    4    0    0 -0.43412645795E+03  0.31836911974E+03 -0.90312778165E+02  0.55430932113E+03  0.96321065719E+02 0.  0.
          1    1    3    3  502    0  0.15548990705E+03 -0.16124509001E+02  0.16680666287E+03  0.22860790398E+03  0.00000000000E+00 0. -1.
         -1    1    3    3    0  502  0.13350223903E+03  0.56674664849E+02  0.95271417789E+02  0.17352667953E+03  0.00000000000E+00 0.  1.
         11    1    5    5    0    0  0.13843631234E+03 -0.23203597740E+03 -0.50455017649E+02  0.27486545107E+03  0.00000000000E+00 0. -1.
        -11    1    5    5    0    0  0.66979995206E+01 -0.12688329818E+03 -0.18274884496E+02  0.12836746457E+03  0.00000000000E+00 0.  1.
          1    1    6    6  503    0 -0.32974062153E+03  0.18730425920E+03 -0.57205806495E+02  0.38351566760E+03  0.00000000000E+00 0. -1.
         -1    1    6    6    0  503 -0.10438583642E+03  0.13106486054E+03 -0.33106971670E+02  0.17079365353E+03  0.00000000000E+00 0.  1.
<mgrwt>
<rscale>  0 0.13557672E+04</rscale>
<asrwt>0</asrwt>
<pdfrwt beam="1">  1        1 0.11251633E+00 0.13557672E+04</pdfrwt>
<pdfrwt beam="2">  1       -1 0.96664724E-01 0.13557672E+04</pdfrwt>
<totfact> 0.25670524E+01</totfact>
</mgrwt>
</event>
<event>
12    2  0.8147979E-008  0.4309085E+04  0.7818608E-02  0.7944940E-01
          1   -1    0    0  501    0  0.00000000000E+00  0.00000000000E+00  0.23303690888E+04  0.23303690888E+04  0.00000000000E+00 0. -1.
         -1   -1    0    0    0  501 -0.00000000000E+00 -0.00000000000E+00 -0.19919817344E+04  0.19919817344E+04  0.00000000000E+00 0.  1.
         23    2    1    2    0    0  0.20394341609E+04 -0.28633283802E+03  0.17895266833E+03  0.20693633605E+04  0.94670320035E+02 0.  0.
        254    2    1    2    0    0 -0.20394341609E+04  0.28633283802E+03  0.15943468599E+03  0.22529874627E+04  0.89958595895E+03 0.  0.
         23    2    4    4    0    0 -0.11576323017E+04  0.58016411197E+03 -0.35569261272E+02  0.12982128286E+04  0.85955995406E+02 0.  0.
         23    2    4    4    0    0 -0.88180185914E+03 -0.29383127394E+03  0.19500394726E+03  0.95477463415E+03  0.98268643265E+02 0.  0.
          3    1    3    3  502    0  0.74849957319E+03 -0.14752249098E+03  0.84288160016E+02  0.76754087209E+03  0.00000000000E+00 0. -1.
         -3    1    3    3    0  502  0.12909345877E+04 -0.13881034705E+03  0.94664508309E+02  0.13018224884E+04  0.00000000000E+00 0.  1.
         11    1    5    5    0    0 -0.91048350596E+03  0.43386939318E+03  0.19080046748E+01  0.10085764748E+04  0.00000000000E+00 0. -1.
        -11    1    5    5    0    0 -0.24714879576E+03  0.14629471879E+03 -0.37477265946E+02  0.28963635382E+03  0.00000000000E+00 0.  1.
          1    1    6    6  503    0 -0.84728699852E+03 -0.26308574136E+03  0.19581573208E+03  0.90854453170E+03  0.00000000000E+00 0. -1.
         -1    1    6    6    0  503 -0.34514860623E+02 -0.30745532588E+02 -0.81178482168E+00  0.46230102450E+02  0.00000000000E+00 0.  1.
<mgrwt>
<rscale>  0 0.43090847E+04</rscale>
<asrwt>0</asrwt>
<pdfrwt beam="1">  1        1 0.35851832E+00 0.43090847E+04</pdfrwt>
<pdfrwt beam="2">  1       -1 0.30645873E+00 0.43090847E+04</pdfrwt>
<totfact> 0.40597327E-02</totfact>
</mgrwt>
</event>
<event>
12    2  0.8147979E-008  0.1399954E+04  0.7818608E-02  0.8953852E-01
         -4   -1    0    0    0  501 -0.00000000000E+00  0.00000000000E+00  0.46517409026E+03  0.46517409026E+03  0.00000000000E+00 0.  1.
          4   -1    0    0  501    0  0.00000000000E+00 -0.00000000000E+00 -0.10533003251E+04  0.10533003251E+04  0.00000000000E+00 0. -1.
         23    2    1    2    0    0  0.89418051993E+02  0.36660960352E+02  0.24750881666E+03  0.28133663087E+03  0.92466596719E+02 0.  0.
        254    2    1    2    0    0 -0.89418051993E+02 -0.36660960352E+02 -0.83563505155E+03  0.12371377845E+04  0.90712972859E+03 0.  0.
         23    2    4    4    0    0 -0.29868856026E+03  0.19217265899E+03 -0.83551659267E+03  0.91222589762E+03  0.89010812623E+02 0.  0.
         23    2    4    4    0    0  0.20927050827E+03 -0.22883361934E+03 -0.11845888527E+00  0.32491188692E+03  0.96998707477E+02 0.  0.
          1    1    3    3  502    0  0.10550266502E+03  0.29116541977E+02  0.17279993697E+03  0.20454438042E+03  0.00000000000E+00 0.  1.
         -1    1    3    3    0  502 -0.16084613031E+02  0.75444183749E+01  0.74708879686E+02  0.76792250448E+02  0.00000000000E+00 0. -1.
         11    1    5    5    0    0 -0.19252711591E+03  0.72646122244E+02 -0.44616678089E+03  0.49133384354E+03  0.00000000000E+00 0. -1.
        -11    1    5    5    0    0 -0.10616144435E+03  0.11952653675E+03 -0.38934981177E+03  0.42089205407E+03  0.00000000000E+00 0.  1.
          2    1    6    6  503    0  0.74034833091E+02 -0.25005069093E+02 -0.16077798376E+02  0.79780358434E+02  0.00000000000E+00 0. -1.
         -2    1    6    6    0  503  0.13523567518E+03 -0.20382855025E+03  0.15959339491E+02  0.24513152848E+03  0.00000000000E+00 0.  1.
<mgrwt>
<rscale>  0 0.13999543E+04</rscale>
<asrwt>0</asrwt>
<pdfrwt beam="1">  1        4 0.16204620E+00 0.13999543E+04</pdfrwt>
<pdfrwt beam="2">  1       -4 0.71565246E-01 0.13999543E+04</pdfrwt>
<totfact> 0.83765354E-01</totfact>
</mgrwt>
</event>
<event>
12    2  0.8147979E-008  0.1653313E+04  0.7818608E-02  0.8788449E-01
          1   -1    0    0  501    0  0.00000000000E+00  0.00000000000E+00  0.45829466718E+03  0.45829466718E+03  0.00000000000E+00 0. -1.
         -1   -1    0    0    0  501 -0.00000000000E+00 -0.00000000000E+00 -0.14910955158E+04  0.14910955158E+04  0.00000000000E+00 0.  1.
         23    2    1    2    0    0 -0.54710283384E+03  0.66185345870E+02 -0.16405220944E+03  0.58200600562E+03  0.90088025536E+02 0.  0.
        254    2    1    2    0    0  0.54710283384E+03 -0.66185345870E+02 -0.86874863922E+03  0.13673841774E+04  0.90072930434E+03 0.  0.
         23    2    4    4    0    0  0.72578816533E+03  0.27994958356E+02 -0.36677008821E+03  0.81885700242E+03  0.91947344643E+02 0.  0.
         23    2    4    4    0    0 -0.17868533149E+03 -0.94180304227E+02 -0.50197855101E+03  0.54852717499E+03  0.90006769958E+02 0.  0.
          1    1    3    3  502    0 -0.11771627381E+03 -0.80449461820E+01 -0.48881841993E+01  0.11809206842E+03  0.00000000000E+00 0. -1.
         -1    1    3    3    0  502 -0.42938656003E+03  0.74230292052E+02 -0.15916402524E+03  0.46391393719E+03  0.00000000000E+00 0.  1.
         11    1    5    5    0    0  0.23709036264E+03 -0.29501133678E+02 -0.14148071371E+03  0.27766697552E+03  0.00000000000E+00 0.  1.
        -11    1    5    5    0    0  0.48869780269E+03  0.57496092034E+02 -0.22528937450E+03  0.54119002690E+03  0.00000000000E+00 0. -1.
          3    1    6    6  503    0 -0.14156946352E+03 -0.10549714272E+03 -0.35454476644E+03  0.39607265941E+03  0.00000000000E+00 0. -1.
         -3    1    6    6    0  503 -0.37115867971E+02  0.11316838494E+02 -0.14743378457E+03  0.15245451558E+03  0.00000000000E+00 0.  1.
<mgrwt>
<rscale>  0 0.16533132E+04</rscale>
<asrwt>0</asrwt>
<pdfrwt beam="1">  1        1 0.70506873E-01 0.16533132E+04</pdfrwt>
<pdfrwt beam="2">  1       -1 0.22939931E+00 0.16533132E+04</pdfrwt>
<totfact> 0.45455647E+00</totfact>
</mgrwt>
</event>
<event>
12    2  0.8147979E-008  0.2172730E+04  0.7818608E-02  0.8529865E-01
          2   -1    0    0  501    0  0.00000000000E+00  0.00000000000E+00  0.10411740454E+04  0.10411740454E+04  0.00000000000E+00 0. -1.
         -2   -1    0    0    0  501 -0.00000000000E+00 -0.00000000000E+00 -0.11335177867E+04  0.11335177867E+04  0.00000000000E+00 0.  1.
         23    2    1    2    0    0  0.83006410065E+03  0.49237006933E+02  0.29789058572E+03  0.88819411577E+03  0.93377150274E+02 0.  0.
        254    2    1    2    0    0 -0.83006410065E+03 -0.49237006933E+02 -0.39023432700E+03  0.12864977164E+04  0.90075682080E+03 0.  0.
         23    2    4    4    0    0 -0.95972474819E+03  0.11056467712E+03 -0.19874291068E+03  0.99126153728E+03  0.99017930793E+02 0.  0.
         23    2    4    4    0    0  0.12966064754E+03 -0.15980168406E+03 -0.19149141631E+03  0.29523617909E+03  0.90260606979E+02 0.  0.
          4    1    3    3  502    0  0.65446564831E+03  0.15084723096E+02  0.26533137728E+03  0.70636645833E+03  0.00000000000E+00 0. -1.
         -4    1    3    3    0  502  0.17559845234E+03  0.34152283837E+02  0.32559208436E+02  0.18182765744E+03  0.00000000000E+00 0.  1.
         11    1    5    5    0    0 -0.79361822942E+03  0.10003108810E+03 -0.12658031152E+03  0.80985102823E+03  0.00000000000E+00 0.  1.
        -11    1    5    5    0    0 -0.16610651877E+03  0.10533589022E+02 -0.72162599162E+02  0.18141050905E+03  0.00000000000E+00 0. -1.
          4    1    6    6  503    0  0.18994349310E+02 -0.24980254671E+02  0.57823636367E+01  0.31909781547E+02  0.00000000000E+00 0. -1.
         -4    1    6    6    0  503  0.11066629823E+03 -0.13482142938E+03 -0.19727377995E+03  0.26332639754E+03  0.00000000000E+00 0.  1.
<mgrwt>
<rscale>  0 0.21727304E+04</rscale>
<asrwt>0</asrwt>
<pdfrwt beam="1">  1        2 0.16018062E+00 0.21727304E+04</pdfrwt>
<pdfrwt beam="2">  1       -2 0.17438735E+00 0.21727304E+04</pdfrwt>
<totfact> 0.43096304E+00</totfact>
</mgrwt>
</event>
<event>
12    2  0.8147979E-008  0.1799606E+04  0.7818608E-02  0.8706509E-01
         -2   -1    0    0    0  501 -0.00000000000E+00  0.00000000000E+00  0.11596257094E+04  0.11596257094E+04  0.00000000000E+00 0.  1.
          2   -1    0    0  501    0  0.00000000000E+00 -0.00000000000E+00 -0.69819557216E+03  0.69819557216E+03  0.00000000000E+00 0. -1.
         23    2    1    2    0    0  0.41872576462E+03 -0.40012964267E+03 -0.18087890346E+03  0.61279700417E+03  0.85837018277E+02 0.  0.
        254    2    1    2    0    0 -0.41872576462E+03  0.40012964267E+03  0.64230904073E+03  0.12450242774E+04  0.89559452359E+03 0.  0.
         23    2    4    4    0    0 -0.68590019150E+03  0.20627923873E+03  0.40135818791E+03  0.82594598603E+03  0.89934308235E+02 0.  0.
         23    2    4    4    0    0  0.26717442688E+03  0.19385040393E+03  0.24095085282E+03  0.41907829140E+03  0.92785491155E+02 0.  0.
          4    1    3    3  502    0  0.16953563550E+03 -0.10657727575E+03 -0.69201990790E+02  0.21187251578E+03  0.00000000000E+00 0. -1.
         -4    1    3    3    0  502  0.24919012911E+03 -0.29355236691E+03 -0.11167691267E+03  0.40092448839E+03  0.00000000000E+00 0.  1.
         11    1    5    5    0    0 -0.37775845326E+03  0.15673949021E+03  0.24669889660E+03  0.47762858204E+03  0.00000000000E+00 0.  1.
        -11    1    5    5    0    0 -0.30814173824E+03  0.49539748527E+02  0.15465929131E+03  0.34831740399E+03  0.00000000000E+00 0. -1.
          4    1    6    6  503    0  0.82316072566E+01  0.41698515831E+02  0.32127702753E+02  0.53279591447E+02  0.00000000000E+00 0. -1.
         -4    1    6    6    0  503  0.25894281962E+03  0.15215188810E+03  0.20882315006E+03  0.36579869996E+03  0.00000000000E+00 0.  1.
<mgrwt>
<rscale>  0 0.17996061E+04</rscale>
<asrwt>0</asrwt>
<pdfrwt beam="1">  1        2 0.10741470E+00 0.17996061E+04</pdfrwt>
<pdfrwt beam="2">  1       -2 0.17840396E+00 0.17996061E+04</pdfrwt>
<totfact> 0.72136133E+00</totfact>
</mgrwt>
</event>
<event>
12    2  0.8147979E-008  0.2198082E+04  0.7818608E-02  0.8519227E-01
         -1   -1    0    0    0  501 -0.00000000000E+00  0.00000000000E+00  0.71173951661E+03  0.71173951661E+03  0.00000000000E+00 0.  1.
          1   -1    0    0  501    0  0.00000000000E+00 -0.00000000000E+00 -0.16970975186E+04  0.16970975186E+04  0.00000000000E+00 0. -1.
         23    2    1    2    0    0 -0.17498020615E+03 -0.88469153996E+03 -0.55094190460E+03  0.10606930860E+04  0.90750465743E+02 0.  0.
        254    2    1    2    0    0  0.17498020615E+03  0.88469153996E+03 -0.43441609740E+03  0.13481439492E+04  0.90303796636E+03 0.  0.
         23    2    4    4    0    0 -0.32749046059E+03  0.36410327848E+03 -0.36109684611E+03  0.61522571405E+03  0.91052445239E+02 0.  0.
         23    2    4    4    0    0  0.50247066674E+03  0.52058826148E+03 -0.73319251297E+02  0.73291823516E+03  0.91129127590E+02 0.  0.
          1    1    3    3  502    0 -0.10198096769E+03 -0.29669339156E+03 -0.19966869414E+03  0.37187991850E+03  0.00000000000E+00 0. -1.
         -1    1    3    3    0  502 -0.72999238467E+02 -0.58799814840E+03 -0.35127321046E+03  0.68881316750E+03  0.00000000000E+00 0.  1.
         11    1    5    5    0    0 -0.14664380885E+03  0.22950986701E+03 -0.18666170447E+03  0.33018446003E+03  0.00000000000E+00 0. -1.
        -11    1    5    5    0    0 -0.18084665174E+03  0.13459341147E+03 -0.17443514164E+03  0.28504125402E+03  0.00000000000E+00 0.  1.
          3    1    6    6  503    0  0.45207368187E+03  0.44387845846E+03 -0.89076931582E+02  0.63979168442E+03  0.00000000000E+00 0. -1.
         -3    1    6    6    0  503  0.50396984874E+02  0.76709803021E+02  0.15757680284E+02  0.93126550735E+02  0.00000000000E+00 0.  1.
<mgrwt>
<rscale>  0 0.21980822E+04</rscale>
<asrwt>0</asrwt>
<pdfrwt beam="1">  1        1 0.26109192E+00 0.21980822E+04</pdfrwt>
<pdfrwt beam="2">  1       -1 0.10949839E+00 0.21980822E+04</pdfrwt>
<totfact> 0.33678567E+00</totfact>
</mgrwt>
</event>
<event>
12    2  0.8147979E-008  0.2489489E+04  0.7818608E-02  0.8406740E-01
          2   -1    0    0  501    0  0.00000000000E+00  0.00000000000E+00  0.41622835329E+04  0.41622835329E+04  0.00000000000E+00 0. -1.
         -2   -1    0    0    0  501 -0.00000000000E+00 -0.00000000000E+00 -0.37224496294E+03  0.37224496294E+03  0.00000000000E+00 0.  1.
         23    2    1    2    0    0  0.10444331230E+04 -0.21226994420E+03  0.19749968525E+04  0.22460722971E+04  0.91264005657E+02 0.  0.
        254    2    1    2    0    0 -0.10444331230E+04  0.21226994420E+03  0.18150417175E+04  0.22884561987E+04  0.89819611426E+03 0.  0.
         23    2    4    4    0    0  0.22006688533E+02 -0.10540277043E+03 -0.17841156278E+02  0.14236031345E+03  0.91400840447E+02 0.  0.
         23    2    4    4    0    0 -0.10664398116E+04  0.31767271462E+03  0.18328828737E+04  0.21460958853E+04  0.89766890575E+02 0.  0.
          3    1    3    3  502    0  0.60738758120E+03 -0.13658119828E+03  0.12427093234E+04  0.13899282571E+04  0.00000000000E+00 0. -1.
         -3    1    3    3    0  502  0.43704554184E+03 -0.75688745919E+02  0.73228752909E+03  0.85614403996E+03  0.00000000000E+00 0.  1.
         11    1    5    5    0    0 -0.30563471052E+00 -0.94390127616E+02  0.20558830175E+02  0.96603597770E+02  0.00000000000E+00 0.  1.
        -11    1    5    5    0    0  0.22312323243E+02 -0.11012642812E+02 -0.38399986454E+02  0.45756715680E+02  0.00000000000E+00 0. -1.
          1    1    6    6  503    0 -0.59263220449E+03  0.12995453383E+03  0.10009785795E+04  0.11704952914E+04  0.00000000000E+00 0. -1.
         -1    1    6    6    0  503 -0.47380760707E+03  0.18771818079E+03  0.83190429428E+03  0.97560059387E+03  0.00000000000E+00 0.  1.
<mgrwt>
<rscale>  0 0.24894892E+04</rscale>
<asrwt>0</asrwt>
<pdfrwt beam="1">  1        2 0.64035128E+00 0.24894892E+04</pdfrwt>
<pdfrwt beam="2">  1       -2 0.57268459E-01 0.24894892E+04</pdfrwt>
<totfact> 0.64198323E-01</totfact>
</mgrwt>
</event>
<event>
12    2  0.8147979E-008  0.1274878E+04  0.7818608E-02  0.9049728E-01
          2   -1    0    0  501    0  0.00000000000E+00  0.00000000000E+00  0.38916671358E+03  0.38916671358E+03  0.00000000000E+00 0. -1.
         -2   -1    0    0    0  501 -0.00000000000E+00 -0.00000000000E+00 -0.10440985079E+04  0.10440985079E+04  0.00000000000E+00 0.  1.
         23    2    1    2    0    0  0.12858120819E+03  0.10476129834E+03  0.13088053411E+03  0.23024322579E+03  0.91510502571E+02 0.  0.
        254    2    1    2    0    0 -0.12858120819E+03 -0.10476129834E+03 -0.78581232847E+03  0.12030219957E+04  0.89568568701E+03 0.  0.
         23    2    4    4    0    0 -0.22411395369E+02  0.36610664841E+03 -0.16904208604E+03  0.41416987002E+03  0.91788374697E+02 0.  0.
         23    2    4    4    0    0 -0.10616981283E+03 -0.47086794674E+03 -0.61677024244E+03  0.78885212572E+03  0.94305312020E+02 0.  0.
          1    1    3    3  502    0  0.41723349918E+02  0.42279724908E+02  0.10424557020E+03  0.11998146512E+03  0.00000000000E+00 0. -1.
         -1    1    3    3    0  502  0.86857858277E+02  0.62481573428E+02  0.26634963918E+02  0.11026176067E+03  0.00000000000E+00 0.  1.
         11    1    5    5    0    0 -0.86554749509E+01  0.35766816897E+03 -0.14686784629E+03  0.38674487795E+03  0.00000000000E+00 0.  1.
        -11    1    5    5    0    0 -0.13755920418E+02  0.84384794315E+01 -0.22174239750E+02  0.27424992072E+02  0.00000000000E+00 0. -1.
          2    1    6    6  503    0 -0.23646261569E+02 -0.25522758343E+03 -0.27041582127E+03  0.37259224552E+03  0.00000000000E+00 0. -1.
         -2    1    6    6    0  503 -0.82523551257E+02 -0.21564036331E+03 -0.34635442117E+03  0.41625988020E+03  0.00000000000E+00 0.  1.
<mgrwt>
<rscale>  0 0.12748779E+04</rscale>
<asrwt>0</asrwt>
<pdfrwt beam="1">  1        2 0.59871803E-01 0.12748779E+04</pdfrwt>
<pdfrwt beam="2">  1       -2 0.16063054E+00 0.12748779E+04</pdfrwt>
<totfact> 0.20046126E+01</totfact>
</mgrwt>
</event>
<event>
12    2  0.8147979E-008  0.1871114E+04  0.7818608E-02  0.8669370E-01
         -2   -1    0    0    0  501 -0.00000000000E+00  0.00000000000E+00  0.11715774327E+04  0.11715774327E+04  0.00000000000E+00 0.  1.
          2   -1    0    0  501    0  0.00000000000E+00 -0.00000000000E+00 -0.74708420431E+03  0.74708420431E+03  0.00000000000E+00 0. -1.
         23    2    1    2    0    0  0.62986532712E+03 -0.21916719898E+03 -0.10050877330E+03  0.68020197520E+03  0.88363579248E+02 0.  0.
        254    2    1    2    0    0 -0.62986532712E+03  0.21916719898E+03  0.52500200171E+03  0.12384596618E+04  0.90188172215E+03 0.  0.
         23    2    4    4    0    0 -0.34076339851E+03 -0.26217866240E+03 -0.34595790318E+02  0.44033914375E+03  0.88568324066E+02 0.  0.
         23    2    4    4    0    0 -0.28910192861E+03  0.48134586138E+03  0.55959779202E+03  0.79812051808E+03  0.92590005654E+02 0.  0.
          1    1    3    3  502    0  0.47110454190E+03 -0.12272632010E+03 -0.66316051850E+02  0.49132378100E+03  0.00000000000E+00 0. -1.
         -1    1    3    3    0  502  0.15876078522E+03 -0.96440878887E+02 -0.34192721450E+02  0.18887819420E+03  0.00000000000E+00 0.  1.
         11    1    5    5    0    0 -0.33927954384E+03 -0.26748358851E+03 -0.29852044793E+02  0.43306953665E+03  0.00000000000E+00 0. -1.
        -11    1    5    5    0    0 -0.14838546669E+01  0.53049261164E+01 -0.47437455242E+01  0.72696070988E+01  0.00000000000E+00 0.  1.
          1    1    6    6  503    0 -0.28359168351E+03  0.48487055036E+03  0.54766771027E+03  0.78451489115E+03  0.00000000000E+00 0. -1.
         -1    1    6    6    0  503 -0.55102450966E+01 -0.35246889821E+01  0.11930081751E+02  0.13605626925E+02  0.00000000000E+00 0.  1.
<mgrwt>
<rscale>  0 0.18711141E+04</rscale>
<asrwt>0</asrwt>
<pdfrwt beam="1">  1        2 0.11493603E+00 0.18711141E+04</pdfrwt>
<pdfrwt beam="2">  1       -2 0.18024268E+00 0.18711141E+04</pdfrwt>
<totfact> 0.63867992E+00</totfact>
</mgrwt>
</event>
<event>
12    2  0.8147979E-008  0.1193106E+04  0.7818608E-02  0.9118912E-01
          2   -1    0    0  501    0  0.00000000000E+00  0.00000000000E+00  0.53631218668E+03  0.53631218668E+03  0.00000000000E+00 0. -1.
         -2   -1    0    0    0  501 -0.00000000000E+00 -0.00000000000E+00 -0.66356070642E+03  0.66356070642E+03  0.00000000000E+00 0.  1.
         23    2    1    2    0    0  0.12908121435E+03 -0.19901001929E+03  0.27291024071E+02  0.25590792712E+03  0.92071273979E+02 0.  0.
        254    2    1    2    0    0 -0.12908121435E+03  0.19901001929E+03 -0.15453954381E+03  0.94396496598E+03  0.90051120965E+03 0.  0.
         23    2    4    4    0    0 -0.10371790120E+03 -0.17087754813E+03 -0.42339272749E+03  0.47699631335E+03  0.91145717283E+02 0.  0.
         23    2    4    4    0    0 -0.25363313156E+02  0.36988756741E+03  0.26885318368E+03  0.46696865262E+03  0.91200756439E+02 0.  0.
          4    1    3    3  502    0  0.82389811079E+01 -0.38458004005E+02  0.37981843254E+02  0.54676496767E+02  0.00000000000E+00 0. -1.
         -4    1    3    3    0  502  0.12084223325E+03 -0.16055201528E+03 -0.10690819183E+02  0.20123143035E+03  0.00000000000E+00 0.  1.
         11    1    5    5    0    0 -0.38782479564E+02 -0.42379732792E+02 -0.22278102428E+03  0.23006848383E+03  0.00000000000E+00 0. -1.
        -11    1    5    5    0    0 -0.64935421633E+02 -0.12849781533E+03 -0.20061170321E+03  0.24692782952E+03  0.00000000000E+00 0.  1.
          3    1    6    6  503    0 -0.20434501852E+02  0.22415018201E+03  0.21573906073E+03  0.31177590556E+03  0.00000000000E+00 0. -1.
         -3    1    6    6    0  503 -0.49288113045E+01  0.14573738540E+03  0.53114122951E+02  0.15519274706E+03  0.00000000000E+00 0.  1.
<mgrwt>
<rscale>  0 0.11931064E+04</rscale>
<asrwt>0</asrwt>
<pdfrwt beam="1">  1        2 0.82509567E-01 0.11931064E+04</pdfrwt>
<pdfrwt beam="2">  1       -2 0.10208626E+00 0.11931064E+04</pdfrwt>
<totfact> 0.44037906E+01</totfact>
</mgrwt>
</event>
<event>
12    2  0.8147979E-008  0.4504886E+04  0.7818608E-02  0.7909782E-01
         -2   -1    0    0    0  501 -0.00000000000E+00  0.00000000000E+00  0.16122501137E+04  0.16122501137E+04  0.00000000000E+00 0.  1.
          2   -1    0    0  501    0  0.00000000000E+00 -0.00000000000E+00 -0.31468442489E+04  0.31468442489E+04  0.00000000000E+00 0. -1.
         23    2    1    2    0    0 -0.68723937269E+03  0.11464329853E+04 -0.25307785375E+04  0.28635873318E+04  0.93197940042E+02 0.  0.
        254    2    1    2    0    0  0.68723937269E+03 -0.11464329853E+04  0.99618440232E+03  0.18955070307E+04  0.90219565226E+03 0.  0.
         23    2    4    4    0    0  0.35119164584E+03 -0.88443800567E+02  0.61296927416E+03  0.71764834391E+03  0.90166160396E+02 0.  0.
         23    2    4    4    0    0  0.33604772685E+03 -0.10579891847E+04  0.38321512815E+03  0.11778586868E+04  0.90708665244E+02 0.  0.
          2    1    3    3  502    0 -0.24477490524E+03  0.47507098690E+03 -0.10753332619E+04  0.12008117342E+04  0.00000000000E+00 0. -1.
         -2    1    3    3    0  502 -0.44246446745E+03  0.67136199837E+03 -0.14554452756E+04  0.16627755976E+04  0.00000000000E+00 0.  1.
         11    1    5    5    0    0  0.31710848398E+03 -0.48845395693E+02  0.52072852108E+03  0.61163866454E+03  0.00000000000E+00 0. -1.
        -11    1    5    5    0    0  0.34083161863E+02 -0.39598404874E+02  0.92240753080E+02  0.10600967937E+03  0.00000000000E+00 0.  1.
          4    1    6    6  503    0  0.29848092146E+03 -0.10070432947E+04  0.35720775707E+03  0.11094252744E+04  0.00000000000E+00 0. -1.
         -4    1    6    6    0  503  0.37566805397E+02 -0.50945890031E+02  0.26007371081E+02  0.68433412376E+02  0.00000000000E+00 0.  1.
<mgrwt>
<rscale>  0 0.45048862E+04</rscale>
<asrwt>0</asrwt>
<pdfrwt beam="1">  1        2 0.48412988E+00 0.45048862E+04</pdfrwt>
<pdfrwt beam="2">  1       -2 0.24803848E+00 0.45048862E+04</pdfrwt>
<totfact> 0.70207123E-02</totfact>
</mgrwt>
</event>
<event>
12    2  0.8147979E-008  0.1507581E+04  0.7818608E-02  0.8879427E-01
         -1   -1    0    0    0  501 -0.00000000000E+00  0.00000000000E+00  0.32503932052E+03  0.32503932052E+03  0.00000000000E+00 0.  1.
          1   -1    0    0  501    0  0.00000000000E+00 -0.00000000000E+00 -0.17480966346E+04  0.17480966346E+04  0.00000000000E+00 0. -1.
         23    2    1    2    0    0  0.29187547806E+03 -0.26102662430E+03 -0.76624295416E+02  0.40956857701E+03  0.92460496100E+02 0.  0.
        254    2    1    2    0    0 -0.29187547806E+03  0.26102662430E+03 -0.13464330186E+04  0.16635673781E+04  0.89512477034E+03 0.  0.
         23    2    4    4    0    0 -0.45861030441E+03  0.40415486639E+03 -0.12732940599E+04  0.14149192680E+04  0.83989311965E+02 0.  0.
         23    2    4    4    0    0  0.16673482635E+03 -0.14312824209E+03 -0.73138958742E+02  0.24864811014E+03  0.90500714849E+02 0.  0.
          2    1    3    3  502    0  0.17230820271E+03 -0.20496794276E+03 -0.29661540568E+02  0.26941006156E+03  0.00000000000E+00 0.  1.
         -2    1    3    3    0  502  0.11956727535E+03 -0.56058681543E+02 -0.46962754849E+02  0.14015851545E+03  0.00000000000E+00 0. -1.
         11    1    5    5    0    0 -0.71835511452E+02  0.10502310518E+03 -0.29366951284E+03  0.32004995876E+03  0.00000000000E+00 0. -1.
        -11    1    5    5    0    0 -0.38677479295E+03  0.29913176120E+03 -0.97962454705E+03  0.10948693092E+04  0.00000000000E+00 0.  1.
          1    1    6    6  503    0  0.12034296053E+03 -0.11936953474E+03 -0.14394114883E+02  0.17011379872E+03  0.00000000000E+00 0. -1.
         -1    1    6    6    0  503  0.46391865818E+02 -0.23758707347E+02 -0.58744843859E+02  0.78534311412E+02  0.00000000000E+00 0.  1.
<mgrwt>
<rscale>  0 0.15075810E+04</rscale>
<asrwt>0</asrwt>
<pdfrwt beam="1">  1        1 0.26893795E+00 0.15075810E+04</pdfrwt>
<pdfrwt beam="2">  1       -1 0.50006047E-01 0.15075810E+04</pdfrwt>
<totfact> 0.17146843E+01</totfact>
</mgrwt>
</event>
<event>
12    2  0.8147979E-008  0.2326649E+04  0.7818608E-02  0.8467487E-01
         -3   -1    0    0    0  501 -0.00000000000E+00  0.00000000000E+00  0.52929511287E+03  0.52929511287E+03  0.00000000000E+00 0.  1.
          3   -1    0    0  501    0  0.00000000000E+00 -0.00000000000E+00 -0.25568413950E+04  0.25568413950E+04  0.00000000000E+00 0. -1.
         23    2    1    2    0    0 -0.27453319724E+03 -0.94248207155E+03 -0.75525082991E+03  0.12419367181E+04  0.91444323011E+02 0.  0.
        254    2    1    2    0    0  0.27453319724E+03  0.94248207155E+03 -0.12722954522E+04  0.18441997897E+04  0.90481833264E+03 0.  0.
         23    2    4    4    0    0  0.19531701754E+02  0.25086693850E+03  0.98238729517E+02  0.28548703209E+03  0.92392041368E+02 0.  0.
         23    2    4    4    0    0  0.25500149548E+03  0.69161513306E+03 -0.13705341817E+04  0.15587127576E+04  0.88680677367E+02 0.  0.
          4    1    3    3  502    0 -0.53489521655E+02 -0.30385226868E+03 -0.20460597061E+03  0.37020390776E+03  0.00000000000E+00 0.  1.
         -4    1    3    3    0  502 -0.22104367558E+03 -0.63862980287E+03 -0.55064485931E+03  0.87173281039E+03  0.00000000000E+00 0. -1.
         11    1    5    5    0    0  0.42029674199E+02  0.86860282060E+02  0.76953599318E+01  0.96800933246E+02  0.00000000000E+00 0. -1.
        -11    1    5    5    0    0 -0.22497972445E+02  0.16400665644E+03  0.90543369585E+02  0.18868609884E+03  0.00000000000E+00 0.  1.
          1    1    6    6  503    0  0.15447434094E+03  0.37020882878E+03 -0.83004110494E+03  0.92189214923E+03  0.00000000000E+00 0. -1.
         -1    1    6    6    0  503  0.10052715454E+03  0.32140630428E+03 -0.54049307678E+03  0.63682060840E+03  0.00000000000E+00 0.  1.
<mgrwt>
<rscale>  0 0.23266488E+04</rscale>
<asrwt>0</asrwt>
<pdfrwt beam="1">  1        3 0.39336021E+00 0.23266488E+04</pdfrwt>
<pdfrwt beam="2">  1       -3 0.81430019E-01 0.23266488E+04</pdfrwt>
<totfact> 0.39845278E-02</totfact>
</mgrwt>
</event>
<event>
12    2  0.8147979E-008  0.1358051E+04  0.7818608E-02  0.8984756E-01
         -2   -1    0    0    0  501 -0.00000000000E+00  0.00000000000E+00  0.44815029889E+03  0.44815029889E+03  0.00000000000E+00 0.  1.
          2   -1    0    0  501    0  0.00000000000E+00 -0.00000000000E+00 -0.10288416884E+04  0.10288416884E+04  0.00000000000E+00 0. -1.
         23    2    1    2    0    0  0.18777347559E+03  0.31958788209E+03 -0.14934969194E+03  0.41235486802E+03  0.10166569815E+03 0.  0.
        254    2    1    2    0    0 -0.18777347559E+03 -0.31958788209E+03 -0.43134169754E+03  0.10646371192E+04  0.90000069063E+03 0.  0.
         23    2    4    4    0    0  0.42712709888E+02 -0.56815883118E+03 -0.41278094387E+03  0.71020373877E+03  0.96811207484E+02 0.  0.
         23    2    4    4    0    0 -0.23048618548E+03  0.24857094910E+03 -0.18560753666E+02  0.35443338048E+03  0.10181906103E+03 0.  0.
          1    1    3    3  502    0  0.11022669755E+03  0.12379831796E+03 -0.10773898320E+03  0.19769581908E+03  0.00000000000E+00 0. -1.
         -1    1    3    3    0  502  0.77546778040E+02  0.19578956413E+03 -0.41610708746E+02  0.21465904893E+03  0.00000000000E+00 0.  1.
         11    1    5    5    0    0  0.47168438811E+02 -0.11337378892E+03 -0.97666357840E+02  0.15689867777E+03  0.00000000000E+00 0. -1.
        -11    1    5    5    0    0 -0.44557289223E+01 -0.45478504227E+03 -0.31511458603E+03  0.55330506099E+03  0.00000000000E+00 0.  1.
          1    1    6    6  503    0 -0.21301419676E+03  0.25714611016E+03 -0.12900019523E+02  0.33416400239E+03  0.00000000000E+00 0. -1.
         -1    1    6    6    0  503 -0.17471988722E+02 -0.85751610606E+01 -0.56607341427E+01  0.20269378090E+02  0.00000000000E+00 0.  1.
<mgrwt>
<rscale>  0 0.13580511E+04</rscale>
<asrwt>0</asrwt>
<pdfrwt beam="1">  1        2 0.15828333E+00 0.13580511E+04</pdfrwt>
<pdfrwt beam="2">  1       -2 0.68946201E-01 0.13580511E+04</pdfrwt>
<totfact> 0.45293683E+01</totfact>
</mgrwt>
</event>
<event>
12    2  0.8147979E-008  0.1287284E+04  0.7818608E-02  0.9039711E-01
         -1   -1    0    0    0  501 -0.00000000000E+00  0.00000000000E+00  0.34516653416E+03  0.34516653416E+03  0.00000000000E+00 0.  1.
          1   -1    0    0  501    0  0.00000000000E+00 -0.00000000000E+00 -0.12002171789E+04  0.12002171789E+04  0.00000000000E+00 0. -1.
         23    2    1    2    0    0 -0.91779317453E+02  0.21508364020E+03  0.46036891141E+02  0.25353238018E+03  0.86457255674E+02 0.  0.
        254    2    1    2    0    0  0.91779317453E+02 -0.21508364020E+03 -0.90108753588E+03  0.12918513329E+04  0.89567667355E+03 0.  0.
         23    2    4    4    0    0 -0.76784482238E+02  0.24271347598E+03 -0.71098752029E+01  0.26927167837E+03  0.87469985214E+02 0.  0.
         23    2    4    4    0    0  0.16856379969E+03 -0.45779711618E+03 -0.89397766068E+03  0.10225796545E+04  0.92093093511E+02 0.  0.
          4    1    3    3  502    0 -0.45358053379E+02  0.21408637132E+02  0.94528020642E+01  0.51039575009E+02  0.00000000000E+00 0. -1.
         -4    1    3    3    0  502 -0.46421264074E+02  0.19367500307E+03  0.36584089076E+02  0.20249280517E+03  0.00000000000E+00 0.  1.
         11    1    5    5    0    0 -0.61087663540E+02  0.91127102648E+02 -0.33278626112E+02  0.11464431268E+03  0.00000000000E+00 0.  1.
        -11    1    5    5    0    0 -0.15696818698E+02  0.15158637333E+03  0.26168750909E+02  0.15462736569E+03  0.00000000000E+00 0. -1.
          3    1    6    6  503    0  0.73524752406E+02 -0.32393901440E+03 -0.58779976034E+03  0.67516733669E+03  0.00000000000E+00 0. -1.
         -3    1    6    6    0  503  0.95039047285E+02 -0.13385810177E+03 -0.30617790034E+03  0.34741231782E+03  0.00000000000E+00 0.  1.
<mgrwt>
<rscale>  0 0.12872837E+04</rscale>
<asrwt>0</asrwt>
<pdfrwt beam="1">  1        1 0.18464880E+00 0.12872837E+04</pdfrwt>
<pdfrwt beam="2">  1       -1 0.53102544E-01 0.12872837E+04</pdfrwt>
<totfact> 0.37560903E+01</totfact>
</mgrwt>
</event>
<event>
12    2  0.8147979E-008  0.1055563E+04  0.7818608E-02  0.9249620E-01
         -2   -1    0    0    0  501 -0.00000000000E+00  0.00000000000E+00  0.40674455803E+03  0.40674455803E+03  0.00000000000E+00 0.  1.
          2   -1    0    0  501    0  0.00000000000E+00 -0.00000000000E+00 -0.68483536361E+03  0.68483536361E+03  0.00000000000E+00 0. -1.
         23    2    1    2    0    0  0.29579667199E+02 -0.10225768293E+03 -0.40304095995E+02  0.15694831453E+03  0.10805907111E+03 0.  0.
        254    2    1    2    0    0 -0.29579667199E+02  0.10225768293E+03 -0.23778670959E+03  0.93463160712E+03  0.89758683777E+03 0.  0.
         23    2    4    4    0    0 -0.11644198141E+03  0.48235238102E+03 -0.14130193579E+03  0.52394576199E+03  0.91270860329E+02 0.  0.
         23    2    4    4    0    0  0.86862314215E+02 -0.38009469809E+03 -0.96484773795E+02  0.41068584513E+03  0.85653433501E+02 0.  0.
          2    1    3    3  502    0  0.42527582703E+00 -0.94301424249E+02 -0.67756755665E+02  0.11612027133E+03  0.00000000000E+00 0. -1.
         -2    1    3    3    0  502  0.29154391372E+02 -0.79562586831E+01  0.27452659670E+02  0.40828043199E+02  0.00000000000E+00 0.  1.
         11    1    5    5    0    0 -0.57186307401E+02  0.35292397582E+03 -0.68383442801E+02  0.36400810666E+03  0.00000000000E+00 0.  1.
        -11    1    5    5    0    0 -0.59255674013E+02  0.12942840519E+03 -0.72918492991E+02  0.15993765533E+03  0.00000000000E+00 0. -1.
          1    1    6    6  503    0  0.24287658487E+02 -0.11377258167E+03  0.10779357638E+02  0.11683443518E+03  0.00000000000E+00 0. -1.
         -1    1    6    6    0  503  0.62574655727E+02 -0.26632211642E+03 -0.10726413143E+03  0.29385140994E+03  0.00000000000E+00 0.  1.
<mgrwt>
<rscale>  0 0.10555625E+04</rscale>
<asrwt>0</asrwt>
<pdfrwt beam="1">  1        2 0.10535929E+00 0.10555625E+04</pdfrwt>
<pdfrwt beam="2">  1       -2 0.62576087E-01 0.10555625E+04</pdfrwt>
<totfact> 0.99364399E+01</totfact>
</mgrwt>
</event>
<event>
12    2  0.8147979E-008  0.2202603E+04  0.7818608E-02  0.8517346E-01
         -2   -1    0    0    0  501 -0.00000000000E+00  0.00000000000E+00  0.84828284881E+03  0.84828284881E+03  0.00000000000E+00 0.  1.
          2   -1    0    0  501    0  0.00000000000E+00 -0.00000000000E+00 -0.14297879422E+04  0.14297879422E+04  0.00000000000E+00 0. -1.
         23    2    1    2    0    0 -0.84797344052E+02  0.81167040272E+03 -0.66976534078E+03  0.10595784841E+04  0.90119476769E+02 0.  0.
        254    2    1    2    0    0  0.84797344052E+02 -0.81167040272E+03  0.88260247414E+02  0.12184923069E+04  0.90051884957E+03 0.  0.
         23    2    4    4    0    0 -0.30631759917E+03 -0.72967850620E+03  0.12688674210E+03  0.80683836988E+03  0.92880115307E+02 0.  0.
         23    2    4    4    0    0  0.39111494322E+03 -0.81991896520E+02 -0.38626494682E+02  0.41165393700E+03  0.90958165367E+02 0.  0.
          4    1    3    3  502    0 -0.49178404334E+02  0.13949447029E+03 -0.11781480100E+03  0.18909666848E+03  0.00000000000E+00 0. -1.
         -4    1    3    3    0  502 -0.35618939718E+02  0.67217593243E+03 -0.55195053978E+03  0.87048181564E+03  0.00000000000E+00 0.  1.
         11    1    5    5    0    0 -0.23139949897E+03 -0.63634178323E+03  0.10683863170E+03  0.68548602205E+03  0.00000000000E+00 0.  1.
        -11    1    5    5    0    0 -0.74918100199E+02 -0.93336722965E+02  0.20048110400E+02  0.12135234782E+03  0.00000000000E+00 0. -1.
          2    1    6    6  503    0  0.32590711537E+03 -0.97977055473E+02 -0.15588819850E+02  0.34067280865E+03  0.00000000000E+00 0. -1.
         -2    1    6    6    0  503  0.65207827848E+02  0.15985158953E+02 -0.23037674832E+02  0.70981128345E+02  0.00000000000E+00 0.  1.
<mgrwt>
<rscale>  0 0.22026026E+04</rscale>
<asrwt>0</asrwt>
<pdfrwt beam="1">  1        2 0.21996738E+00 0.22026026E+04</pdfrwt>
<pdfrwt beam="2">  1       -2 0.13050505E+00 0.22026026E+04</pdfrwt>
<totfact> 0.54692749E+00</totfact>
</mgrwt>
</event>
<event>
12    2  0.8147979E-008  0.4104488E+04  0.7818608E-02  0.7983794E-01
         -2   -1    0    0    0  501 -0.00000000000E+00  0.00000000000E+00  0.18235622572E+04  0.18235622572E+04  0.00000000000E+00 0.  1.
          2   -1    0    0  501    0  0.00000000000E+00 -0.00000000000E+00 -0.23096029538E+04  0.23096029538E+04  0.00000000000E+00 0. -1.
         23    2    1    2    0    0  0.14331279973E+04  0.13078021731E+04 -0.45065224258E+03  0.19939807301E+04  0.93109225040E+02 0.  0.
        254    2    1    2    0    0 -0.14331279973E+04 -0.13078021731E+04 -0.35388453980E+02  0.21391844809E+04  0.90036410414E+03 0.  0.
         23    2    4    4    0    0 -0.51589136689E+03 -0.99681801814E+03 -0.22368409648E+03  0.11482169452E+04  0.92614872356E+02 0.  0.
         23    2    4    4    0    0 -0.91723663039E+03 -0.31098415498E+03  0.18829564250E+03  0.99096753567E+03  0.92342985532E+02 0.  0.
          3    1    3    3  502    0  0.94981327717E+03  0.82724223893E+03 -0.32673995358E+03  0.13012432442E+04  0.00000000000E+00 0. -1.
         -3    1    3    3    0  502  0.48331472011E+03  0.48055993419E+03 -0.12391228899E+03  0.69273748591E+03  0.00000000000E+00 0.  1.
         11    1    5    5    0    0 -0.40673168911E+03 -0.72892022834E+03 -0.13440866911E+03  0.84547090815E+03  0.00000000000E+00 0. -1.
        -11    1    5    5    0    0 -0.10915967778E+03 -0.26789778981E+03 -0.89275427365E+02  0.30274603708E+03  0.00000000000E+00 0.  1.
          3    1    6    6  503    0 -0.24805530537E+03 -0.41831298395E+02  0.43319411294E+02  0.25526038361E+03  0.00000000000E+00 0. -1.
         -3    1    6    6    0  503 -0.66918132502E+03 -0.26915285658E+03  0.14497623120E+03  0.73570715205E+03  0.00000000000E+00 0.  1.
<mgrwt>
<rscale>  0 0.41044877E+04</rscale>
<asrwt>0</asrwt>
<pdfrwt beam="1">  1        2 0.35532353E+00 0.41044877E+04</pdfrwt>
<pdfrwt beam="2">  1       -2 0.28054804E+00 0.41044877E+04</pdfrwt>
<totfact> 0.14636448E-01</totfact>
</mgrwt>
</event>
<event>
12    2  0.8147979E-008  0.2146130E+04  0.7818608E-02  0.8541191E-01
         -2   -1    0    0    0  501 -0.00000000000E+00  0.00000000000E+00  0.10619136127E+04  0.10619136127E+04  0.00000000000E+00 0. -1.
          2   -1    0    0  501    0  0.00000000000E+00 -0.00000000000E+00 -0.10843337053E+04  0.10843337053E+04  0.00000000000E+00 0.  1.
         23    2    1    2    0    0  0.79533677583E+02  0.75246559038E+03  0.44097352171E+03  0.88189968555E+03  0.10372722856E+03 0.  0.
        254    2    1    2    0    0 -0.79533677583E+02 -0.75246559038E+03 -0.46339361430E+03  0.12643476325E+04  0.90072816293E+03 0.  0.
         23    2    4    4    0    0  0.39646893826E+03 -0.32729367377E+03 -0.28948491604E+03  0.59698445549E+03  0.90995360221E+02 0.  0.
         23    2    4    4    0    0 -0.47600261584E+03 -0.42517191661E+03 -0.17390869827E+03  0.66736317703E+03  0.88202753726E+02 0.  0.
          2    1    3    3  502    0  0.55631926996E+02  0.71789344740E+03  0.40243519032E+03  0.82487574551E+03  0.00000000000E+00 0.  1.
         -2    1    3    3    0  502  0.23901750587E+02  0.34572142982E+02  0.38538331391E+02  0.57023940042E+02  0.00000000000E+00 0. -1.
         11    1    5    5    0    0  0.26307404336E+03 -0.23818329372E+03 -0.24251497105E+03  0.42982873901E+03  0.00000000000E+00 0. -1.
        -11    1    5    5    0    0  0.13339489490E+03 -0.89110380055E+02 -0.46969944992E+02  0.16715571647E+03  0.00000000000E+00 0.  1.
          4    1    6    6  503    0 -0.22310530730E+03 -0.17274985322E+03 -0.36415155303E+02  0.28450756311E+03  0.00000000000E+00 0. -1.
         -4    1    6    6    0  503 -0.25289730855E+03 -0.25242206338E+03 -0.13749354296E+03  0.38285561392E+03  0.00000000000E+00 0.  1.
<mgrwt>
<rscale>  0 0.21461302E+04</rscale>
<asrwt>0</asrwt>
<pdfrwt beam="1">  1        2 0.16682057E+00 0.21461302E+04</pdfrwt>
<pdfrwt beam="2">  1       -2 0.16337132E+00 0.21461302E+04</pdfrwt>
<totfact> 0.48661269E+00</totfact>
</mgrwt>
</event>
<event>
12    2  0.8147979E-008  0.2306945E+04  0.7818608E-02  0.8475188E-01
         -2   -1    0    0    0  501 -0.00000000000E+00  0.00000000000E+00  0.16274209713E+04  0.16274209713E+04  0.00000000000E+00 0.  1.
          2   -1    0    0  501    0  0.00000000000E+00 -0.00000000000E+00 -0.81755050488E+03  0.81755050488E+03  0.00000000000E+00 0. -1.
         23    2    1    2    0    0 -0.19321973560E+03 -0.10122360793E+03  0.13517679380E+04  0.13722911846E+04  0.91249396075E+02 0.  0.
        254    2    1    2    0    0  0.19321973560E+03  0.10122360793E+03 -0.54189747158E+03  0.10726802915E+04  0.89967219200E+03 0.  0.
         23    2    4    4    0    0  0.38763712750E+02 -0.21303370123E+03 -0.65215026711E+03  0.69354876190E+03  0.93935781064E+02 0.  0.
         23    2    4    4    0    0  0.15445602285E+03  0.31425730916E+03  0.11025279553E+03  0.37913152960E+03  0.94713876823E+02 0.  0.
          3    1    3    3  502    0 -0.53717243027E+02 -0.64602827911E+02  0.33652865266E+03  0.34685818663E+03  0.00000000000E+00 0. -1.
         -3    1    3    3    0  502 -0.13950249258E+03 -0.36620780023E+02  0.10152392853E+04  0.10254329980E+04  0.00000000000E+00 0.  1.
         11    1    5    5    0    0 -0.30505385816E+02 -0.68531476972E+02 -0.23477807173E+03  0.24647086007E+03  0.00000000000E+00 0.  1.
        -11    1    5    5    0    0  0.69269098566E+02 -0.14450222425E+03 -0.41737219538E+03  0.44707790183E+03  0.00000000000E+00 0. -1.
          2    1    6    6  503    0  0.62659283046E+02  0.22913173719E+03  0.73527444594E+02  0.24866407833E+03  0.00000000000E+00 0. -1.
         -2    1    6    6    0  503  0.91796739808E+02  0.85125571965E+02  0.36725350933E+02  0.13046745128E+03  0.00000000000E+00 0.  1.
<mgrwt>
<rscale>  0 0.23069450E+04</rscale>
<asrwt>0</asrwt>
<pdfrwt beam="1">  1        2 0.12577700E+00 0.23069450E+04</pdfrwt>
<pdfrwt beam="2">  1       -2 0.25037246E+00 0.23069450E+04</pdfrwt>
<totfact> 0.19376663E+00</totfact>
</mgrwt>
</event>
<event>
12    2  0.8147979E-008  0.1992311E+04  0.7818608E-02  0.8610224E-01
          1   -1    0    0  501    0  0.00000000000E+00  0.00000000000E+00  0.12110275628E+04  0.12110275628E+04  0.00000000000E+00 0. -1.
         -1   -1    0    0    0  501 -0.00000000000E+00 -0.00000000000E+00 -0.81940781978E+03  0.81940781978E+03  0.00000000000E+00 0.  1.
         23    2    1    2    0    0  0.58905444618E+03  0.43325640458E+03  0.46341476701E+03  0.87045518956E+03  0.90789526235E+02 0.  0.
        254    2    1    2    0    0 -0.58905444618E+03 -0.43325640458E+03 -0.71795024044E+02  0.11599801930E+04  0.89760975370E+03 0.  0.
         23    2    4    4    0    0  0.13200110438E+03 -0.36819865675E+03 -0.14242735347E+03  0.42673707218E+03  0.93938465811E+02 0.  0.
         23    2    4    4    0    0 -0.72105555056E+03 -0.65057747831E+02  0.70632329429E+02  0.73324312080E+03  0.92211337098E+02 0.  0.
          1    1    3    3  502    0  0.15942297304E+03  0.76414166924E+02  0.13611040009E+03  0.22311622589E+03  0.00000000000E+00 0. -1.
         -1    1    3    3    0  502  0.42963147314E+03  0.35684223766E+03  0.32730436692E+03  0.64733896367E+03  0.00000000000E+00 0.  1.
         11    1    5    5    0    0  0.10414841179E+03 -0.29187346785E+03 -0.15156439835E+03  0.34497649161E+03  0.00000000000E+00 0.  1.
        -11    1    5    5    0    0  0.27852692590E+02 -0.76325188903E+02  0.91370448815E+01  0.81760580568E+02  0.00000000000E+00 0. -1.
          2    1    6    6  503    0 -0.57055957541E+03 -0.64264494508E+02  0.20209782541E+02  0.57452292352E+03  0.00000000000E+00 0. -1.
         -2    1    6    6    0  503 -0.15049597516E+03 -0.79325332264E+00  0.50422546888E+02  0.15872019728E+03  0.00000000000E+00 0.  1.
<mgrwt>
<rscale>  0 0.19923107E+04</rscale>
<asrwt>0</asrwt>
<pdfrwt beam="1">  1        1 0.18631193E+00 0.19923107E+04</pdfrwt>
<pdfrwt beam="2">  1       -1 0.12606274E+00 0.19923107E+04</pdfrwt>
<totfact> 0.53354299E+00</totfact>
</mgrwt>
</event>
<event>
12    2  0.8147979E-008  0.1762550E+04  0.7818608E-02  0.8726472E-01
         -2   -1    0    0    0  501 -0.00000000000E+00  0.00000000000E+00  0.39263498743E+03  0.39263498743E+03  0.00000000000E+00 0.  1.
          2   -1    0    0  501    0  0.00000000000E+00 -0.00000000000E+00 -0.19780348720E+04  0.19780348720E+04  0.00000000000E+00 0. -1.
         23    2    1    2    0    0  0.12750564385E+03  0.32341549406E+03 -0.13226424161E+04  0.13706632348E+04  0.92084044520E+02 0.  0.
        254    2    1    2    0    0 -0.12750564385E+03 -0.32341549406E+03 -0.26275746842E+03  0.10000066246E+04  0.90006471493E+03 0.  0.
         23    2    4    4    0    0 -0.44950576050E+03 -0.10047592926E+03 -0.35451269000E+03  0.58831443326E+03  0.91015295014E+02 0.  0.
         23    2    4    4    0    0  0.32200011665E+03 -0.22293956481E+03  0.91755221579E+02  0.41169219136E+03  0.87665928705E+02 0.  0.
          1    1    3    3  502    0  0.42449581542E+02  0.15680400500E+03 -0.77835373018E+03  0.79512514251E+03  0.00000000000E+00 0. -1.
         -1    1    3    3    0  502  0.85056062307E+02  0.16661148906E+03 -0.54428868595E+03  0.57553809229E+03  0.00000000000E+00 0.  1.
         11    1    5    5    0    0 -0.77397749204E+02  0.17051646283E+02 -0.57637129888E+02  0.97995964022E+02  0.00000000000E+00 0. -1.
        -11    1    5    5    0    0 -0.37210801130E+03 -0.11752757554E+03 -0.29687556011E+03  0.49031846924E+03  0.00000000000E+00 0.  1.
          2    1    6    6  503    0  0.12010108885E+03 -0.12721900813E+03  0.15677291265E+02  0.17565513096E+03  0.00000000000E+00 0. -1.
         -2    1    6    6    0  503  0.20189902780E+03 -0.95720556679E+02  0.76077930314E+02  0.23603706039E+03  0.00000000000E+00 0.  1.
<mgrwt>
<rscale>  0 0.17625501E+04</rscale>
<asrwt>0</asrwt>
<pdfrwt beam="1">  1        2 0.30431305E+00 0.17625501E+04</pdfrwt>
<pdfrwt beam="2">  1       -2 0.60405384E-01 0.17625501E+04</pdfrwt>
<totfact> 0.16613884E+01</totfact>
</mgrwt>
</event>
<event>
12    2  0.8147979E-008  0.2964476E+04  0.7818608E-02  0.8253948E-01
         -2   -1    0    0    0  501 -0.00000000000E+00  0.00000000000E+00  0.73366430931E+03  0.73366430931E+03  0.00000000000E+00 0.  1.
          2   -1    0    0  501    0  0.00000000000E+00 -0.00000000000E+00 -0.29945974521E+04  0.29945974521E+04  0.00000000000E+00 0. -1.
         23    2    1    2    0    0 -0.30353878306E+03 -0.11874162997E+04 -0.17208069881E+04  0.21144634944E+04  0.87669362328E+02 0.  0.
        254    2    1    2    0    0  0.30353878306E+03  0.11874162997E+04 -0.54012615465E+03  0.16137982670E+04  0.90028624443E+03 0.  0.
         23    2    4    4    0    0  0.53450179189E+03  0.92433809855E+03 -0.62795184408E+03  0.12419499568E+04  0.89571707543E+02 0.  0.
         23    2    4    4    0    0 -0.23096300883E+03  0.26307820119E+03  0.87825689423E+02  0.37184831017E+03  0.89463750574E+02 0.  0.
          4    1    3    3  502    0 -0.65718986799E+02 -0.15291708237E+03 -0.20783561289E+03  0.26626727416E+03  0.00000000000E+00 0. -1.
         -4    1    3    3    0  502 -0.23781979626E+03 -0.10344992174E+04 -0.15129713752E+04  0.18481962202E+04  0.00000000000E+00 0.  1.
         11    1    5    5    0    0  0.38685218360E+03  0.73839840401E+03 -0.47329179690E+03  0.95858851444E+03  0.00000000000E+00 0.  1.
        -11    1    5    5    0    0  0.14764960829E+03  0.18593969454E+03 -0.15466004718E+03  0.28336144238E+03  0.00000000000E+00 0. -1.
          2    1    6    6  503    0 -0.14011604279E+03  0.19918187446E+03  0.26474223212E+02  0.24496287281E+03  0.00000000000E+00 0. -1.
         -2    1    6    6    0  503 -0.90846966043E+02  0.63896326725E+02  0.61351466211E+02  0.12688543736E+03  0.00000000000E+00 0.  1.
<mgrwt>
<rscale>  0 0.29644759E+04</rscale>
<asrwt>0</asrwt>
<pdfrwt beam="1">  1        2 0.46070730E+00 0.29644759E+04</pdfrwt>
<pdfrwt beam="2">  1       -2 0.11287143E+00 0.29644759E+04</pdfrwt>
<totfact> 0.92920255E-01</totfact>
</mgrwt>
</event>
<event>
12    2  0.8147979E-008  0.1479268E+04  0.7818608E-02  0.8898358E-01
         -1   -1    0    0    0  501 -0.00000000000E+00  0.00000000000E+00  0.35658188351E+03  0.35658188351E+03  0.00000000000E+00 0.  1.
          1   -1    0    0  501    0  0.00000000000E+00 -0.00000000000E+00 -0.15341736786E+04  0.15341736786E+04  0.00000000000E+00 0. -1.
         23    2    1    2    0    0  0.22034904123E+03  0.39587205400E+03 -0.26401145374E+03  0.53207485852E+03  0.90184390345E+02 0.  0.
        254    2    1    2    0    0 -0.22034904123E+03 -0.39587205400E+03 -0.91358034138E+03  0.13586807036E+04  0.89783953529E+03 0.  0.
         23    2    4    4    0    0  0.15091196494E+03 -0.41575470658E+03 -0.10699854608E+03  0.46538617070E+03  0.97515136279E+02 0.  0.
         23    2    4    4    0    0 -0.37126100618E+03  0.19882652585E+02 -0.80658179530E+03  0.89329453292E+03  0.95764687957E+02 0.  0.
          4    1    3    3  502    0  0.10976449844E+03  0.15411135926E+03 -0.65264935624E+02  0.20014511733E+03  0.00000000000E+00 0. -1.
         -4    1    3    3    0  502  0.11058454279E+03  0.24176069474E+03 -0.19874651811E+03  0.33192974119E+03  0.00000000000E+00 0.  1.
         11    1    5    5    0    0  0.15372553336E+03 -0.36801352564E+03 -0.70012448778E+02  0.40492868217E+03  0.00000000000E+00 0. -1.
        -11    1    5    5    0    0 -0.28135684175E+01 -0.47741180939E+02 -0.36986097303E+02  0.60457488522E+02  0.00000000000E+00 0.  1.
          2    1    6    6  503    0 -0.25596405540E+03  0.20096004568E+02 -0.44479062917E+03  0.51357584722E+03  0.00000000000E+00 0. -1.
         -2    1    6    6    0  503 -0.11529695078E+03 -0.21335198343E+00 -0.36179116614E+03  0.37971868570E+03  0.00000000000E+00 0.  1.
<mgrwt>
<rscale>  0 0.14792681E+04</rscale>
<asrwt>0</asrwt>
<pdfrwt beam="1">  1        1 0.23602672E+00 0.14792681E+04</pdfrwt>
<pdfrwt beam="2">  1       -1 0.54858752E-01 0.14792681E+04</pdfrwt>
<totfact> 0.20154002E+01</totfact>
</mgrwt>
</event>
<event>
12    2  0.8147979E-008  0.1708963E+04  0.7818608E-02  0.8756269E-01
         -1   -1    0    0    0  501 -0.00000000000E+00  0.00000000000E+00  0.90104967732E+03  0.90104967732E+03  0.00000000000E+00 0.  1.
          1   -1    0    0  501    0  0.00000000000E+00 -0.00000000000E+00 -0.81031960315E+03  0.81031960315E+03  0.00000000000E+00 0. -1.
         23    2    1    2    0    0 -0.55120004411E+03  0.17441274908E+03  0.23773293993E+03  0.63195988135E+03  0.92817268041E+02 0.  0.
        254    2    1    2    0    0  0.55120004411E+03 -0.17441274908E+03 -0.14700286576E+03  0.10794093991E+04  0.89959630540E+03 0.  0.
         23    2    4    4    0    0  0.77232570315E+03 -0.88968615572E+01 -0.94433199746E+02  0.78350207240E+03  0.91606344463E+02 0.  0.
         23    2    4    4    0    0 -0.22112565904E+03 -0.16551588752E+03 -0.52569666015E+02  0.29590732672E+03  0.92225322520E+02 0.  0.
          2    1    3    3  502    0 -0.33510320748E+03  0.15062137470E+03  0.13393426345E+03  0.39104903159E+03  0.00000000000E+00 0. -1.
         -2    1    3    3    0  502 -0.21609683662E+03  0.23791374375E+02  0.10379867648E+03  0.24091084976E+03  0.00000000000E+00 0.  1.
         11    1    5    5    0    0  0.19245967204E+03 -0.47749967756E+01 -0.63791316379E+02  0.20281237142E+03  0.00000000000E+00 0. -1.
        -11    1    5    5    0    0  0.57986603111E+03 -0.41218647816E+01 -0.30641883367E+02  0.58068970098E+03  0.00000000000E+00 0.  1.
          3    1    6    6  503    0  0.56083134552E+01 -0.15551835902E+02  0.64280377582E+01  0.17737881755E+02  0.00000000000E+00 0. -1.
         -3    1    6    6    0  503 -0.22673397250E+03 -0.14996405162E+03 -0.58997703773E+02  0.27816944496E+03  0.00000000000E+00 0.  1.
<mgrwt>
<rscale>  0 0.17089625E+04</rscale>
<asrwt>0</asrwt>
<pdfrwt beam="1">  1        1 0.12466455E+00 0.17089625E+04</pdfrwt>
<pdfrwt beam="2">  1       -1 0.13862303E+00 0.17089625E+04</pdfrwt>
<totfact> 0.88591972E+00</totfact>
</mgrwt>
</event>
<event>
12    2  0.8147979E-008  0.2858066E+04  0.7818608E-02  0.8285465E-01
          1   -1    0    0  501    0  0.00000000000E+00  0.00000000000E+00  0.74022071348E+03  0.74022071348E+03  0.00000000000E+00 0. -1.
         -1   -1    0    0    0  501 -0.00000000000E+00 -0.00000000000E+00 -0.27588192419E+04  0.27588192419E+04  0.00000000000E+00 0.  1.
         23    2    1    2    0    0 -0.12113129256E+04 -0.30184644144E+03 -0.53629807281E+03  0.13617002528E+04  0.90673467378E+02 0.  0.
        254    2    1    2    0    0  0.12113129256E+04  0.30184644144E+03 -0.14823004556E+04  0.21373397026E+04  0.90145220940E+03 0.  0.
         23    2    4    4    0    0  0.55491977363E+03 -0.22293549079E+03 -0.98631472550E+03  0.11572405120E+04  0.93555741076E+02 0.  0.
         23    2    4    4    0    0  0.65639315192E+03  0.52478193223E+03 -0.49598573012E+03  0.98009919061E+03  0.91348413531E+02 0.  0.
          2    1    3    3  502    0 -0.83899800812E+02 -0.84851558442E+01 -0.15986041474E+02  0.85829645042E+02  0.00000000000E+00 0. -1.
         -2    1    3    3    0  502 -0.11274131247E+04 -0.29336128560E+03 -0.52031203133E+03  0.12758706077E+04  0.00000000000E+00 0.  1.
         11    1    5    5    0    0  0.37887785477E+03 -0.16608124444E+03 -0.59838708985E+03  0.72746032049E+03  0.00000000000E+00 0.  1.
        -11    1    5    5    0    0  0.17604191886E+03 -0.56854246351E+02 -0.38792763565E+03  0.42978019152E+03  0.00000000000E+00 0. -1.
          3    1    6    6  503    0  0.96499321257E+02  0.55009033240E+02 -0.37077794123E+02  0.11710198785E+03  0.00000000000E+00 0. -1.
         -3    1    6    6    0  503  0.55989383066E+03  0.46977289899E+03 -0.45890793600E+03  0.86299720276E+03  0.00000000000E+00 0.  1.
<mgrwt>
<rscale>  0 0.28580659E+04</rscale>
<asrwt>0</asrwt>
<pdfrwt beam="1">  1        1 0.11388011E+00 0.28580659E+04</pdfrwt>
<pdfrwt beam="2">  1       -1 0.42443373E+00 0.28580659E+04</pdfrwt>
<totfact> 0.10456102E-01</totfact>
</mgrwt>
</event>
<event>
12    2  0.8147979E-008  0.2483129E+04  0.7818608E-02  0.8409021E-01
         -2   -1    0    0    0  501 -0.00000000000E+00  0.00000000000E+00  0.13348687940E+04  0.13348687940E+04  0.00000000000E+00 0.  1.
          2   -1    0    0  501    0  0.00000000000E+00 -0.00000000000E+00 -0.11547819520E+04  0.11547819520E+04  0.00000000000E+00 0. -1.
         23    2    1    2    0    0 -0.77584932316E+03 -0.70874676532E+03  0.31350511139E+03  0.11004804962E+04  0.92237292578E+02 0.  0.
        254    2    1    2    0    0  0.77584932316E+03  0.70874676532E+03 -0.13341826943E+03  0.13891702497E+04  0.89873766945E+03 0.  0.
         23    2    4    4    0    0 -0.17987603802E+03  0.20932978158E+03 -0.99600449232E+02  0.30642651348E+03  0.88332395923E+02 0.  0.
         23    2    4    4    0    0  0.95572536117E+03  0.49941698374E+03 -0.33817820195E+02  0.10827437362E+04  0.91444320496E+02 0.  0.
          2    1    3    3  502    0 -0.30877543843E+03 -0.33970177762E+03  0.15400008755E+03  0.48420615038E+03  0.00000000000E+00 0. -1.
         -2    1    3    3    0  502 -0.46707388472E+03 -0.36904498769E+03  0.15950502384E+03  0.61627434586E+03  0.00000000000E+00 0.  1.
         11    1    5    5    0    0 -0.13742699499E+03  0.18524939343E+03 -0.11149764684E+03  0.25619375865E+03  0.00000000000E+00 0.  1.
        -11    1    5    5    0    0 -0.42449043029E+02  0.24080388142E+02  0.11897197609E+02  0.50232754833E+02  0.00000000000E+00 0. -1.
          3    1    6    6  503    0  0.16463952435E+03  0.68377700012E+02  0.24566819785E+02  0.17995891606E+03  0.00000000000E+00 0. -1.
         -3    1    6    6    0  503  0.79108583682E+03  0.43103928373E+03 -0.58384639980E+02  0.90278482017E+03  0.00000000000E+00 0.  1.
<mgrwt>
<rscale>  0 0.24831290E+04</rscale>
<asrwt>0</asrwt>
<pdfrwt beam="1">  1        2 0.17765876E+00 0.24831290E+04</pdfrwt>
<pdfrwt beam="2">  1       -2 0.20536443E+00 0.24831290E+04</pdfrwt>
<totfact> 0.22096779E+00</totfact>
</mgrwt>
</event>
<event>
12    2  0.8147979E-008  0.4234382E+04  0.7818608E-02  0.7958864E-01
          2   -1    0    0  501    0  0.00000000000E+00  0.00000000000E+00  0.15210416463E+04  0.15210416463E+04  0.00000000000E+00 0. -1.
         -2   -1    0    0    0  501 -0.00000000000E+00 -0.00000000000E+00 -0.29469927335E+04  0.29469927335E+04  0.00000000000E+00 0.  1.
         23    2    1    2    0    0  0.17586557240E+04 -0.28032581510E+03 -0.16870864609E+04  0.24548418692E+04  0.92387002420E+02 0.  0.
        254    2    1    2    0    0 -0.17586557240E+04  0.28032581510E+03  0.26113537370E+03  0.20131925107E+04  0.90183140523E+03 0.  0.
         23    2    4    4    0    0 -0.65118767279E+03  0.55258523417E+02  0.53081640514E+03  0.84776976258E+03  0.99240237723E+02 0.  0.
         23    2    4    4    0    0 -0.11074680512E+04  0.22506729169E+03 -0.26968103143E+03  0.11654227481E+04  0.91332101769E+02 0.  0.
          2    1    3    3  502    0  0.10584477778E+04 -0.13055281087E+03 -0.97465495273E+03  0.14447518858E+04  0.00000000000E+00 0.  1.
         -2    1    3    3    0  502  0.70020794618E+03 -0.14977300423E+03 -0.71243150815E+03  0.10100899834E+04  0.00000000000E+00 0. -1.
         11    1    5    5    0    0 -0.41738914079E+03  0.10776042395E+02  0.38940706837E+03  0.57093579572E+03  0.00000000000E+00 0.  1.
        -11    1    5    5    0    0 -0.23379853200E+03  0.44482481022E+02  0.14140933677E+03  0.27683396686E+03  0.00000000000E+00 0. -1.
          4    1    6    6  503    0 -0.22870608346E+03  0.16579510854E+02 -0.77481727132E+02  0.24204291114E+03  0.00000000000E+00 0. -1.
         -4    1    6    6    0  503 -0.87876196772E+03  0.20848778083E+03 -0.19219930430E+03  0.92337983693E+03  0.00000000000E+00 0.  1.
<mgrwt>
<rscale>  0 0.42343824E+04</rscale>
<asrwt>0</asrwt>
<pdfrwt beam="1">  1        2 0.23400641E+00 0.42343824E+04</pdfrwt>
<pdfrwt beam="2">  1       -2 0.45338349E+00 0.42343824E+04</pdfrwt>
<totfact> 0.31542310E-02</totfact>
</mgrwt>
</event>
<event>
12    2  0.8147979E-008  0.1599887E+04  0.7818608E-02  0.8820617E-01
         -1   -1    0    0    0  501 -0.00000000000E+00  0.00000000000E+00  0.28793570440E+03  0.28793570440E+03  0.00000000000E+00 0.  1.
          1   -1    0    0  501    0  0.00000000000E+00 -0.00000000000E+00 -0.22224054677E+04  0.22224054677E+04  0.00000000000E+00 0. -1.
         23    2    1    2    0    0 -0.46519996210E+03  0.25522244247E+03 -0.82942213649E+03  0.98876331776E+03  0.90345548797E+02 0.  0.
        254    2    1    2    0    0  0.46519996210E+03 -0.25522244247E+03 -0.11050476268E+04  0.15215778543E+04  0.90139858520E+03 0.  0.
         23    2    4    4    0    0  0.23707675539E+03 -0.56880693698E+03 -0.50859951228E+03  0.80425758356E+03  0.91706473740E+02 0.  0.
         23    2    4    4    0    0  0.22812320671E+03  0.31358449451E+03 -0.59644811453E+03  0.71732027077E+03  0.91774641882E+02 0.  0.
          3    1    3    3  502    0 -0.37682349240E+03  0.21493856386E+03 -0.73395586886E+03  0.85257594858E+03  0.00000000000E+00 0. -1.
         -3    1    3    3    0  502 -0.88376469694E+02  0.40283878606E+02 -0.95466267630E+02  0.13618736919E+03  0.00000000000E+00 0.  1.
         11    1    5    5    0    0  0.23663425327E+03 -0.57089024939E+03 -0.49864276006E+03  0.79407559390E+03  0.00000000000E+00 0. -1.
        -11    1    5    5    0    0  0.44250211617E+00  0.20833124086E+01 -0.99567522208E+01  0.10181989663E+02  0.00000000000E+00 0.  1.
          1    1    6    6  503    0  0.13016157087E+03  0.18561794252E+03 -0.42713682387E+03  0.48357204367E+03  0.00000000000E+00 0. -1.
         -1    1    6    6    0  503  0.97961635843E+02  0.12796655199E+03 -0.16931129066E+03  0.23374822710E+03  0.00000000000E+00 0.  1.
<mgrwt>
<rscale>  0 0.15998874E+04</rscale>
<asrwt>0</asrwt>
<pdfrwt beam="1">  1        1 0.34190853E+00 0.15998874E+04</pdfrwt>
<pdfrwt beam="2">  1       -1 0.44297801E-01 0.15998874E+04</pdfrwt>
<totfact> 0.10188004E+01</totfact>
</mgrwt>
</event>
<event>
12    2  0.8147979E-008  0.1827795E+04  0.7818608E-02  0.8691657E-01
         -1   -1    0    0    0  501 -0.00000000000E+00  0.00000000000E+00  0.73035983083E+03  0.73035983083E+03  0.00000000000E+00 0.  1.
          1   -1    0    0  501    0  0.00000000000E+00 -0.00000000000E+00 -0.11435571350E+04  0.11435571350E+04  0.00000000000E+00 0. -1.
         23    2    1    2    0    0  0.46288640395E+03  0.40565507779E+03  0.16902656121E+03  0.64440203603E+03  0.88679989551E+02 0.  0.
        254    2    1    2    0    0 -0.46288640395E+03 -0.40565507779E+03 -0.58222386539E+03  0.12295149298E+04  0.89101204712E+03 0.  0.
         23    2    4    4    0    0 -0.61207758853E+02 -0.40515677549E+03 -0.68651469243E+03  0.80479401886E+03  0.92155235383E+02 0.  0.
         23    2    4    4    0    0 -0.40167864510E+03 -0.49830230024E+00  0.10429082704E+03  0.42472091095E+03  0.90362012824E+02 0.  0.
          1    1    3    3  502    0  0.26892864509E+03  0.22719128356E+03  0.14141566618E+03  0.37939015027E+03  0.00000000000E+00 0. -1.
         -1    1    3    3    0  502  0.19395775886E+03  0.17846379423E+03  0.27610895025E+02  0.26501188576E+03  0.00000000000E+00 0.  1.
         11    1    5    5    0    0 -0.54922376096E+02 -0.15621896031E+03 -0.33886859012E+03  0.37716409205E+03  0.00000000000E+00 0. -1.
        -11    1    5    5    0    0 -0.62853827568E+01 -0.24893781517E+03 -0.34764610231E+03  0.42762992682E+03  0.00000000000E+00 0.  1.
          1    1    6    6  503    0 -0.28056876609E+03 -0.38969392452E+02  0.87946475597E+02  0.29660078999E+03  0.00000000000E+00 0. -1.
         -1    1    6    6    0  503 -0.12110987900E+03  0.38471090152E+02  0.16344351444E+02  0.12812012096E+03  0.00000000000E+00 0.  1.
<mgrwt>
<rscale>  0 0.18277945E+04</rscale>
<asrwt>0</asrwt>
<pdfrwt beam="1">  1        1 0.17593187E+00 0.18277945E+04</pdfrwt>
<pdfrwt beam="2">  1       -1 0.11236305E+00 0.18277945E+04</pdfrwt>
<totfact> 0.80346428E+00</totfact>
</mgrwt>
</event>
<event>
12    2  0.8147979E-008  0.1793857E+04  0.7818608E-02  0.8709573E-01
         -3   -1    0    0    0  501 -0.00000000000E+00  0.00000000000E+00  0.21112178624E+04  0.21112178624E+04  0.00000000000E+00 0.  1.
          3   -1    0    0  501    0  0.00000000000E+00 -0.00000000000E+00 -0.38105070643E+03  0.38105070643E+03  0.00000000000E+00 0. -1.
         23    2    1    2    0    0  0.26257371388E+02 -0.55438498879E+03  0.13492402148E+03  0.57846009075E+03  0.91539170121E+02 0.  0.
        254    2    1    2    0    0 -0.26257371388E+02  0.55438498879E+03  0.15952431345E+04  0.19138084781E+04  0.89990558798E+03 0.  0.
         23    2    4    4    0    0  0.26026547251E+02 -0.14674257978E+03  0.91558239217E+03  0.93199936895E+03  0.90116263752E+02 0.  0.
         23    2    4    4    0    0 -0.52283918639E+02  0.70112756857E+03  0.67966074229E+03  0.98180910910E+03  0.87732129471E+02 0.  0.
          3    1    3    3  502    0 -0.21397998892E+02 -0.39949470115E+03  0.10564069564E+03  0.41377995019E+03  0.00000000000E+00 0. -1.
         -3    1    3    3    0  502  0.47655370280E+02 -0.15489028763E+03  0.29283325841E+02  0.16468014055E+03  0.00000000000E+00 0.  1.
         11    1    5    5    0    0  0.50820822437E+01 -0.14221040975E+03  0.87084079135E+03  0.88239067996E+03  0.00000000000E+00 0.  1.
        -11    1    5    5    0    0  0.20944465007E+02 -0.45321700357E+01  0.44741600824E+02  0.49608688997E+02  0.00000000000E+00 0. -1.
          3    1    6    6  503    0 -0.21840080744E+02  0.33201531700E+02  0.43176726503E+02  0.58681858744E+02  0.00000000000E+00 0. -1.
         -3    1    6    6    0  503 -0.30443837895E+02  0.66792603687E+03  0.63648401578E+03  0.92312725035E+03  0.00000000000E+00 0.  1.
<mgrwt>
<rscale>  0 0.17938574E+04</rscale>
<asrwt>0</asrwt>
<pdfrwt beam="1">  1        3 0.58623187E-01 0.17938574E+04</pdfrwt>
<pdfrwt beam="2">  1       -3 0.32480274E+00 0.17938574E+04</pdfrwt>
<totfact> 0.19526043E-01</totfact>
</mgrwt>
</event>
<event>
12    2  0.8147979E-008  0.2421271E+04  0.7818608E-02  0.8431583E-01
         -1   -1    0    0    0  501 -0.00000000000E+00  0.00000000000E+00  0.85610491006E+03  0.85610491006E+03  0.00000000000E+00 0.  1.
          1   -1    0    0  501    0  0.00000000000E+00 -0.00000000000E+00 -0.17119844867E+04  0.17119844867E+04  0.00000000000E+00 0. -1.
         23    2    1    2    0    0 -0.56660456974E+03  0.74729163438E+03  0.11548474210E+03  0.94799786155E+03  0.76666124096E+02 0.  0.
        254    2    1    2    0    0  0.56660456974E+03 -0.74729163438E+03 -0.97136431878E+03  0.16200915353E+04  0.89535602836E+03 0.  0.
         23    2    4    4    0    0  0.64615129386E+03 -0.77622602093E+03 -0.10599609097E+04  0.14671821161E+04  0.95225529183E+02 0.  0.
         23    2    4    4    0    0 -0.79546724122E+02  0.28934386543E+02  0.88596590940E+02  0.15290941920E+03  0.91471604939E+02 0.  0.
          3    1    3    3  502    0 -0.24056955324E+03  0.30552458025E+03  0.10566658632E+02  0.38901238201E+03  0.00000000000E+00 0. -1.
         -3    1    3    3    0  502 -0.32603501650E+03  0.44176705413E+03  0.10491808347E+03  0.55898547954E+03  0.00000000000E+00 0.  1.
         11    1    5    5    0    0  0.34415317450E+03 -0.44685762633E+03 -0.65198312823E+03  0.86209346664E+03  0.00000000000E+00 0.  1.
        -11    1    5    5    0    0  0.30199811937E+03 -0.32936839460E+03 -0.40797778149E+03  0.60508864941E+03  0.00000000000E+00 0. -1.
          4    1    6    6  503    0 -0.24487713186E+02  0.55758720898E+02  0.59361332368E+02  0.85043817140E+02  0.00000000000E+00 0.  1.
         -4    1    6    6    0  503 -0.55059010937E+02 -0.26824334355E+02  0.29235258571E+02  0.67865602058E+02  0.00000000000E+00 0. -1.
<mgrwt>
<rscale>  0 0.24212710E+04</rscale>
<asrwt>0</asrwt>
<pdfrwt beam="1">  1        1 0.26338223E+00 0.24212710E+04</pdfrwt>
<pdfrwt beam="2">  1       -1 0.13170845E+00 0.24212710E+04</pdfrwt>
<totfact> 0.20524427E+00</totfact>
</mgrwt>
</event>
<event>
12    2  0.8147979E-008  0.1834920E+04  0.7818608E-02  0.8687947E-01
          2   -1    0    0  501    0  0.00000000000E+00  0.00000000000E+00  0.19946113322E+04  0.19946113322E+04  0.00000000000E+00 0. -1.
         -2   -1    0    0    0  501 -0.00000000000E+00 -0.00000000000E+00 -0.42200355962E+03  0.42200355962E+03  0.00000000000E+00 0.  1.
         23    2    1    2    0    0  0.13994951452E+03 -0.17602471421E+03  0.14624999491E+04  0.14823918855E+04  0.89493208759E+02 0.  0.
        254    2    1    2    0    0 -0.13994951452E+03  0.17602471421E+03  0.11010782345E+03  0.93422300629E+03  0.90004351343E+03 0.  0.
         23    2    4    4    0    0  0.18835453943E+03 -0.42062599300E+01 -0.30313928265E+03  0.36868809763E+03  0.92424907366E+02 0.  0.
         23    2    4    4    0    0 -0.32830405395E+03  0.18023097414E+03  0.41324710610E+03  0.56553490866E+03  0.93753967048E+02 0.  0.
          3    1    3    3  502    0  0.53130001900E+02 -0.63412582768E+02  0.82962759750E+03  0.83374210838E+03  0.00000000000E+00 0. -1.
         -3    1    3    3    0  502  0.86819512621E+02 -0.11261213144E+03  0.63287235162E+03  0.64864977713E+03  0.00000000000E+00 0.  1.
         11    1    5    5    0    0  0.15042689322E+03 -0.17206028565E+02 -0.16103145926E+03  0.22103264124E+03  0.00000000000E+00 0.  1.
        -11    1    5    5    0    0  0.37927646204E+02  0.12999768635E+02 -0.14210782340E+03  0.14765545639E+03  0.00000000000E+00 0. -1.
          3    1    6    6  503    0 -0.11248733848E+03  0.10852093481E+03  0.19946761264E+03  0.25341176591E+03  0.00000000000E+00 0. -1.
         -3    1    6    6    0  503 -0.21581671547E+03  0.71710039334E+02  0.21377949346E+03  0.31212314275E+03  0.00000000000E+00 0.  1.
<mgrwt>
<rscale>  0 0.18349203E+04</rscale>
<asrwt>0</asrwt>
<pdfrwt beam="1">  1        2 0.30686328E+00 0.18349203E+04</pdfrwt>
<pdfrwt beam="2">  1       -2 0.64923625E-01 0.18349203E+04</pdfrwt>
<totfact> 0.13861564E+01</totfact>
</mgrwt>
</event>
<event>
12    2  0.8147979E-008  0.1731976E+04  0.7818608E-02  0.8743335E-01
         -2   -1    0    0    0  501 -0.00000000000E+00  0.00000000000E+00  0.80123007766E+03  0.80123007766E+03  0.00000000000E+00 0.  1.
          2   -1    0    0  501    0  0.00000000000E+00 -0.00000000000E+00 -0.93597969657E+03  0.93597969657E+03  0.00000000000E+00 0. -1.
         23    2    1    2    0    0 -0.31221188567E+03  0.54349062333E+03 -0.17607683809E+02  0.63371805389E+03  0.91816240892E+02 0.  0.
        254    2    1    2    0    0  0.31221188567E+03 -0.54349062333E+03 -0.11714193510E+03  0.11034917203E+04  0.90061835686E+03 0.  0.
         23    2    4    4    0    0 -0.15519391929E+03 -0.85175719197E+02 -0.34924499711E+03  0.40293996695E+03  0.95123568214E+02 0.  0.
         23    2    4    4    0    0  0.46740580496E+03 -0.45831490413E+03  0.23210306201E+03  0.70055175340E+03  0.91543377330E+02 0.  0.
          1    1    3    3  502    0 -0.25190923274E+03  0.42029598020E+03 -0.50693390537E+02  0.49262236283E+03  0.00000000000E+00 0. -1.
         -1    1    3    3    0  502 -0.60302652931E+02  0.12319464313E+03  0.33085706728E+02  0.14109569106E+03  0.00000000000E+00 0.  1.
         11    1    5    5    0    0 -0.28821435831E+02 -0.15211205265E+00 -0.14676560445E+03  0.14956885020E+03  0.00000000000E+00 0. -1.
        -11    1    5    5    0    0 -0.12637248346E+03 -0.85023607144E+02 -0.20247939267E+03  0.25337111675E+03  0.00000000000E+00 0.  1.
          4    1    6    6  503    0  0.14846213282E+02 -0.46474387403E+02  0.11741575958E+02  0.50181105401E+02  0.00000000000E+00 0. -1.
         -4    1    6    6    0  503  0.45255959168E+03 -0.41184051673E+03  0.22036148606E+03  0.65037064800E+03  0.00000000000E+00 0.  1.
<mgrwt>
<rscale>  0 0.17319758E+04</rscale>
<asrwt>0</asrwt>
<pdfrwt beam="1">  1        2 0.14399688E+00 0.17319758E+04</pdfrwt>
<pdfrwt beam="2">  1       -2 0.12326617E+00 0.17319758E+04</pdfrwt>
<totfact> 0.13073034E+01</totfact>
</mgrwt>
</event>
<event>
12    2  0.8147979E-008  0.1551160E+04  0.7818608E-02  0.8851127E-01
          2   -1    0    0  501    0  0.00000000000E+00  0.00000000000E+00  0.60177327360E+03  0.60177327360E+03  0.00000000000E+00 0. -1.
         -2   -1    0    0    0  501 -0.00000000000E+00 -0.00000000000E+00 -0.99958689493E+03  0.99958689493E+03  0.00000000000E+00 0.  1.
         23    2    1    2    0    0  0.26092084067E+03  0.33667180639E+03  0.15064777257E+03  0.46105484163E+03  0.91919667634E+02 0.  0.
        254    2    1    2    0    0 -0.26092084067E+03 -0.33667180639E+03 -0.54846139389E+03  0.11403053269E+04  0.90446600139E+03 0.  0.
         23    2    4    4    0    0  0.51860394795E+02 -0.21300414164E+03 -0.71481381331E+03  0.75314782569E+03  0.90623367515E+02 0.  0.
         23    2    4    4    0    0 -0.31278123546E+03 -0.12366766475E+03  0.16635241942E+03  0.38715750121E+03  0.95352035828E+02 0.  0.
          4    1    3    3  502    0  0.17852867645E+03  0.25403270871E+03  0.67436411307E+02  0.31773066421E+03  0.00000000000E+00 0.  1.
         -4    1    3    3    0  502  0.82392164219E+02  0.82639097676E+02  0.83211361262E+02  0.14332417742E+03  0.00000000000E+00 0. -1.
         11    1    5    5    0    0 -0.52499757849E+01 -0.14051647701E+03 -0.49895492038E+03  0.51839025370E+03  0.00000000000E+00 0. -1.
        -11    1    5    5    0    0  0.57110370580E+02 -0.72487664622E+02 -0.21585889293E+03  0.23475757199E+03  0.00000000000E+00 0.  1.
          4    1    6    6  503    0 -0.28173536947E+03 -0.13827040163E+03  0.13882381068E+03  0.34316988911E+03  0.00000000000E+00 0. -1.
         -4    1    6    6    0  503 -0.31045865991E+02  0.14602736883E+02  0.27528608735E+02  0.43987612103E+02  0.00000000000E+00 0.  1.
<mgrwt>
<rscale>  0 0.15511604E+04</rscale>
<asrwt>0</asrwt>
<pdfrwt beam="1">  1        2 0.92580503E-01 0.15511604E+04</pdfrwt>
<pdfrwt beam="2">  1       -2 0.15378260E+00 0.15511604E+04</pdfrwt>
<totfact> 0.13326314E+01</totfact>
</mgrwt>
</event>
<event>
12    2  0.8147979E-008  0.3177445E+04  0.7818608E-02  0.8194799E-01
         -1   -1    0    0    0  501 -0.00000000000E+00  0.00000000000E+00  0.14759274370E+04  0.14759274370E+04  0.00000000000E+00 0.  1.
          1   -1    0    0  501    0  0.00000000000E+00 -0.00000000000E+00 -0.17101373743E+04  0.17101373743E+04  0.00000000000E+00 0. -1.
         23    2    1    2    0    0  0.12943497113E+04 -0.50048709045E+03 -0.56562534653E+03  0.15013622135E+04  0.91257661208E+02 0.  0.
        254    2    1    2    0    0 -0.12943497113E+04  0.50048709045E+03  0.33141540923E+03  0.16847025977E+04  0.89585610804E+03 0.  0.
         23    2    4    4    0    0 -0.41411004477E+03 -0.19840098647E+03  0.30282564052E+03  0.55755645317E+03  0.91190730384E+02 0.  0.
         23    2    4    4    0    0 -0.88023966655E+03  0.69888807692E+03  0.28589768711E+02  0.11271461445E+04  0.79841352798E+02 0.  0.
          2    1    3    3  502    0  0.72308393630E+03 -0.30729834953E+03 -0.35997648599E+03  0.86421393475E+03  0.00000000000E+00 0. -1.
         -2    1    3    3    0  502  0.57126577502E+03 -0.19318874093E+03 -0.20564886054E+03  0.63714827879E+03  0.00000000000E+00 0.  1.
         11    1    5    5    0    0 -0.17804345635E+03 -0.11107833425E+03  0.91609838730E+02  0.22897648622E+03  0.00000000000E+00 0. -1.
        -11    1    5    5    0    0 -0.23606658841E+03 -0.87322652220E+02  0.21121580179E+03  0.32857996695E+03  0.00000000000E+00 0.  1.
          2    1    6    6  503    0 -0.18278386666E+03  0.12151188963E+03  0.31306395368E+02  0.22170965613E+03  0.00000000000E+00 0. -1.
         -2    1    6    6    0  503 -0.69745579990E+03  0.57737618729E+03 -0.27166266578E+01  0.90543648839E+03  0.00000000000E+00 0.  1.
<mgrwt>
<rscale>  0 0.31774447E+04</rscale>
<asrwt>0</asrwt>
<pdfrwt beam="1">  1        1 0.26309806E+00 0.31774447E+04</pdfrwt>
<pdfrwt beam="2">  1       -1 0.22706576E+00 0.31774447E+04</pdfrwt>
<totfact> 0.38820833E-01</totfact>
</mgrwt>
</event>
<event>
12    2  0.8147979E-008  0.2603138E+04  0.7818608E-02  0.8367136E-01
         -2   -1    0    0    0  501 -0.00000000000E+00  0.00000000000E+00  0.95389626075E+03  0.95389626075E+03  0.00000000000E+00 0.  1.
          2   -1    0    0  501    0  0.00000000000E+00 -0.00000000000E+00 -0.17759600367E+04  0.17759600367E+04  0.00000000000E+00 0. -1.
         23    2    1    2    0    0  0.54128780146E+03 -0.10018947172E+04 -0.47986710696E+03  0.12392054995E+04  0.92586831305E+02 0.  0.
        254    2    1    2    0    0 -0.54128780146E+03  0.10018947172E+04 -0.34219666903E+03  0.14906507979E+04  0.89897482316E+03 0.  0.
         23    2    4    4    0    0  0.10740225456E+03  0.40123336087E+03  0.17778297167E+03  0.46082188470E+03  0.90700442316E+02 0.  0.
         23    2    4    4    0    0 -0.64869005603E+03  0.60066135636E+03 -0.51997964071E+03  0.10298289132E+04  0.92606209278E+02 0.  0.
          3    1    3    3  502    0  0.36006689933E+03 -0.75104688873E+03 -0.35917303684E+03  0.90704182453E+03  0.00000000000E+00 0. -1.
         -3    1    3    3    0  502  0.18122090213E+03 -0.25084782851E+03 -0.12069407012E+03  0.33216367502E+03  0.00000000000E+00 0.  1.
         11    1    5    5    0    0  0.77116994256E+02  0.37184716541E+03  0.14181730665E+03  0.40537574384E+03  0.00000000000E+00 0. -1.
        -11    1    5    5    0    0  0.30285260307E+02  0.29386195465E+02  0.35965665025E+02  0.55446140862E+02  0.00000000000E+00 0.  1.
          3    1    6    6  503    0 -0.30611081752E+03  0.29722725149E+03 -0.19866417450E+03  0.47065414676E+03  0.00000000000E+00 0.  1.
         -3    1    6    6    0  503 -0.34257923851E+03  0.30343410487E+03 -0.32131546620E+03  0.55917476649E+03  0.00000000000E+00 0. -1.
<mgrwt>
<rscale>  0 0.26031378E+04</rscale>
<asrwt>0</asrwt>
<pdfrwt beam="1">  1        2 0.27322462E+00 0.26031378E+04</pdfrwt>
<pdfrwt beam="2">  1       -2 0.14675327E+00 0.26031378E+04</pdfrwt>
<totfact> 0.24985240E+00</totfact>
</mgrwt>
</event>
<event>
12    2  0.8147979E-008  0.1768715E+04  0.7818608E-02  0.8723116E-01
          1   -1    0    0  501    0  0.00000000000E+00  0.00000000000E+00  0.20908302045E+04  0.20908302045E+04  0.00000000000E+00 0. -1.
         -1   -1    0    0    0  501 -0.00000000000E+00 -0.00000000000E+00 -0.37405608530E+03  0.37405608530E+03  0.00000000000E+00 0.  1.
         23    2    1    2    0    0 -0.45605019672E+02  0.64660833122E+03  0.70587649440E+03  0.96264893311E+03  0.90825058540E+02 0.  0.
        254    2    1    2    0    0  0.45605019672E+02 -0.64660833122E+03  0.10108976248E+04  0.15022373567E+04  0.90256352471E+03 0.  0.
         23    2    4    4    0    0  0.32419422297E+02 -0.86711549885E+03  0.80075846296E+03  0.11838269767E+04  0.85392548812E+02 0.  0.
         23    2    4    4    0    0  0.13185597375E+02  0.22050716763E+03  0.21013916180E+03  0.31841037999E+03  0.91811937179E+02 0.  0.
          4    1    3    3  502    0 -0.28359023967E+02  0.36662950331E+03  0.33342066070E+03  0.49637764245E+03  0.00000000000E+00 0.  1.
         -4    1    3    3    0  502 -0.17245995705E+02  0.27997882791E+03  0.37245583370E+03  0.46627129067E+03  0.00000000000E+00 0. -1.
         11    1    5    5    0    0  0.43975678013E+02 -0.43374523490E+03  0.35743025174E+03  0.56375985482E+03  0.00000000000E+00 0.  1.
        -11    1    5    5    0    0 -0.11556255716E+02 -0.43337026395E+03  0.44332821123E+03  0.62006712184E+03  0.00000000000E+00 0. -1.
          4    1    6    6  503    0  0.44525547649E+02  0.16536057499E+03  0.17908629411E+03  0.24778729768E+03  0.00000000000E+00 0. -1.
         -4    1    6    6    0  503 -0.31339950274E+02  0.55146592638E+02  0.31052867695E+02  0.70623082309E+02  0.00000000000E+00 0.  1.
<mgrwt>
<rscale>  0 0.17687145E+04</rscale>
<asrwt>0</asrwt>
<pdfrwt beam="1">  1        1 0.32166618E+00 0.17687145E+04</pdfrwt>
<pdfrwt beam="2">  1       -1 0.57547091E-01 0.17687145E+04</pdfrwt>
<totfact> 0.74828822E+00</totfact>
</mgrwt>
</event>
<event>
12    2  0.8147979E-008  0.1487015E+04  0.7818608E-02  0.8893134E-01
          2   -1    0    0  501    0  0.00000000000E+00  0.00000000000E+00  0.17008772462E+04  0.17008772462E+04  0.00000000000E+00 0. -1.
         -2   -1    0    0    0  501 -0.00000000000E+00 -0.00000000000E+00 -0.32501076160E+03  0.32501076160E+03  0.00000000000E+00 0.  1.
         23    2    1    2    0    0 -0.25456007629E+03 -0.31878963111E+03  0.13419808493E+03  0.43933116774E+03  0.92601768890E+02 0.  0.
        254    2    1    2    0    0  0.25456007629E+03  0.31878963111E+03  0.12416683996E+04  0.15865568400E+04  0.89944123247E+03 0.  0.
         23    2    4    4    0    0  0.53402980263E+03  0.39546615272E+03  0.72784251406E+03  0.98972810062E+03  0.90695533758E+02 0.  0.
         23    2    4    4    0    0 -0.27946972634E+03 -0.76676521613E+02  0.51382588559E+03  0.59682873943E+03  0.90580829093E+02 0.  0.
          1    1    3    3  502    0 -0.87695476841E+02 -0.18034700148E+03  0.49501749751E+02  0.20655740323E+03  0.00000000000E+00 0. -1.
         -1    1    3    3    0  502 -0.16686459945E+03 -0.13844262962E+03  0.84696335181E+02  0.23277376450E+03  0.00000000000E+00 0.  1.
         11    1    5    5    0    0  0.21033426368E+02  0.16619104843E+02  0.63048747470E+02  0.68510905906E+02  0.00000000000E+00 0.  1.
        -11    1    5    5    0    0  0.51299637626E+03  0.37884704788E+03  0.66479376659E+03  0.92121719471E+03  0.00000000000E+00 0. -1.
          3    1    6    6  503    0 -0.21285138048E+03 -0.70575992748E+02  0.45700122518E+03  0.50905481113E+03  0.00000000000E+00 0. -1.
         -3    1    6    6    0  503 -0.66618345858E+02 -0.61005288645E+01  0.56824660413E+02  0.87773928295E+02  0.00000000000E+00 0.  1.
<mgrwt>
<rscale>  0 0.14870150E+04</rscale>
<asrwt>0</asrwt>
<pdfrwt beam="1">  1        2 0.26167342E+00 0.14870150E+04</pdfrwt>
<pdfrwt beam="2">  1       -2 0.50001657E-01 0.14870150E+04</pdfrwt>
<totfact> 0.35844719E+01</totfact>
</mgrwt>
</event>
<event>
12    2  0.8147979E-008  0.1800930E+04  0.7818608E-02  0.8705805E-01
         -2   -1    0    0    0  501 -0.00000000000E+00  0.00000000000E+00  0.81378166247E+03  0.81378166247E+03  0.00000000000E+00 0. -1.
          2   -1    0    0  501    0  0.00000000000E+00 -0.00000000000E+00 -0.99638204707E+03  0.99638204707E+03  0.00000000000E+00 0.  1.
         23    2    1    2    0    0 -0.56799774734E+03 -0.33905091168E+03  0.53253335058E+02  0.66995260278E+03  0.91780229797E+02 0.  0.
        254    2    1    2    0    0  0.56799774734E+03  0.33905091168E+03 -0.23585371966E+03  0.11402111068E+04  0.89826356333E+03 0.  0.
         23    2    4    4    0    0  0.39144852525E+03  0.41809331715E+03  0.23298460377E+03  0.62488908077E+03  0.90391193752E+02 0.  0.
         23    2    4    4    0    0  0.17654922208E+03 -0.79042405464E+02 -0.46883832343E+03  0.51532202599E+03  0.91269311773E+02 0.  0.
          4    1    3    3  502    0 -0.29945152566E+03 -0.19351527331E+03  0.72749130259E+02  0.36388434038E+03  0.00000000000E+00 0.  1.
         -4    1    3    3    0  502 -0.26854622168E+03 -0.14553563837E+03 -0.19495795201E+02  0.30606826239E+03  0.00000000000E+00 0. -1.
         11    1    5    5    0    0  0.33363371803E+03  0.30841239119E+03  0.16423173391E+03  0.48311667666E+03  0.00000000000E+00 0.  1.
        -11    1    5    5    0    0  0.57814807223E+02  0.10968092596E+03  0.68752869854E+02  0.14177240411E+03  0.00000000000E+00 0. -1.
          4    1    6    6  503    0  0.83540187033E-01 -0.30229756444E+02 -0.80405819846E+02  0.85900762620E+02  0.00000000000E+00 0. -1.
         -4    1    6    6    0  503  0.17646568190E+03 -0.48812649020E+02 -0.38843250358E+03  0.42942126336E+03  0.00000000000E+00 0.  1.
<mgrwt>
<rscale>  0 0.18009302E+04</rscale>
<asrwt>0</asrwt>
<pdfrwt beam="1">  1        2 0.15328955E+00 0.18009302E+04</pdfrwt>
<pdfrwt beam="2">  1       -2 0.12519718E+00 0.18009302E+04</pdfrwt>
<totfact> 0.11417455E+01</totfact>
</mgrwt>
</event>
<event>
12    2  0.8147979E-008  0.2029062E+04  0.7818608E-02  0.8593152E-01
         -2   -1    0    0    0  501 -0.00000000000E+00  0.00000000000E+00  0.23603778901E+03  0.23603778901E+03  0.00000000000E+00 0.  1.
          2   -1    0    0  501    0  0.00000000000E+00 -0.00000000000E+00 -0.43606289550E+04  0.43606289550E+04  0.00000000000E+00 0. -1.
         23    2    1    2    0    0 -0.75761084952E+03 -0.11729315419E+03 -0.22599403243E+04  0.23881873728E+04  0.91524723014E+02 0.  0.
        254    2    1    2    0    0  0.75761084952E+03  0.11729315419E+03 -0.18646508417E+04  0.22084793712E+04  0.90151344320E+03 0.  0.
         23    2    4    4    0    0  0.84340706317E+03 -0.33378988706E+02 -0.18166793882E+04  0.20053166256E+04  0.92310012312E+02 0.  0.
         23    2    4    4    0    0 -0.85796213652E+02  0.15067214290E+03 -0.47971453536E+02  0.20316274562E+03  0.94396800438E+02 0.  0.
          4    1    3    3  502    0 -0.44393517494E+03 -0.82373433968E+02 -0.14605387316E+04  0.15287371287E+04  0.00000000000E+00 0. -1.
         -4    1    3    3    0  502 -0.31367567458E+03 -0.34919720222E+02 -0.79940159269E+03  0.85945024409E+03  0.00000000000E+00 0.  1.
         11    1    5    5    0    0  0.76266564293E+03 -0.38572452649E+02 -0.16964283139E+04  0.18603805366E+04  0.00000000000E+00 0.  1.
        -11    1    5    5    0    0  0.80741420245E+02  0.51934639428E+01 -0.12025107432E+03  0.14493608897E+03  0.00000000000E+00 0. -1.
          1    1    6    6  503    0 -0.26209845379E+02 -0.78242897929E+01 -0.12898491193E+02  0.30241471205E+02  0.00000000000E+00 0. -1.
         -1    1    6    6    0  503 -0.59586368273E+02  0.15849643269E+03 -0.35072962344E+02  0.17292127442E+03  0.00000000000E+00 0.  1.
<mgrwt>
<rscale>  0 0.20290621E+04</rscale>
<asrwt>0</asrwt>
<pdfrwt beam="1">  1        2 0.67086598E+00 0.20290621E+04</pdfrwt>
<pdfrwt beam="2">  1       -2 0.36313507E-01 0.20290621E+04</pdfrwt>
<totfact> 0.11203956E+00</totfact>
</mgrwt>
</event>
<event>
12    2  0.8147979E-008  0.1925636E+04  0.7818608E-02  0.8642200E-01
         -1   -1    0    0    0  501 -0.00000000000E+00  0.00000000000E+00  0.34561549244E+03  0.34561549244E+03  0.00000000000E+00 0.  1.
          1   -1    0    0  501    0  0.00000000000E+00 -0.00000000000E+00 -0.26822256724E+04  0.26822256724E+04  0.00000000000E+00 0. -1.
         23    2    1    2    0    0 -0.84700583485E+02  0.73701056818E+03 -0.10740537777E+04  0.13087806682E+04  0.94639071106E+02 0.  0.
        254    2    1    2    0    0  0.84700583485E+02 -0.73701056818E+03 -0.12625564023E+04  0.17190604966E+04  0.90042298700E+03 0.  0.
         23    2    4    4    0    0 -0.25410944193E+03 -0.70331325904E+03 -0.10936292585E+04  0.13276824653E+04  0.86571501398E+02 0.  0.
         23    2    4    4    0    0  0.33881002541E+03 -0.33697309144E+02 -0.16892714378E+03  0.39137803126E+03  0.93341531409E+02 0.  0.
          2    1    3    3  502    0  0.44733521971E+01  0.15031191126E+03 -0.27545455071E+03  0.31382939800E+03  0.00000000000E+00 0. -1.
         -2    1    3    3    0  502 -0.89173935682E+02  0.58669865692E+03 -0.79859922696E+03  0.99495127023E+03  0.00000000000E+00 0.  1.
         11    1    5    5    0    0 -0.15441139645E+03 -0.53386493399E+03 -0.78722194465E+03  0.96362494635E+03  0.00000000000E+00 0. -1.
        -11    1    5    5    0    0 -0.99698045480E+02 -0.16944832504E+03 -0.30640731386E+03  0.36405751897E+03  0.00000000000E+00 0.  1.
          4    1    6    6  503    0  0.31178959336E+03 -0.47194772461E+02 -0.17488849727E+03  0.36059129711E+03  0.00000000000E+00 0.  1.
         -4    1    6    6    0  503  0.27020432058E+02  0.13497463317E+02  0.59613534884E+01  0.30786734156E+02  0.00000000000E+00 0. -1.
<mgrwt>
<rscale>  0 0.19256363E+04</rscale>
<asrwt>0</asrwt>
<pdfrwt beam="1">  1        1 0.41265010E+00 0.19256363E+04</pdfrwt>
<pdfrwt beam="2">  1       -1 0.53171615E-01 0.19256363E+04</pdfrwt>
<totfact> 0.33679061E+00</totfact>
</mgrwt>
</event>
<event>
12    2  0.8147979E-008  0.1924669E+04  0.7818608E-02  0.8642673E-01
          1   -1    0    0  501    0  0.00000000000E+00  0.00000000000E+00  0.19366493822E+04  0.19366493822E+04  0.00000000000E+00 0. -1.
         -1   -1    0    0    0  501 -0.00000000000E+00 -0.00000000000E+00 -0.47819083140E+03  0.47819083140E+03  0.00000000000E+00 0.  1.
         23    2    1    2    0    0 -0.70220891929E+03  0.24654227379E+03  0.66811150955E+03  0.10041046860E+04  0.89290381459E+02 0.  0.
        254    2    1    2    0    0  0.70220891929E+03 -0.24654227379E+03  0.79034704127E+03  0.14107355276E+04  0.90091388271E+03 0.  0.
         23    2    4    4    0    0  0.79447440090E+03 -0.96414437413E+02  0.88121850146E+03  0.11938156756E+04  0.90357636501E+02 0.  0.
         23    2    4    4    0    0 -0.92265481604E+02 -0.15012783638E+03 -0.90871460187E+02  0.21691985203E+03  0.88007463196E+02 0.  0.
          3    1    3    3  502    0 -0.34670242965E+03  0.15252094921E+03  0.38435231045E+03  0.53962200958E+03  0.00000000000E+00 0. -1.
         -3    1    3    3    0  502 -0.35550648964E+03  0.94021324582E+02  0.28375919911E+03  0.46448267646E+03  0.00000000000E+00 0.  1.
         11    1    5    5    0    0  0.46896228317E+03 -0.66204842081E+02  0.45597014530E+03  0.65743248897E+03  0.00000000000E+00 0.  1.
        -11    1    5    5    0    0  0.32551211773E+03 -0.30209595332E+02  0.42524835616E+03  0.53638318659E+03  0.00000000000E+00 0. -1.
          3    1    6    6  503    0 -0.79031522106E+01 -0.94271259161E+02 -0.32036810394E+02  0.99879363930E+02  0.00000000000E+00 0. -1.
         -3    1    6    6    0  503 -0.84362329393E+02 -0.55856577214E+02 -0.58834649793E+02  0.11704048810E+03  0.00000000000E+00 0.  1.
<mgrwt>
<rscale>  0 0.19246693E+04</rscale>
<asrwt>0</asrwt>
<pdfrwt beam="1">  1        1 0.29794605E+00 0.19246693E+04</pdfrwt>
<pdfrwt beam="2">  1       -1 0.73567821E-01 0.19246693E+04</pdfrwt>
<totfact> 0.57176830E+00</totfact>
</mgrwt>
</event>
<event>
12    2  0.8147979E-008  0.1772643E+04  0.7818608E-02  0.8720985E-01
          2   -1    0    0  501    0  0.00000000000E+00  0.00000000000E+00  0.87771821514E+03  0.87771821514E+03  0.00000000000E+00 0. -1.
         -2   -1    0    0    0  501 -0.00000000000E+00 -0.00000000000E+00 -0.89500867079E+03  0.89500867079E+03  0.00000000000E+00 0.  1.
         23    2    1    2    0    0 -0.64525577137E+03 -0.28117141422E+02 -0.11012109742E+03  0.66118401164E+03  0.88837250251E+02 0.  0.
        254    2    1    2    0    0  0.64525577137E+03  0.28117141422E+02  0.92830641768E+02  0.11115428743E+04  0.89986912893E+03 0.  0.
         23    2    4    4    0    0 -0.30680122877E+02  0.16193202223E+03 -0.26890802099E+03  0.32772701768E+03  0.89051808531E+02 0.  0.
         23    2    4    4    0    0  0.67593589425E+03 -0.13381488081E+03  0.36173866275E+03  0.78381585660E+03  0.93363169803E+02 0.  0.
          3    1    3    3  502    0 -0.32248972618E+03 -0.57713386673E+02 -0.63858785745E+02  0.33377897329E+03  0.00000000000E+00 0. -1.
         -3    1    3    3    0  502 -0.32276604519E+03  0.29596245251E+02 -0.46262311672E+02  0.32740503836E+03  0.00000000000E+00 0.  1.
         11    1    5    5    0    0 -0.41348139765E+02  0.43037477835E+02 -0.47841722109E+02  0.76490022452E+02  0.00000000000E+00 0. -1.
        -11    1    5    5    0    0  0.10668016887E+02  0.11889454440E+03 -0.22106629888E+03  0.25123699523E+03  0.00000000000E+00 0.  1.
          3    1    6    6  503    0  0.23820385558E+02  0.64631105112E+00 -0.39734650549E+01  0.24158164472E+02  0.00000000000E+00 0. -1.
         -3    1    6    6    0  503  0.65211550869E+03 -0.13446119186E+03  0.36571212781E+03  0.75965769213E+03  0.00000000000E+00 0.  1.
<mgrwt>
<rscale>  0 0.17726426E+04</rscale>
<asrwt>0</asrwt>
<pdfrwt beam="1">  1        2 0.13503357E+00 0.17726426E+04</pdfrwt>
<pdfrwt beam="2">  1       -2 0.13769364E+00 0.17726426E+04</pdfrwt>
<totfact> 0.10771222E+01</totfact>
</mgrwt>
</event>
<event>
12    2  0.8147979E-008  0.1518355E+04  0.7818608E-02  0.8872338E-01
         -1   -1    0    0    0  501 -0.00000000000E+00  0.00000000000E+00  0.30379696134E+03  0.30379696134E+03  0.00000000000E+00 0.  1.
          1   -1    0    0  501    0  0.00000000000E+00 -0.00000000000E+00 -0.18971573293E+04  0.18971573293E+04  0.00000000000E+00 0. -1.
         23    2    1    2    0    0 -0.46586063668E+03 -0.10972370010E+03 -0.41456232263E+03  0.63957586629E+03  0.90166214438E+02 0.  0.
        254    2    1    2    0    0  0.46586063668E+03  0.10972370010E+03 -0.11787980453E+04  0.15613784243E+04  0.90513663564E+03 0.  0.
         23    2    4    4    0    0  0.50690935780E+03 -0.15178554153E+03 -0.25156462049E+03  0.59279021675E+03  0.90108463290E+02 0.  0.
         23    2    4    4    0    0 -0.41048721121E+02  0.26150924163E+03 -0.92723342481E+03  0.96858820757E+03  0.91264510020E+02 0.  0.
          2    1    3    3  502    0 -0.33785032585E+03 -0.93968667424E+02 -0.34957502988E+03  0.49515215303E+03  0.00000000000E+00 0. -1.
         -2    1    3    3    0  502 -0.12801031082E+03 -0.15755032676E+02 -0.64987292750E+02  0.14442371326E+03  0.00000000000E+00 0.  1.
         11    1    5    5    0    0  0.13936154175E+03 -0.75428511103E+02 -0.10338393557E+03  0.18920712920E+03  0.00000000000E+00 0. -1.
        -11    1    5    5    0    0  0.36754781604E+03 -0.76357030429E+02 -0.14818068492E+03  0.40358308755E+03  0.00000000000E+00 0.  1.
          3    1    6    6  503    0 -0.38496636778E+02  0.14356336078E+03 -0.36485571605E+03  0.39396969825E+03  0.00000000000E+00 0. -1.
         -3    1    6    6    0  503 -0.25520843430E+01  0.11794588085E+03 -0.56237770876E+03  0.57461850932E+03  0.00000000000E+00 0.  1.
<mgrwt>
<rscale>  0 0.15183552E+04</rscale>
<asrwt>0</asrwt>
<pdfrwt beam="1">  1        1 0.29187035E+00 0.15183552E+04</pdfrwt>
<pdfrwt beam="2">  1       -1 0.46737995E-01 0.15183552E+04</pdfrwt>
<totfact> 0.15423876E+01</totfact>
</mgrwt>
</event>
<event>
12    2  0.8623975E-008  0.2276557E+04  0.7818608E-02  0.8487222E-01
         -2   -1    0    0    0  501 -0.00000000000E+00  0.00000000000E+00  0.97141237683E+03  0.97141237683E+03  0.00000000000E+00 0.  1.
          2   -1    0    0  501    0  0.00000000000E+00 -0.00000000000E+00 -0.13338080414E+04  0.13338080414E+04  0.00000000000E+00 0. -1.
         23    2    1    2    0    0  0.54162821553E+03  0.55919739881E+03  0.41904085300E+03  0.88887330627E+03  0.91856754874E+02 0.  0.
        254    2    1    2    0    0 -0.54162821553E+03 -0.55919739881E+03 -0.78143651756E+03  0.14163471120E+04  0.88844428970E+03 0.  0.
         23    2    4    4    0    0 -0.65190737053E+03 -0.41242311410E+03 -0.20343089932E+03  0.80275507784E+03  0.89193830459E+02 0.  0.
         23    2    4    4    0    0  0.11027915500E+03 -0.14677428470E+03 -0.57800561824E+03  0.61359203413E+03  0.93276508046E+02 0.  0.
          3    1    3    3  502    0  0.33262436222E+03  0.40547967625E+03  0.27966607740E+03  0.59436171566E+03  0.00000000000E+00 0. -1.
         -3    1    3    3    0  502  0.20900385331E+03  0.15371772256E+03  0.13937477560E+03  0.29451159061E+03  0.00000000000E+00 0.  1.
         11    1    5    5    0    0 -0.32215593344E+02 -0.91844035271E+01 -0.26053470966E+02  0.42437967341E+02  0.00000000000E+00 0. -1.
        -11    1    5    5    0    0 -0.61969177719E+03 -0.40323871058E+03 -0.17737742836E+03  0.76031711050E+03  0.00000000000E+00 0.  1.
          3    1    6    6  503    0  0.10482331461E+02 -0.23525836743E+02 -0.17637341166E+02  0.31215702310E+02  0.00000000000E+00 0. -1.
         -3    1    6    6    0  503  0.99796823538E+02 -0.12324844796E+03 -0.56036827707E+03  0.58237633182E+03  0.00000000000E+00 0.  1.
<mgrwt>
<rscale>  0 0.22765567E+04</rscale>
<asrwt>0</asrwt>
<pdfrwt beam="1">  1        2 0.20520124E+00 0.22765567E+04</pdfrwt>
<pdfrwt beam="2">  1       -2 0.14944806E+00 0.22765567E+04</pdfrwt>
<totfact> 0.43427829E+00</totfact>
</mgrwt>
</event>
<event>
12    2  0.8147979E-008  0.3068627E+04  0.7818608E-02  0.8224401E-01
          2   -1    0    0  501    0  0.00000000000E+00  0.00000000000E+00  0.33129883765E+04  0.33129883765E+04  0.00000000000E+00 0. -1.
         -2   -1    0    0    0  501 -0.00000000000E+00 -0.00000000000E+00 -0.71057229915E+03  0.71057229915E+03  0.00000000000E+00 0.  1.
         23    2    1    2    0    0  0.74828765470E+03 -0.11468859324E+04  0.80183044105E+03  0.15891974090E+04  0.85642236561E+02 0.  0.
        254    2    1    2    0    0 -0.74828765470E+03  0.11468859324E+04  0.18005856363E+04  0.24343632666E+04  0.89929646063E+03 0.  0.
         23    2    4    4    0    0 -0.24970212063E+03  0.58399357543E+03  0.14789553275E+04  0.16120436987E+04  0.89310584710E+02 0.  0.
         23    2    4    4    0    0 -0.49858553408E+03  0.56289235693E+03  0.32163030879E+03  0.82231956790E+03  0.85604181798E+02 0.  0.
          1    1    3    3  502    0  0.46746305864E+03 -0.76843617574E+03  0.49216833475E+03  0.10253026563E+04  0.00000000000E+00 0. -1.
         -1    1    3    3    0  502  0.28082459606E+03 -0.37844975663E+03  0.30966210630E+03  0.56389475270E+03  0.00000000000E+00 0.  1.
         11    1    5    5    0    0 -0.77667741437E+02  0.21800497892E+03  0.64369245348E+03  0.68403101068E+03  0.00000000000E+00 0. -1.
        -11    1    5    5    0    0 -0.17203437919E+03  0.36598859651E+03  0.83526287405E+03  0.92801268804E+03  0.00000000000E+00 0.  1.
          1    1    6    6  503    0 -0.26132833280E+03  0.35712685289E+03  0.19803756255E+03  0.48482054697E+03  0.00000000000E+00 0. -1.
         -1    1    6    6    0  503 -0.23725720127E+03  0.20576550404E+03  0.12359274623E+03  0.33749902093E+03  0.00000000000E+00 0.  1.
<mgrwt>
<rscale>  0 0.30686269E+04</rscale>
<asrwt>0</asrwt>
<pdfrwt beam="1">  1        2 0.50969051E+00 0.30686269E+04</pdfrwt>
<pdfrwt beam="2">  1       -2 0.10931882E+00 0.30686269E+04</pdfrwt>
<totfact> 0.61930555E-01</totfact>
</mgrwt>
</event>
<event>
12    2  0.8147979E-008  0.2295773E+04  0.7818608E-02  0.8479590E-01
          1   -1    0    0  501    0  0.00000000000E+00  0.00000000000E+00  0.17533402027E+04  0.17533402027E+04  0.00000000000E+00 0. -1.
         -1   -1    0    0    0  501 -0.00000000000E+00 -0.00000000000E+00 -0.75150455855E+03  0.75150455855E+03  0.00000000000E+00 0.  1.
         23    2    1    2    0    0  0.37651195674E+02 -0.95744171996E+03  0.58589612381E+03  0.11267762019E+04  0.90763878157E+02 0.  0.
        254    2    1    2    0    0 -0.37651195674E+02  0.95744171996E+03  0.41593952031E+03  0.13780685593E+04  0.89886317648E+03 0.  0.
         23    2    4    4    0    0  0.34977442033E+03  0.21435399847E+03 -0.37263272349E+02  0.42098745102E+03  0.86902823139E+02 0.  0.
         23    2    4    4    0    0 -0.38742561601E+03  0.74308772149E+03  0.45320279266E+03  0.95708110832E+03  0.91288043360E+02 0.  0.
          1    1    3    3  502    0 -0.14633190969E+02 -0.64493427565E+03  0.41020523884E+03  0.76447543332E+03  0.00000000000E+00 0. -1.
         -1    1    3    3    0  502  0.52284386643E+02 -0.31250744431E+03  0.17569088497E+03  0.36230076856E+03  0.00000000000E+00 0.  1.
         11    1    5    5    0    0  0.15082665226E+03  0.59086214758E+02  0.16927839278E+02  0.16286930819E+03  0.00000000000E+00 0.  1.
        -11    1    5    5    0    0  0.19894776807E+03  0.15526778371E+03 -0.54191111627E+02  0.25811814283E+03  0.00000000000E+00 0. -1.
          3    1    6    6  503    0 -0.37287693937E+03  0.65525620504E+03  0.40293889472E+03  0.85484364596E+03  0.00000000000E+00 0. -1.
         -3    1    6    6    0  503 -0.14548676635E+02  0.87831516454E+02  0.50263897940E+02  0.10223746236E+03  0.00000000000E+00 0.  1.
<mgrwt>
<rscale>  0 0.22957728E+04</rscale>
<asrwt>0</asrwt>
<pdfrwt beam="1">  1        1 0.26974464E+00 0.22957728E+04</pdfrwt>
<pdfrwt beam="2">  1       -1 0.11561609E+00 0.22957728E+04</pdfrwt>
<totfact> 0.26853895E+00</totfact>
</mgrwt>
</event>
<event>
12    2  0.8147979E-008  0.1811914E+04  0.7818608E-02  0.8699989E-01
         -3   -1    0    0    0  501 -0.00000000000E+00  0.00000000000E+00  0.63858153875E+03  0.63858153875E+03  0.00000000000E+00 0.  1.
          3   -1    0    0  501    0  0.00000000000E+00 -0.00000000000E+00 -0.12852826498E+04  0.12852826498E+04  0.00000000000E+00 0. -1.
         23    2    1    2    0    0 -0.51307294343E+03 -0.30455708716E+03  0.98797510991E+02  0.61160046180E+03  0.91078603825E+02 0.  0.
        254    2    1    2    0    0  0.51307294343E+03  0.30455708716E+03 -0.74549862208E+03  0.13122637268E+04  0.90014944788E+03 0.  0.
         23    2    4    4    0    0 -0.32532225874E+02 -0.26570893988E+03 -0.24227154596E+03  0.37198950218E+03  0.89560601252E+02 0.  0.
         23    2    4    4    0    0  0.54560516930E+03  0.57026602705E+03 -0.50322707613E+03  0.94027422461E+03  0.89385597034E+02 0.  0.
          4    1    3    3  502    0 -0.38828135545E+03 -0.20604860366E+03  0.37343107080E+02  0.44114957294E+03  0.00000000000E+00 0. -1.
         -4    1    3    3    0  502 -0.12479158798E+03 -0.98508483499E+02  0.61454403911E+02  0.17045088886E+03  0.00000000000E+00 0.  1.
         11    1    5    5    0    0 -0.61111487221E+01 -0.19435203166E+01  0.60107382145E+01  0.87893335247E+01  0.00000000000E+00 0.  1.
        -11    1    5    5    0    0 -0.26421077152E+02 -0.26376541957E+03 -0.24828228417E+03  0.36320016865E+03  0.00000000000E+00 0. -1.
          1    1    6    6  503    0  0.41009002728E+03  0.37079296122E+03 -0.33924539663E+03  0.64865143929E+03  0.00000000000E+00 0. -1.
         -1    1    6    6    0  503  0.13551514202E+03  0.19947306583E+03 -0.16398167950E+03  0.29162278532E+03  0.00000000000E+00 0.  1.
<mgrwt>
<rscale>  0 0.18119137E+04</rscale>
<asrwt>0</asrwt>
<pdfrwt beam="1">  1        3 0.19773579E+00 0.18119137E+04</pdfrwt>
<pdfrwt beam="2">  1       -3 0.98243314E-01 0.18119137E+04</pdfrwt>
<totfact> 0.34208764E-01</totfact>
</mgrwt>
</event>
<event>
12    2  0.8147979E-008  0.1587765E+04  0.7818608E-02  0.8828100E-01
         -2   -1    0    0    0  501 -0.00000000000E+00  0.00000000000E+00  0.54729801296E+03  0.54729801296E+03  0.00000000000E+00 0.  1.
          2   -1    0    0  501    0  0.00000000000E+00 -0.00000000000E+00 -0.11515656607E+04  0.11515656607E+04  0.00000000000E+00 0. -1.
         23    2    1    2    0    0  0.31921587532E+03 -0.37316455589E+03 -0.42625998276E+03  0.65838415804E+03  0.10306098111E+03 0.  0.
        254    2    1    2    0    0 -0.31921587532E+03  0.37316455589E+03 -0.17800766503E+03  0.10404795157E+04  0.89986684175E+03 0.  0.
         23    2    4    4    0    0 -0.10311333502E+03  0.14534539162E+03 -0.52616674334E+03  0.56287825620E+03  0.90679913882E+02 0.  0.
         23    2    4    4    0    0 -0.21610254030E+03  0.22781916427E+03  0.34815907832E+03  0.47760125947E+03  0.91029334266E+02 0.  0.
          4    1    3    3  502    0  0.18705895440E+03 -0.17864554395E+03 -0.28122677213E+03  0.38209132437E+03  0.00000000000E+00 0. -1.
         -4    1    3    3    0  502  0.13215692092E+03 -0.19451901194E+03 -0.14503321063E+03  0.27629283368E+03  0.00000000000E+00 0.  1.
         11    1    5    5    0    0 -0.96180631202E+02  0.57967073389E+02 -0.29528801311E+03  0.31592072756E+03  0.00000000000E+00 0. -1.
        -11    1    5    5    0    0 -0.69327038166E+01  0.87378318233E+02 -0.23087873023E+03  0.24695752864E+03  0.00000000000E+00 0.  1.
          4    1    6    6  503    0 -0.20687622437E+03  0.19727051972E+03  0.27012783598E+03  0.39329693353E+03  0.00000000000E+00 0.  1.
         -4    1    6    6    0  503 -0.92263159326E+01  0.30548644551E+02  0.78031242340E+02  0.84304325931E+02  0.00000000000E+00 0. -1.
<mgrwt>
<rscale>  0 0.15877652E+04</rscale>
<asrwt>0</asrwt>
<pdfrwt beam="1">  1        2 0.17716395E+00 0.15877652E+04</pdfrwt>
<pdfrwt beam="2">  1       -2 0.84199695E-01 0.15877652E+04</pdfrwt>
<totfact> 0.23942627E+01</totfact>
</mgrwt>
</event>
<event>
12    2  0.8147979E-008  0.3373921E+04  0.7818608E-02  0.8144337E-01
          2   -1    0    0  501    0  0.00000000000E+00  0.00000000000E+00  0.17916027518E+04  0.17916027518E+04  0.00000000000E+00 0. -1.
         -2   -1    0    0    0  501 -0.00000000000E+00 -0.00000000000E+00 -0.15884296499E+04  0.15884296499E+04  0.00000000000E+00 0.  1.
         23    2    1    2    0    0  0.11017253470E+04  0.79110373518E+03  0.87754200022E+03  0.16179811222E+04  0.90216903167E+02 0.  0.
        254    2    1    2    0    0 -0.11017253470E+04 -0.79110373518E+03 -0.67436889838E+03  0.17620512794E+04  0.90022632719E+03 0.  0.
         23    2    4    4    0    0 -0.86872733472E+03 -0.12544892927E+03 -0.55145014911E+03  0.10405890901E+04  0.91125032335E+02 0.  0.
         23    2    4    4    0    0 -0.23299801232E+03 -0.66565480591E+03 -0.12291874927E+03  0.72146218935E+03  0.89522496436E+02 0.  0.
          3    1    3    3  502    0  0.82458488491E+03  0.62180429005E+03  0.70269670995E+03  0.12491450971E+04  0.00000000000E+00 0.  1.
         -3    1    3    3    0  502  0.27714046213E+03  0.16929944512E+03  0.17484529027E+03  0.36883602508E+03  0.00000000000E+00 0. -1.
         11    1    5    5    0    0 -0.22120703175E+03  0.36687751034E+01 -0.11775601110E+03  0.25062419866E+03  0.00000000000E+00 0. -1.
        -11    1    5    5    0    0 -0.64752030297E+03 -0.12911770437E+03 -0.43369413801E+03  0.78996489142E+03  0.00000000000E+00 0.  1.
          1    1    6    6  503    0 -0.22934222347E+03 -0.65875815782E+03 -0.10970174129E+03  0.70611234092E+03  0.00000000000E+00 0. -1.
         -1    1    6    6    0  503 -0.36557888500E+01 -0.68966480863E+01 -0.13217007974E+02  0.15349848427E+02  0.00000000000E+00 0.  1.
<mgrwt>
<rscale>  0 0.33739205E+04</rscale>
<asrwt>0</asrwt>
<pdfrwt beam="1">  1        2 0.27563119E+00 0.33739205E+04</pdfrwt>
<pdfrwt beam="2">  1       -2 0.24437379E+00 0.33739205E+04</pdfrwt>
<totfact> 0.50402114E-01</totfact>
</mgrwt>
</event>
<event>
12    2  0.8147979E-008  0.1487943E+04  0.7818608E-02  0.8892511E-01
         -2   -1    0    0    0  501 -0.00000000000E+00  0.00000000000E+00  0.68075026352E+03  0.68075026352E+03  0.00000000000E+00 0.  1.
          2   -1    0    0  501    0  0.00000000000E+00 -0.00000000000E+00 -0.81306368106E+03  0.81306368106E+03  0.00000000000E+00 0. -1.
         23    2    1    2    0    0 -0.18405518159E+03 -0.42703285008E+03 -0.69561743294E+02  0.47957580576E+03  0.94449734871E+02 0.  0.
        254    2    1    2    0    0  0.18405518159E+03  0.42703285008E+03 -0.62751674242E+02  0.10142381388E+04  0.89917065383E+03 0.  0.
         23    2    4    4    0    0  0.36810120782E+03  0.53652472549E+03  0.17653363944E+03  0.68010174544E+03  0.89537578909E+02 0.  0.
         23    2    4    4    0    0 -0.18404602623E+03 -0.10949187540E+03 -0.23928531368E+03  0.33413639339E+03  0.92348565192E+02 0.  0.
          2    1    3    3  502    0 -0.13347639847E+03 -0.21777476309E+03 -0.67859065747E+02  0.26428516642E+03  0.00000000000E+00 0. -1.
         -2    1    3    3    0  502 -0.50578783120E+02 -0.20925808700E+03 -0.17026775472E+01  0.21529063934E+03  0.00000000000E+00 0.  1.
         11    1    5    5    0    0  0.17237212488E+03  0.21075470449E+03  0.11297527277E+03  0.29477636805E+03  0.00000000000E+00 0.  1.
        -11    1    5    5    0    0  0.19572908294E+03  0.32577002100E+03  0.63558366665E+02  0.38532537739E+03  0.00000000000E+00 0. -1.
          2    1    6    6  503    0 -0.99547439535E+02 -0.19589470054E+02 -0.64613788388E+02  0.12028458631E+03  0.00000000000E+00 0. -1.
         -2    1    6    6    0  503 -0.84498586699E+02 -0.89902405349E+02 -0.17467152529E+03  0.21385180708E+03  0.00000000000E+00 0.  1.
<mgrwt>
<rscale>  0 0.14879426E+04</rscale>
<asrwt>0</asrwt>
<pdfrwt beam="1">  1        2 0.12508672E+00 0.14879426E+04</pdfrwt>
<pdfrwt beam="2">  1       -2 0.10473081E+00 0.14879426E+04</pdfrwt>
<totfact> 0.24114117E+01</totfact>
</mgrwt>
</event>
<event>
12    2  0.8147979E-008  0.2944021E+04  0.7818608E-02  0.8259899E-01
          1   -1    0    0  501    0  0.00000000000E+00  0.00000000000E+00  0.12641427618E+04  0.12641427618E+04  0.00000000000E+00 0. -1.
         -1   -1    0    0    0  501 -0.00000000000E+00 -0.00000000000E+00 -0.17140582593E+04  0.17140582593E+04  0.00000000000E+00 0.  1.
         23    2    1    2    0    0  0.68069611507E+03 -0.10323785444E+04  0.29610007943E+03  0.12749099226E+04  0.92560217506E+02 0.  0.
        254    2    1    2    0    0 -0.68069611507E+03  0.10323785444E+04 -0.74601557696E+03  0.17032910985E+04  0.90305518395E+03 0.  0.
         23    2    4    4    0    0  0.94116106006E+01  0.52134258064E+03 -0.64310747058E+03  0.83309929324E+03  0.92631252160E+02 0.  0.
         23    2    4    4    0    0 -0.69010772567E+03  0.51103596372E+03 -0.10290810638E+03  0.87019180527E+03  0.96110719243E+02 0.  0.
          1    1    3    3  502    0  0.47595729223E+03 -0.74079066479E+03  0.16870718904E+03  0.89653124246E+03  0.00000000000E+00 0. -1.
         -1    1    3    3    0  502  0.20473882284E+03 -0.29158787957E+03  0.12739289040E+03  0.37837868017E+03  0.00000000000E+00 0.  1.
         11    1    5    5    0    0 -0.41060990588E+02  0.18766449234E+03 -0.23617518297E+03  0.30443830850E+03  0.00000000000E+00 0. -1.
        -11    1    5    5    0    0  0.50472601188E+02  0.33367808830E+03 -0.40693228761E+03  0.52866098473E+03  0.00000000000E+00 0.  1.
          3    1    6    6  503    0 -0.63549619554E+03  0.46807813197E+03 -0.67356303175E+02  0.79214230019E+03  0.00000000000E+00 0. -1.
         -3    1    6    6    0  503 -0.54611530131E+02  0.42957831747E+02 -0.35551803204E+02  0.78049505077E+02  0.00000000000E+00 0.  1.
<mgrwt>
<rscale>  0 0.29440206E+04</rscale>
<asrwt>0</asrwt>
<pdfrwt beam="1">  1        1 0.19448350E+00 0.29440206E+04</pdfrwt>
<pdfrwt beam="2">  1       -1 0.26370127E+00 0.29440206E+04</pdfrwt>
<totfact> 0.46593871E-01</totfact>
</mgrwt>
</event>
<event>
12    2  0.8147979E-008  0.1296954E+04  0.7818608E-02  0.9031984E-01
          1   -1    0    0  501    0  0.00000000000E+00  0.00000000000E+00  0.12368577751E+04  0.12368577751E+04  0.00000000000E+00 0. -1.
         -1   -1    0    0    0  501 -0.00000000000E+00 -0.00000000000E+00 -0.33999260806E+03  0.33999260806E+03  0.00000000000E+00 0.  1.
         23    2    1    2    0    0  0.14866466211E+03  0.27405687556E+03  0.34954078381E+03  0.47728021298E+03  0.91702177475E+02 0.  0.
        254    2    1    2    0    0 -0.14866466211E+03 -0.27405687556E+03  0.54732438317E+03  0.10995701701E+04  0.90126701139E+03 0.  0.
         23    2    4    4    0    0 -0.35661903547E+03 -0.50343084120E+03  0.42930405901E+03  0.75723935173E+03  0.92139635308E+02 0.  0.
         23    2    4    4    0    0  0.20795437336E+03  0.22937396564E+03  0.11802032417E+03  0.34233081840E+03  0.86047398548E+02 0.  0.
          1    1    3    3  502    0  0.14209541347E+03  0.28103034059E+03  0.34323665662E+03  0.46581172302E+03  0.00000000000E+00 0. -1.
         -1    1    3    3    0  502  0.65692486395E+01 -0.69734650301E+01  0.63041271983E+01  0.11468489959E+02  0.00000000000E+00 0.  1.
         11    1    5    5    0    0 -0.30253342116E+03 -0.47042681512E+03  0.39873922403E+03  0.68689215171E+03  0.00000000000E+00 0.  1.
        -11    1    5    5    0    0 -0.54085614316E+02 -0.33004026082E+02  0.30564834976E+02  0.70347200020E+02  0.00000000000E+00 0. -1.
          4    1    6    6  503    0  0.16343890811E+02  0.44028137939E+02  0.47011478994E+02  0.66450574523E+02  0.00000000000E+00 0. -1.
         -4    1    6    6    0  503  0.19161048255E+03  0.18534582770E+03  0.71008845172E+02  0.27588024388E+03  0.00000000000E+00 0.  1.
<mgrwt>
<rscale>  0 0.12969541E+04</rscale>
<asrwt>0</asrwt>
<pdfrwt beam="1">  1        1 0.19028581E+00 0.12969541E+04</pdfrwt>
<pdfrwt beam="2">  1       -1 0.52306556E-01 0.12969541E+04</pdfrwt>
<totfact> 0.36337124E+01</totfact>
</mgrwt>
</event>
<event>
12    2  0.8147979E-008  0.1332946E+04  0.7818608E-02  0.9003839E-01
         -2   -1    0    0    0  501 -0.00000000000E+00  0.00000000000E+00  0.52495308452E+03  0.52495308452E+03  0.00000000000E+00 0. -1.
          2   -1    0    0  501    0  0.00000000000E+00 -0.00000000000E+00 -0.84614517385E+03  0.84614517385E+03  0.00000000000E+00 0.  1.
         23    2    1    2    0    0 -0.11984770293E+03 -0.31765286975E+03 -0.18580558368E+03  0.39771476614E+03  0.91577850601E+02 0.  0.
        254    2    1    2    0    0  0.11984770293E+03  0.31765286975E+03 -0.13538650565E+03  0.97338349224E+03  0.90215248129E+03 0.  0.
         23    2    4    4    0    0 -0.33830034878E+03  0.13623314362E+03 -0.26033291254E+03  0.45730420971E+03  0.91363665981E+02 0.  0.
         23    2    4    4    0    0  0.45814805171E+03  0.18141972613E+03  0.12494640689E+03  0.51607928253E+03  0.88957669430E+02 0.  0.
          2    1    3    3  502    0 -0.98528498068E+02 -0.25872463082E+03 -0.10647694813E+03  0.29662036344E+03  0.00000000000E+00 0. -1.
         -2    1    3    3    0  502 -0.21319204859E+02 -0.58928238928E+02 -0.79328635543E+02  0.10109440269E+03  0.00000000000E+00 0.  1.
         11    1    5    5    0    0 -0.20249289550E+03  0.80314885985E+02 -0.99453661103E+02  0.23946791924E+03  0.00000000000E+00 0.  1.
        -11    1    5    5    0    0 -0.13580745329E+03  0.55918257637E+02 -0.16087925143E+03  0.21783629047E+03  0.00000000000E+00 0. -1.
          1    1    6    6  503    0  0.17313536680E+02 -0.91360695797E+00 -0.10373855495E+02  0.20204210153E+02  0.00000000000E+00 0. -1.
         -1    1    6    6    0  503  0.44083451503E+03  0.18233333308E+03  0.13532026238E+03  0.49587507238E+03  0.00000000000E+00 0.  1.
<mgrwt>
<rscale>  0 0.13329464E+04</rscale>
<asrwt>0</asrwt>
<pdfrwt beam="1">  1        2 0.13017618E+00 0.13329464E+04</pdfrwt>
<pdfrwt beam="2">  1       -2 0.80762013E-01 0.13329464E+04</pdfrwt>
<totfact> 0.42275428E+01</totfact>
</mgrwt>
</event>
<event>
12    2  0.8147979E-008  0.3514128E+04  0.7818608E-02  0.8110450E-01
          1   -1    0    0  501    0  0.00000000000E+00  0.00000000000E+00  0.22341628404E+04  0.22341628404E+04  0.00000000000E+00 0. -1.
         -1   -1    0    0    0  501 -0.00000000000E+00 -0.00000000000E+00 -0.13818478441E+04  0.13818478441E+04  0.00000000000E+00 0.  1.
         23    2    1    2    0    0  0.12824298977E+04 -0.36956629527E+03  0.13828514712E+04  0.19240298322E+04  0.91689230154E+02 0.  0.
        254    2    1    2    0    0 -0.12824298977E+04  0.36956629527E+03 -0.53053647482E+03  0.16919808523E+04  0.89449682184E+03 0.  0.
         23    2    4    4    0    0 -0.73291485146E+03  0.15226990690E+03 -0.74222601887E+03  0.10581285437E+04  0.91576459032E+02 0.  0.
         23    2    4    4    0    0 -0.54951504625E+03  0.21729638836E+03  0.21168954404E+03  0.63385230860E+03  0.88157697426E+02 0.  0.
          3    1    3    3  502    0  0.79884997166E+03 -0.24794820757E+03  0.92457097723E+03  0.12467842968E+04  0.00000000000E+00 0. -1.
         -3    1    3    3    0  502  0.48357992605E+03 -0.12161808770E+03  0.45828049395E+03  0.67724553544E+03  0.00000000000E+00 0.  1.
         11    1    5    5    0    0 -0.18966953964E+03  0.30065733300E+02 -0.24760165846E+03  0.31334495985E+03  0.00000000000E+00 0.  1.
        -11    1    5    5    0    0 -0.54324531182E+03  0.12220417360E+03 -0.49462436040E+03  0.74478358384E+03  0.00000000000E+00 0. -1.
          3    1    6    6  503    0 -0.15892374651E+03  0.85861883190E+02  0.10177758340E+03  0.20733474545E+03  0.00000000000E+00 0. -1.
         -3    1    6    6    0  503 -0.39059129974E+03  0.13143450517E+03  0.10991196064E+03  0.42651756315E+03  0.00000000000E+00 0.  1.
<mgrwt>
<rscale>  0 0.35141275E+04</rscale>
<asrwt>0</asrwt>
<pdfrwt beam="1">  1        1 0.34371736E+00 0.35141275E+04</pdfrwt>
<pdfrwt beam="2">  1       -1 0.21259198E+00 0.35141275E+04</pdfrwt>
<totfact> 0.20771120E-01</totfact>
</mgrwt>
</event>
<event>
12    2  0.8147979E-008  0.1311827E+04  0.7818608E-02  0.9020239E-01
          1   -1    0    0  501    0  0.00000000000E+00  0.00000000000E+00  0.47594453259E+03  0.47594453259E+03  0.00000000000E+00 0. -1.
         -1   -1    0    0    0  501 -0.00000000000E+00 -0.00000000000E+00 -0.90393353672E+03  0.90393353672E+03  0.00000000000E+00 0.  1.
         23    2    1    2    0    0  0.13859072917E+03  0.27247958261E+03  0.40818374900E+02  0.32194541451E+03  0.92359065857E+02 0.  0.
        254    2    1    2    0    0 -0.13859072917E+03 -0.27247958261E+03 -0.46880737903E+03  0.10579326548E+04  0.89776869533E+03 0.  0.
         23    2    4    4    0    0  0.25128382228E+03  0.52003365635E+02 -0.47096238265E+03  0.54363416571E+03  0.88795444058E+02 0.  0.
         23    2    4    4    0    0 -0.38987455144E+03 -0.32448294824E+03  0.21550036188E+01  0.51429848909E+03  0.84893711649E+02 0.  0.
          1    1    3    3  502    0  0.14695039878E+03  0.26412979893E+03  0.50778376669E+02  0.30649211070E+03  0.00000000000E+00 0. -1.
         -1    1    3    3    0  502 -0.83596696088E+01  0.83497836736E+01 -0.99600017693E+01  0.15453303809E+02  0.00000000000E+00 0.  1.
         11    1    5    5    0    0  0.38773559928E+02  0.43769401344E+02 -0.11400484023E+03  0.12812592649E+03  0.00000000000E+00 0. -1.
        -11    1    5    5    0    0  0.21251026235E+03  0.82339642909E+01 -0.35695754241E+03  0.41550823922E+03  0.00000000000E+00 0.  1.
          3    1    6    6  503    0 -0.22857005416E+03 -0.19784617646E+03  0.42547041644E+02  0.30528286875E+03  0.00000000000E+00 0. -1.
         -3    1    6    6    0  503 -0.16130449728E+03 -0.12663677178E+03 -0.40392038026E+02  0.20901562034E+03  0.00000000000E+00 0.  1.
<mgrwt>
<rscale>  0 0.13118266E+04</rscale>
<asrwt>0</asrwt>
<pdfrwt beam="1">  1        1 0.73222237E-01 0.13118266E+04</pdfrwt>
<pdfrwt beam="2">  1       -1 0.13906670E+00 0.13118266E+04</pdfrwt>
<totfact> 0.19866637E+01</totfact>
</mgrwt>
</event>
<event>
12    2  0.8147979E-008  0.1574958E+04  0.7818608E-02  0.8836082E-01
         -1   -1    0    0    0  501 -0.00000000000E+00  0.00000000000E+00  0.66025347292E+03  0.66025347292E+03  0.00000000000E+00 0.  1.
          1   -1    0    0  501    0  0.00000000000E+00 -0.00000000000E+00 -0.93921968666E+03  0.93921968666E+03  0.00000000000E+00 0. -1.
         23    2    1    2    0    0 -0.37200099347E+03  0.30234471596E+03 -0.29732959547E+03  0.57157475979E+03  0.92172399768E+02 0.  0.
        254    2    1    2    0    0  0.37200099347E+03 -0.30234471596E+03  0.18363381719E+02  0.10278983998E+04  0.90908791659E+03 0.  0.
         23    2    4    4    0    0  0.64780223848E+03 -0.33515139340E+03  0.12671415484E+02  0.73515891904E+03  0.91235271656E+02 0.  0.
         23    2    4    4    0    0 -0.27580124501E+03  0.32806677438E+02  0.56919662352E+01  0.29273948075E+03  0.92311430900E+02 0.  0.
          2    1    3    3  502    0 -0.31330515686E+02  0.40625391923E+02 -0.66188314752E+02  0.83743159074E+02  0.00000000000E+00 0. -1.
         -2    1    3    3    0  502 -0.34067047779E+03  0.26171932404E+03 -0.23114128071E+03  0.48783160072E+03  0.00000000000E+00 0.  1.
         11    1    5    5    0    0  0.31366189322E+03 -0.21064962971E+03 -0.87630478825E+01  0.37793364597E+03  0.00000000000E+00 0.  1.
        -11    1    5    5    0    0  0.33414034527E+03 -0.12450176369E+03  0.21434463366E+02  0.35722527307E+03  0.00000000000E+00 0. -1.
          1    1    6    6  503    0 -0.24481714261E+03 -0.29352422011E+01  0.11364521983E+02  0.24509835031E+03  0.00000000000E+00 0. -1.
         -1    1    6    6    0  503 -0.30984102400E+02  0.35741919639E+02 -0.56725557483E+01  0.47641130442E+02  0.00000000000E+00 0.  1.
<mgrwt>
<rscale>  0 0.15749579E+04</rscale>
<asrwt>0</asrwt>
<pdfrwt beam="1">  1        1 0.14449534E+00 0.15749579E+04</pdfrwt>
<pdfrwt beam="2">  1       -1 0.10157746E+00 0.15749579E+04</pdfrwt>
<totfact> 0.14951204E+01</totfact>
</mgrwt>
</event>
<event>
12    2  0.8147979E-008  0.3811216E+04  0.7818608E-02  0.8043752E-01
          2   -1    0    0  501    0  0.00000000000E+00  0.00000000000E+00  0.38821379683E+04  0.38821379683E+04  0.00000000000E+00 0. -1.
         -2   -1    0    0    0  501 -0.00000000000E+00 -0.00000000000E+00 -0.93539764534E+03  0.93539764534E+03  0.00000000000E+00 0.  1.
         23    2    1    2    0    0 -0.14823834432E+04  0.64435878146E+03  0.23874337885E+04  0.28845234849E+04  0.89312533564E+02 0.  0.
        254    2    1    2    0    0  0.14823834432E+04 -0.64435878146E+03  0.55930653454E+03  0.19330121288E+04  0.90058490910E+03 0.  0.
         23    2    4    4    0    0  0.86477601075E+03  0.90161270275E+02  0.15520587241E+03  0.88798465758E+03  0.91985247940E+02 0.  0.
         23    2    4    4    0    0  0.61760743246E+03 -0.73452005173E+03  0.40410066214E+03  0.10450274712E+04  0.88467075303E+02 0.  0.
          1    1    3    3  502    0 -0.83880292716E+03  0.31625616724E+03  0.13258949026E+04  0.16005016735E+04  0.00000000000E+00 0. -1.
         -1    1    3    3    0  502 -0.64358051605E+03  0.32810261422E+03  0.10615388858E+04  0.12840218114E+04  0.00000000000E+00 0.  1.
         11    1    5    5    0    0  0.17346461533E+03  0.33120229988E+02  0.66371971462E+02  0.18865884820E+03  0.00000000000E+00 0. -1.
        -11    1    5    5    0    0  0.69131139542E+03  0.57041040287E+02  0.88833900947E+02  0.69932580939E+03  0.00000000000E+00 0.  1.
          3    1    6    6  503    0  0.15691487177E+03 -0.20373069115E+03  0.68162834000E+02  0.26603504175E+03  0.00000000000E+00 0. -1.
         -3    1    6    6    0  503  0.46069256069E+03 -0.53078936058E+03  0.33593782814E+03  0.77899242946E+03  0.00000000000E+00 0.  1.
<mgrwt>
<rscale>  0 0.38112165E+04</rscale>
<asrwt>0</asrwt>
<pdfrwt beam="1">  1        2 0.59725199E+00 0.38112165E+04</pdfrwt>
<pdfrwt beam="2">  1       -2 0.14390733E+00 0.38112165E+04</pdfrwt>
<totfact> 0.11333307E-01</totfact>
</mgrwt>
</event>
<event>
12    2  0.8147979E-008  0.3142911E+04  0.7818608E-02  0.8204059E-01
          2   -1    0    0  501    0  0.00000000000E+00  0.00000000000E+00  0.12937664663E+04  0.12937664663E+04  0.00000000000E+00 0. -1.
         -2   -1    0    0    0  501 -0.00000000000E+00 -0.00000000000E+00 -0.19087464920E+04  0.19087464920E+04  0.00000000000E+00 0.  1.
         23    2    1    2    0    0 -0.62272452524E+03  0.44516086294E+03  0.96149654624E+03  0.12325483275E+04  0.93518676871E+02 0.  0.
        254    2    1    2    0    0  0.62272452524E+03 -0.44516086294E+03 -0.15764765719E+04  0.19699646308E+04  0.89973787101E+03 0.  0.
         23    2    4    4    0    0  0.76602108708E+03 -0.39899562484E+03 -0.15696800547E+04  0.17938638435E+04  0.89812028873E+02 0.  0.
         23    2    4    4    0    0 -0.14329656184E+03 -0.46165238101E+02 -0.67965172673E+01  0.17610078730E+03  0.91105218264E+02 0.  0.
          1    1    3    3  502    0 -0.48171107078E+03  0.30253086366E+03  0.74641982763E+03  0.93846312568E+03  0.00000000000E+00 0. -1.
         -1    1    3    3    0  502 -0.14101345445E+03  0.14262999928E+03  0.21507671861E+03  0.29408520180E+03  0.00000000000E+00 0.  1.
         11    1    5    5    0    0  0.55719472949E+03 -0.26395333057E+03 -0.11849685181E+04  0.13357723294E+04  0.00000000000E+00 0. -1.
        -11    1    5    5    0    0  0.20882635759E+03 -0.13504229427E+03 -0.38471153659E+03  0.45809151406E+03  0.00000000000E+00 0.  1.
          2    1    6    6  503    0 -0.87449266467E+01  0.12843430588E+02 -0.23563039215E+02  0.28224887393E+02  0.00000000000E+00 0.  1.
         -2    1    6    6    0  503 -0.13455163519E+03 -0.59008668689E+02  0.16766521948E+02  0.14787589990E+03  0.00000000000E+00 0. -1.
<mgrwt>
<rscale>  0 0.31429109E+04</rscale>
<asrwt>0</asrwt>
<pdfrwt beam="1">  1        2 0.19904100E+00 0.31429109E+04</pdfrwt>
<pdfrwt beam="2">  1       -2 0.29365330E+00 0.31429109E+04</pdfrwt>
<totfact> 0.49015463E-01</totfact>
</mgrwt>
</event>
<event>
12    2  0.8147979E-008  0.1262817E+04  0.7818608E-02  0.9059583E-01
         -3   -1    0    0    0  501 -0.00000000000E+00  0.00000000000E+00  0.48102238119E+03  0.48102238119E+03  0.00000000000E+00 0.  1.
          3   -1    0    0  501    0  0.00000000000E+00 -0.00000000000E+00 -0.82881081127E+03  0.82881081127E+03  0.00000000000E+00 0. -1.
         23    2    1    2    0    0  0.75573097464E+02  0.23989530956E+03 -0.25865418311E+03  0.37239072362E+03  0.92259481862E+02 0.  0.
        254    2    1    2    0    0 -0.75573097464E+02 -0.23989530956E+03 -0.89134246975E+02  0.93744246883E+03  0.89866145782E+03 0.  0.
         23    2    4    4    0    0  0.13484139251E+03 -0.53063515337E+03 -0.11240003368E+03  0.56627565080E+03  0.90986141763E+02 0.  0.
         23    2    4    4    0    0 -0.21041448997E+03  0.29073984381E+03  0.23265786709E+02  0.37116681803E+03  0.91758354420E+02 0.  0.
          3    1    3    3  502    0  0.26240238774E+02  0.16041778752E+03 -0.21400181761E+03  0.26873629198E+03  0.00000000000E+00 0. -1.
         -3    1    3    3    0  502  0.49332858690E+02  0.79477522035E+02 -0.44652365494E+02  0.10365443164E+03  0.00000000000E+00 0.  1.
         11    1    5    5    0    0  0.66898786245E+02 -0.40479354711E+03 -0.10265868441E+03  0.42293270017E+03  0.00000000000E+00 0.  1.
        -11    1    5    5    0    0  0.67942606260E+02 -0.12584160626E+03 -0.97413492716E+01  0.14334295064E+03  0.00000000000E+00 0. -1.
          3    1    6    6  503    0 -0.28073063292E+02  0.23301977170E+01 -0.56390792135E+01  0.28728486184E+02  0.00000000000E+00 0. -1.
         -3    1    6    6    0  503 -0.18234142668E+03  0.28840964609E+03  0.28904865922E+02  0.34243833184E+03  0.00000000000E+00 0.  1.
<mgrwt>
<rscale>  0 0.12628168E+04</rscale>
<asrwt>0</asrwt>
<pdfrwt beam="1">  1        3 0.12750935E+00 0.12628168E+04</pdfrwt>
<pdfrwt beam="2">  1       -3 0.74003444E-01 0.12628168E+04</pdfrwt>
<totfact> 0.21718695E+00</totfact>
</mgrwt>
</event>
<event>
12    2  0.8147979E-008  0.2947745E+04  0.7818608E-02  0.8258812E-01
         -2   -1    0    0    0  501 -0.00000000000E+00  0.00000000000E+00  0.17829315617E+04  0.17829315617E+04  0.00000000000E+00 0.  1.
          2   -1    0    0  501    0  0.00000000000E+00 -0.00000000000E+00 -0.12183868890E+04  0.12183868890E+04  0.00000000000E+00 0. -1.
         23    2    1    2    0    0 -0.36449131497E+03  0.12166193141E+04 -0.16105385935E+03  0.12837448032E+04  0.95109936856E+02 0.  0.
        254    2    1    2    0    0  0.36449131497E+03 -0.12166193141E+04  0.72559853213E+03  0.17175736474E+04  0.90030524287E+03 0.  0.
         23    2    4    4    0    0  0.24027200280E+03 -0.85345273066E+03  0.91744758487E+03  0.12788690599E+04  0.87657301917E+02 0.  0.
         23    2    4    4    0    0  0.12421931217E+03 -0.36316658345E+03 -0.19184905274E+03  0.43870458753E+03  0.91297597060E+02 0.  0.
          1    1    3    3  502    0 -0.28346863457E+03  0.79033459354E+03 -0.11173151419E+03  0.84703433684E+03  0.00000000000E+00 0. -1.
         -1    1    3    3    0  502 -0.81022680408E+02  0.42628472058E+03 -0.49322345169E+02  0.43671046641E+03  0.00000000000E+00 0.  1.
         11    1    5    5    0    0  0.18359576337E+03 -0.73159552475E+03  0.80989819735E+03  0.11067404873E+04  0.00000000000E+00 0.  1.
        -11    1    5    5    0    0  0.56676239426E+02 -0.12185720592E+03  0.10754938752E+03  0.17212857260E+03  0.00000000000E+00 0. -1.
          2    1    6    6  503    0  0.57194438219E+02 -0.12369830144E+03 -0.23207742367E+02  0.13824280396E+03  0.00000000000E+00 0. -1.
         -2    1    6    6    0  503  0.67024873955E+02 -0.23946828201E+03 -0.16864131037E+03  0.30046178356E+03  0.00000000000E+00 0.  1.
<mgrwt>
<rscale>  0 0.29477452E+04</rscale>
<asrwt>0</asrwt>
<pdfrwt beam="1">  1        2 0.18744414E+00 0.29477452E+04</pdfrwt>
<pdfrwt beam="2">  1       -2 0.27429716E+00 0.29477452E+04</pdfrwt>
<totfact> 0.72436937E-01</totfact>
</mgrwt>
</event>
<event>
12    2  0.8147979E-008  0.2515474E+04  0.7818608E-02  0.8397493E-01
          2   -1    0    0  501    0  0.00000000000E+00  0.00000000000E+00  0.84049480689E+03  0.84049480689E+03  0.00000000000E+00 0.  1.
         -2   -1    0    0    0  501 -0.00000000000E+00 -0.00000000000E+00 -0.18821085322E+04  0.18821085322E+04  0.00000000000E+00 0. -1.
         23    2    1    2    0    0  0.20671229696E+03 -0.10725309605E+04 -0.47649607251E+03  0.11950219574E+04  0.89310338619E+02 0.  0.
        254    2    1    2    0    0 -0.20671229696E+03  0.10725309605E+04 -0.56511765276E+03  0.15275813817E+04  0.90614252809E+03 0.  0.
         23    2    4    4    0    0 -0.50124611408E+03  0.94462373109E+03 -0.34387358073E+03  0.11275011168E+04  0.97201176598E+02 0.  0.
         23    2    4    4    0    0  0.29453381712E+03  0.12790722941E+03 -0.22124407203E+03  0.40008026482E+03  0.89469828065E+02 0.  0.
          4    1    3    3  502    0  0.59197906105E+02 -0.39988079678E+03 -0.21954619467E+03  0.46001040783E+03  0.00000000000E+00 0. -1.
         -4    1    3    3    0  502  0.14751439086E+03 -0.67265016372E+03 -0.25694987784E+03  0.73501154955E+03  0.00000000000E+00 0.  1.
         11    1    5    5    0    0 -0.23496465989E+03  0.41132405007E+03 -0.20068811222E+03  0.51446242229E+03  0.00000000000E+00 0. -1.
        -11    1    5    5    0    0 -0.26628145419E+03  0.53329968102E+03 -0.14318546851E+03  0.61303869455E+03  0.00000000000E+00 0.  1.
          1    1    6    6  503    0  0.27339977138E+03  0.13176059832E+03 -0.17812100585E+03  0.35190251915E+03  0.00000000000E+00 0. -1.
         -1    1    6    6    0  503  0.21134045737E+02 -0.38533689184E+01 -0.43123066179E+02  0.48177745671E+02  0.00000000000E+00 0.  1.
<mgrwt>
<rscale>  0 0.25154741E+04</rscale>
<asrwt>0</asrwt>
<pdfrwt beam="1">  1        2 0.12930690E+00 0.25154741E+04</pdfrwt>
<pdfrwt beam="2">  1       -2 0.28955515E+00 0.25154741E+04</pdfrwt>
<totfact> 0.10571160E+00</totfact>
</mgrwt>
</event>
<event>
12    2  0.8147979E-008  0.4966861E+04  0.7818608E-02  0.7833640E-01
          2   -1    0    0  501    0  0.00000000000E+00  0.00000000000E+00  0.28404842726E+04  0.28404842726E+04  0.00000000000E+00 0. -1.
         -2   -1    0    0    0  501 -0.00000000000E+00 -0.00000000000E+00 -0.21712593039E+04  0.21712593039E+04  0.00000000000E+00 0.  1.
         23    2    1    2    0    0 -0.12823207116E+04  0.18590692545E+04  0.11464273351E+04  0.25344586337E+04  0.93273956024E+02 0.  0.
        254    2    1    2    0    0  0.12823207116E+04 -0.18590692545E+04 -0.47720236637E+03  0.24772849428E+04  0.89929621877E+03 0.  0.
         23    2    4    4    0    0  0.85981482724E+03 -0.55755977047E+03 -0.39751168107E+03  0.11035795169E+04  0.98578794164E+02 0.  0.
         23    2    4    4    0    0  0.42250588436E+03 -0.13015094840E+04 -0.79690685306E+02  0.13737054260E+04  0.90982595548E+02 0.  0.
          2    1    3    3  502    0 -0.68439344065E+03  0.98967090303E+03  0.55858396806E+03  0.13265967463E+04  0.00000000000E+00 0. -1.
         -2    1    3    3    0  502 -0.59792727095E+03  0.86939835146E+03  0.58784336702E+03  0.12078618874E+04  0.00000000000E+00 0.  1.
         11    1    5    5    0    0  0.91008346230E+02 -0.25504818448E+02 -0.38881119160E+02  0.10219959038E+03  0.00000000000E+00 0. -1.
        -11    1    5    5    0    0  0.76880648101E+03 -0.53205495202E+03 -0.35863056191E+03  0.10013799265E+04  0.00000000000E+00 0.  1.
          2    1    6    6  503    0  0.20118095980E+03 -0.53880303940E+03  0.38846662256E+01  0.57515005388E+03  0.00000000000E+00 0.  1.
         -2    1    6    6    0  503  0.22132492456E+03 -0.76270644462E+03 -0.83575351531E+02  0.79855537208E+03  0.00000000000E+00 0. -1.
<mgrwt>
<rscale>  0 0.49668613E+04</rscale>
<asrwt>0</asrwt>
<pdfrwt beam="1">  1        2 0.43699758E+00 0.49668613E+04</pdfrwt>
<pdfrwt beam="2">  1       -2 0.33403989E+00 0.49668613E+04</pdfrwt>
<totfact> 0.31239732E-02</totfact>
</mgrwt>
</event>
<event>
12    2  0.8147979E-008  0.1351523E+04  0.7818608E-02  0.8989676E-01
         -2   -1    0    0    0  501 -0.00000000000E+00  0.00000000000E+00  0.37299284187E+03  0.37299284187E+03  0.00000000000E+00 0.  1.
          2   -1    0    0  501    0  0.00000000000E+00 -0.00000000000E+00 -0.12242958750E+04  0.12242958750E+04  0.00000000000E+00 0. -1.
         23    2    1    2    0    0  0.20028702267E+03 -0.30526921788E+03 -0.29058450369E+03  0.47593776619E+03  0.93665450786E+02 0.  0.
        254    2    1    2    0    0 -0.20028702267E+03  0.30526921788E+03 -0.56071852945E+03  0.11213509507E+04  0.89984359670E+03 0.  0.
         23    2    4    4    0    0  0.25281072163E+03  0.19677682337E+03 -0.55296730240E+03  0.64682349766E+03  0.99867013683E+02 0.  0.
         23    2    4    4    0    0 -0.45309774430E+03  0.10849239450E+03 -0.77512270547E+01  0.47452745304E+03  0.89710961489E+02 0.  0.
          2    1    3    3  502    0 -0.29885998643E+01 -0.50491082984E+02 -0.46925245928E+02  0.68994636715E+02  0.00000000000E+00 0. -1.
         -2    1    3    3    0  502  0.20327562253E+03 -0.25477813489E+03 -0.24365925776E+03  0.40694312948E+03  0.00000000000E+00 0.  1.
         11    1    5    5    0    0  0.96415198951E+02  0.36887909256E+02 -0.24803743859E+03  0.26866183089E+03  0.00000000000E+00 0.  1.
        -11    1    5    5    0    0  0.15639552268E+03  0.15988891412E+03 -0.30492986381E+03  0.37816166677E+03  0.00000000000E+00 0. -1.
          3    1    6    6  503    0 -0.86725588877E+02 -0.14337250392E+02  0.31613103455E+01  0.87959527045E+02  0.00000000000E+00 0. -1.
         -3    1    6    6    0  503 -0.36637215542E+03  0.12282964489E+03 -0.10912537400E+02  0.38656792599E+03  0.00000000000E+00 0.  1.
<mgrwt>
<rscale>  0 0.13515230E+04</rscale>
<asrwt>0</asrwt>
<pdfrwt beam="1">  1        2 0.18835321E+00 0.13515230E+04</pdfrwt>
<pdfrwt beam="2">  1       -2 0.57383514E-01 0.13515230E+04</pdfrwt>
<totfact> 0.50900859E+01</totfact>
</mgrwt>
</event>
<event>
12    2  0.8147979E-008  0.2424486E+04  0.7818608E-02  0.8430393E-01
          1   -1    0    0  501    0  0.00000000000E+00  0.00000000000E+00  0.27121558420E+04  0.27121558420E+04  0.00000000000E+00 0. -1.
         -1   -1    0    0    0  501 -0.00000000000E+00 -0.00000000000E+00 -0.54183227907E+03  0.54183227907E+03  0.00000000000E+00 0.  1.
         23    2    1    2    0    0  0.74746052791E+03  0.36452283701E+03  0.92309261447E+02  0.84134850075E+03  0.88159857537E+02 0.  0.
        254    2    1    2    0    0 -0.74746052791E+03 -0.36452283701E+03  0.20780143015E+04  0.24126396203E+04  0.90061776625E+03 0.  0.
         23    2    4    4    0    0 -0.79993517682E+03 -0.37369536284E+03  0.10315980027E+04  0.13607644666E+04  0.89112193953E+02 0.  0.
         23    2    4    4    0    0  0.52474648909E+02  0.91725258325E+01  0.10464162988E+04  0.10518751537E+04  0.92825344685E+02 0.  0.
          1    1    3    3  502    0  0.63205506400E+03  0.31405233703E+03  0.10949991714E+03  0.71422174861E+03  0.00000000000E+00 0. -1.
         -1    1    3    3    0  502  0.11540546390E+03  0.50470499976E+02 -0.17190655696E+02  0.12712675214E+03  0.00000000000E+00 0.  1.
         11    1    5    5    0    0 -0.56257759824E+03 -0.30681096949E+03  0.74590409317E+03  0.98336129741E+03  0.00000000000E+00 0.  1.
        -11    1    5    5    0    0 -0.23735757858E+03 -0.66884393348E+02  0.28569390954E+03  0.37740316921E+03  0.00000000000E+00 0. -1.
          2    1    6    6  503    0  0.21516322777E+02 -0.35403288818E+02  0.23331388295E+03  0.23696352669E+03  0.00000000000E+00 0. -1.
         -2    1    6    6    0  503  0.30958326132E+02  0.44575814651E+02  0.81310241583E+03  0.81491162701E+03  0.00000000000E+00 0.  1.
<mgrwt>
<rscale>  0 0.24244864E+04</rscale>
<asrwt>0</asrwt>
<pdfrwt beam="1">  1        1 0.41725474E+00 0.24244864E+04</pdfrwt>
<pdfrwt beam="2">  1       -1 0.83358814E-01 0.24244864E+04</pdfrwt>
<totfact> 0.12285762E+00</totfact>
</mgrwt>
</event>
<event>
12    2  0.8147979E-008  0.1245128E+04  0.7818608E-02  0.9074248E-01
          1   -1    0    0  501    0  0.00000000000E+00  0.00000000000E+00  0.44989469917E+03  0.44989469917E+03  0.00000000000E+00 0. -1.
         -1   -1    0    0    0  501 -0.00000000000E+00 -0.00000000000E+00 -0.86150340415E+03  0.86150340415E+03  0.00000000000E+00 0.  1.
         23    2    1    2    0    0 -0.30265672488E+02 -0.21737095773E+03 -0.30858761106E+03  0.39161569068E+03  0.99851846696E+02 0.  0.
        254    2    1    2    0    0  0.30265672488E+02  0.21737095773E+03 -0.10302109392E+03  0.91978241264E+03  0.88725430211E+03 0.  0.
         23    2    4    4    0    0  0.26648491369E+03 -0.16515938185E+03  0.18732259784E+03  0.37626271227E+03  0.90509901930E+02 0.  0.
         23    2    4    4    0    0 -0.23621924121E+03  0.38253033958E+03 -0.29034369176E+03  0.54351970037E+03  0.94790372565E+02 0.  0.
          1    1    3    3  502    0 -0.34136901309E+02 -0.13044820066E+03 -0.10728565116E+03  0.17231445683E+03  0.00000000000E+00 0. -1.
         -1    1    3    3    0  502  0.38712288218E+01 -0.86922757073E+02 -0.20130195989E+03  0.21930123385E+03  0.00000000000E+00 0.  1.
         11    1    5    5    0    0  0.12240844305E+01 -0.13635344549E+01  0.24460840780E+02  0.24529377093E+02  0.00000000000E+00 0. -1.
        -11    1    5    5    0    0  0.26526082926E+03 -0.16379584739E+03  0.16286175705E+03  0.35173333518E+03  0.00000000000E+00 0.  1.
          2    1    6    6  503    0 -0.33317815965E+02  0.86820042637E+02 -0.10349340795E+03  0.13913548129E+03  0.00000000000E+00 0. -1.
         -2    1    6    6    0  503 -0.20290142524E+03  0.29571029694E+03 -0.18685028381E+03  0.40438421908E+03  0.00000000000E+00 0.  1.
<mgrwt>
<rscale>  0 0.12451278E+04</rscale>
<asrwt>0</asrwt>
<pdfrwt beam="1">  1        1 0.69214569E-01 0.12451278E+04</pdfrwt>
<pdfrwt beam="2">  1       -1 0.13253898E+00 0.12451278E+04</pdfrwt>
<totfact> 0.24403656E+01</totfact>
</mgrwt>
</event>
<event>
12    2  0.8147979E-008  0.1449296E+04  0.7818608E-02  0.8918888E-01
          2   -1    0    0  501    0  0.00000000000E+00  0.00000000000E+00  0.23466452875E+03  0.23466452875E+03  0.00000000000E+00 0. -1.
         -2   -1    0    0    0  501 -0.00000000000E+00 -0.00000000000E+00 -0.22377265600E+04  0.22377265600E+04  0.00000000000E+00 0.  1.
         23    2    1    2    0    0 -0.35015744367E+03 -0.24040998171E+03 -0.80860035531E+03  0.91795424502E+03  0.91642057342E+02 0.  0.
        254    2    1    2    0    0  0.35015744367E+03  0.24040998171E+03 -0.11944616759E+04  0.15544368437E+04  0.89951543130E+03 0.  0.
         23    2    4    4    0    0 -0.18784610304E+03 -0.17936113191E+03 -0.53705115380E+03  0.60260669368E+03  0.85172245522E+02 0.  0.
         23    2    4    4    0    0  0.53800354670E+03  0.41977111362E+03 -0.65741052210E+03  0.95183015001E+03  0.90202193974E+02 0.  0.
          2    1    3    3  502    0 -0.15967363819E+03 -0.15786994483E+03 -0.46790116148E+03  0.51898948653E+03  0.00000000000E+00 0.  1.
         -2    1    3    3    0  502 -0.19048380548E+03 -0.82540036878E+02 -0.34069919383E+03  0.39896475849E+03  0.00000000000E+00 0. -1.
         11    1    5    5    0    0 -0.39060602755E+02 -0.44179071244E+02 -0.21520477175E+03  0.22313810703E+03  0.00000000000E+00 0. -1.
        -11    1    5    5    0    0 -0.14878550028E+03 -0.13518206066E+03 -0.32184638205E+03  0.37946858665E+03  0.00000000000E+00 0.  1.
          1    1    6    6  503    0  0.17057657600E+03  0.88941185261E+02 -0.15625215261E+03  0.24783389177E+03  0.00000000000E+00 0. -1.
         -1    1    6    6    0  503  0.36742697070E+03  0.33082992836E+03 -0.50115836949E+03  0.70399625823E+03  0.00000000000E+00 0.  1.
<mgrwt>
<rscale>  0 0.14492964E+04</rscale>
<asrwt>0</asrwt>
<pdfrwt beam="1">  1        2 0.36102237E-01 0.14492964E+04</pdfrwt>
<pdfrwt beam="2">  1       -2 0.34426561E+00 0.14492964E+04</pdfrwt>
<totfact> 0.23874314E+00</totfact>
</mgrwt>
</event>
<event>
12    2  0.8147979E-008  0.1468774E+04  0.7818608E-02  0.8905488E-01
         -2   -1    0    0    0  501 -0.00000000000E+00  0.00000000000E+00  0.39609956025E+03  0.39609956025E+03  0.00000000000E+00 0.  1.
          2   -1    0    0  501    0  0.00000000000E+00 -0.00000000000E+00 -0.13615868124E+04  0.13615868124E+04  0.00000000000E+00 0. -1.
         23    2    1    2    0    0 -0.39003083191E+03 -0.17331462628E+03 -0.12373755966E+03  0.45303577004E+03  0.88138616619E+02 0.  0.
        254    2    1    2    0    0  0.39003083191E+03  0.17331462628E+03 -0.84174969252E+03  0.13046506026E+04  0.90078223816E+03 0.  0.
         23    2    4    4    0    0 -0.12964294199E+03  0.38728649614E+03 -0.44524674505E+03  0.61085985059E+03  0.90038717101E+02 0.  0.
         23    2    4    4    0    0  0.51967377390E+03 -0.21397186986E+03 -0.39650294746E+03  0.69379075205E+03  0.91028720230E+02 0.  0.
          3    1    3    3  502    0 -0.26342240060E+03 -0.97321912562E+02 -0.11982260989E+03  0.30532011667E+03  0.00000000000E+00 0. -1.
         -3    1    3    3    0  502 -0.12660843131E+03 -0.75992713722E+02 -0.39149497614E+01  0.14771565336E+03  0.00000000000E+00 0.  1.
         11    1    5    5    0    0 -0.53460878120E+02  0.54011171390E+02 -0.90852402822E+02  0.11844589998E+03  0.00000000000E+00 0. -1.
        -11    1    5    5    0    0 -0.76182063869E+02  0.33327532475E+03 -0.35439434223E+03  0.49241395060E+03  0.00000000000E+00 0.  1.
          3    1    6    6  503    0  0.49978463108E+03 -0.21949896374E+03 -0.39354861428E+03  0.67293757834E+03  0.00000000000E+00 0.  1.
         -3    1    6    6    0  503  0.19889142824E+02  0.55270938781E+01 -0.29543331835E+01  0.20853173705E+02  0.00000000000E+00 0. -1.
<mgrwt>
<rscale>  0 0.14687736E+04</rscale>
<asrwt>0</asrwt>
<pdfrwt beam="1">  1        2 0.20947490E+00 0.14687736E+04</pdfrwt>
<pdfrwt beam="2">  1       -2 0.60938392E-01 0.14687736E+04</pdfrwt>
<totfact> 0.36949300E+01</totfact>
</mgrwt>
</event>
<event>
12    2  0.8147979E-008  0.1410909E+04  0.7818608E-02  0.8945960E-01
          1   -1    0    0  501    0  0.00000000000E+00  0.00000000000E+00  0.41110800986E+03  0.41110800986E+03  0.00000000000E+00 0. -1.
         -1   -1    0    0    0  501 -0.00000000000E+00 -0.00000000000E+00 -0.12105486476E+04  0.12105486476E+04  0.00000000000E+00 0.  1.
         23    2    1    2    0    0  0.33560068084E+03 -0.23172255910E+02  0.36032331553E+02  0.34992764941E+03  0.89365879869E+02 0.  0.
        254    2    1    2    0    0 -0.33560068084E+03  0.23172255910E+02 -0.83547296933E+03  0.12717290081E+04  0.89783897057E+03 0.  0.
         23    2    4    4    0    0 -0.78566809450E+01  0.40116874747E+03 -0.55674433552E+03  0.69226853890E+03  0.90958141112E+02 0.  0.
         23    2    4    4    0    0 -0.32774399989E+03 -0.37799649156E+03 -0.27872863381E+03  0.57946046918E+03  0.88245719080E+02 0.  0.
          2    1    3    3  502    0  0.44834095972E+01  0.12817398022E+02 -0.47211769273E+01  0.14376236130E+02  0.00000000000E+00 0.  1.
         -2    1    3    3    0  502  0.33111727124E+03 -0.35989653932E+02  0.40753508480E+02  0.33555141328E+03  0.00000000000E+00 0. -1.
         11    1    5    5    0    0  0.22797609788E+02  0.24344459126E+02 -0.44240132043E+02  0.55403727180E+02  0.00000000000E+00 0. -1.
        -11    1    5    5    0    0 -0.30654290733E+02  0.37682428834E+03 -0.51250420347E+03  0.63686481172E+03  0.00000000000E+00 0.  1.
          3    1    6    6  503    0 -0.63440093578E+02 -0.28641691632E+02 -0.31008710041E+02  0.76200604139E+02  0.00000000000E+00 0. -1.
         -3    1    6    6    0  503 -0.26430390631E+03 -0.34935479993E+03 -0.24771992377E+03  0.50325986504E+03  0.00000000000E+00 0.  1.
<mgrwt>
<rscale>  0 0.14109093E+04</rscale>
<asrwt>0</asrwt>
<pdfrwt beam="1">  1        1 0.63247387E-01 0.14109093E+04</pdfrwt>
<pdfrwt beam="2">  1       -1 0.18623825E+00 0.14109093E+04</pdfrwt>
<totfact> 0.10582703E+01</totfact>
</mgrwt>
</event>
<event>
12    2  0.8147979E-008  0.3844939E+04  0.7818608E-02  0.8036579E-01
          2   -1    0    0  501    0  0.00000000000E+00  0.00000000000E+00  0.18754420411E+04  0.18754420411E+04  0.00000000000E+00 0. -1.
         -2   -1    0    0    0  501 -0.00000000000E+00 -0.00000000000E+00 -0.19706760745E+04  0.19706760745E+04  0.00000000000E+00 0.  1.
         23    2    1    2    0    0  0.14103730371E+04 -0.11356908588E+04 -0.18252804620E+03  0.18219833018E+04  0.85795301577E+02 0.  0.
        254    2    1    2    0    0 -0.14103730371E+04  0.11356908588E+04  0.87294012753E+02  0.20241348138E+04  0.90030865217E+03 0.  0.
         23    2    4    4    0    0 -0.36967337416E+03  0.83818668513E+03 -0.84437415570E+02  0.92449062551E+03  0.91312194237E+02 0.  0.
         23    2    4    4    0    0 -0.10406996630E+04  0.29750417366E+03  0.17173142832E+03  0.10996441883E+04  0.90339003309E+02 0.  0.
          3    1    3    3  502    0  0.60536607875E+03 -0.45245729805E+03 -0.43657046639E+02  0.75702815904E+03  0.00000000000E+00 0. -1.
         -3    1    3    3    0  502  0.80500695838E+03 -0.68323356074E+03 -0.13887099956E+03  0.10649551428E+04  0.00000000000E+00 0.  1.
         11    1    5    5    0    0 -0.33448986626E+03  0.67201940534E+03 -0.74475429929E+02  0.75434749383E+03  0.00000000000E+00 0. -1.
        -11    1    5    5    0    0 -0.35183507908E+02  0.16616727978E+03 -0.99619856408E+01  0.17014313168E+03  0.00000000000E+00 0.  1.
          2    1    6    6  503    0 -0.38976477598E+03  0.12735611578E+03  0.23584644336E+02  0.41072179911E+03  0.00000000000E+00 0.  1.
         -2    1    6    6    0  503 -0.65093488699E+03  0.17014805789E+03  0.14814678399E+03  0.68892238918E+03  0.00000000000E+00 0. -1.
<mgrwt>
<rscale>  0 0.38449389E+04</rscale>
<asrwt>0</asrwt>
<pdfrwt beam="1">  1        2 0.28852955E+00 0.38449389E+04</pdfrwt>
<pdfrwt beam="2">  1       -2 0.30318093E+00 0.38449389E+04</pdfrwt>
<totfact> 0.19021843E-01</totfact>
</mgrwt>
</event>
<event>
12    2  0.8147979E-008  0.1957898E+04  0.7818608E-02  0.8626562E-01
          1   -1    0    0  501    0  0.00000000000E+00  0.00000000000E+00  0.82321974292E+03  0.82321974292E+03  0.00000000000E+00 0. -1.
         -1   -1    0    0    0  501 -0.00000000000E+00 -0.00000000000E+00 -0.11641374378E+04  0.11641374378E+04  0.00000000000E+00 0.  1.
         23    2    1    2    0    0  0.57318553111E+03  0.44964003148E+03 -0.38474873521E+03  0.82906650109E+03  0.92746229054E+02 0.  0.
        254    2    1    2    0    0 -0.57318553111E+03 -0.44964003148E+03  0.43831040298E+02  0.11582906797E+04  0.89944334314E+03 0.  0.
         23    2    4    4    0    0 -0.57945061324E+03 -0.15881142486E+03  0.37013913993E+03  0.71168926486E+03  0.92274291966E+02 0.  0.
         23    2    4    4    0    0  0.62650821273E+01 -0.29082860662E+03 -0.32630809963E+03  0.44660141481E+03  0.91407429356E+02 0.  0.
          4    1    3    3  502    0  0.36447956188E+03  0.25678768649E+03 -0.19045711121E+03  0.48482901952E+03  0.00000000000E+00 0. -1.
         -4    1    3    3    0  502  0.20870596923E+03  0.19285234499E+03 -0.19429162400E+03  0.34423748157E+03  0.00000000000E+00 0.  1.
         11    1    5    5    0    0 -0.33130260750E+03 -0.12323687094E+03  0.25480385623E+03  0.43574505074E+03  0.00000000000E+00 0.  1.
        -11    1    5    5    0    0 -0.24814800574E+03 -0.35574553919E+02  0.11533528370E+03  0.27594421412E+03  0.00000000000E+00 0. -1.
          4    1    6    6  503    0  0.30860692406E+02 -0.19025417663E+03 -0.15905926121E+03  0.24989774436E+03  0.00000000000E+00 0. -1.
         -4    1    6    6    0  503 -0.24595610279E+02 -0.10057442999E+03 -0.16724883843E+03  0.19670367045E+03  0.00000000000E+00 0.  1.
<mgrwt>
<rscale>  0 0.19578978E+04</rscale>
<asrwt>0</asrwt>
<pdfrwt beam="1">  1        1 0.12664919E+00 0.19578978E+04</pdfrwt>
<pdfrwt beam="2">  1       -1 0.17909807E+00 0.19578978E+04</pdfrwt>
<totfact> 0.41512232E+00</totfact>
</mgrwt>
</event>
<event>
12    2  0.8147979E-008  0.1930339E+04  0.7818608E-02  0.8639900E-01
         -2   -1    0    0    0  501 -0.00000000000E+00  0.00000000000E+00  0.73941767929E+03  0.73941767929E+03  0.00000000000E+00 0.  1.
          2   -1    0    0  501    0  0.00000000000E+00 -0.00000000000E+00 -0.12598455275E+04  0.12598455275E+04  0.00000000000E+00 0. -1.
         23    2    1    2    0    0 -0.40135931866E+03  0.18043309232E+03 -0.83586156745E+03  0.94887810742E+03  0.89775828131E+02 0.  0.
        254    2    1    2    0    0  0.40135931866E+03 -0.18043309232E+03  0.31543371921E+03  0.10503850994E+04  0.90009167442E+03 0.  0.
         23    2    4    4    0    0  0.59858376053E+02  0.27101958151E+03  0.37291512475E+03  0.47421463913E+03  0.93697358302E+02 0.  0.
         23    2    4    4    0    0  0.34150094261E+03 -0.45145267383E+03 -0.57481405540E+02  0.57617046028E+03  0.90751731678E+02 0.  0.
          3    1    3    3  502    0 -0.28032049417E+03  0.16896639913E+03 -0.59580331677E+03  0.67978733128E+03  0.00000000000E+00 0.  1.
         -3    1    3    3    0  502 -0.12103882449E+03  0.11466693197E+02 -0.24005825067E+03  0.26909077614E+03  0.00000000000E+00 0. -1.
         11    1    5    5    0    0  0.43088626186E+02  0.27141786409E+03  0.33918891307E+03  0.43654713996E+03  0.00000000000E+00 0.  1.
        -11    1    5    5    0    0  0.16769749867E+02 -0.39828258458E+00  0.33726211679E+02  0.37667499171E+02  0.00000000000E+00 0. -1.
          3    1    6    6  503    0  0.15502712819E+03 -0.17370988816E+03 -0.64380733010E+02  0.24156451416E+03  0.00000000000E+00 0. -1.
         -3    1    6    6    0  503  0.18647381441E+03 -0.27774278568E+03  0.68993274699E+01  0.33460594612E+03  0.00000000000E+00 0.  1.
<mgrwt>
<rscale>  0 0.19303389E+04</rscale>
<asrwt>0</asrwt>
<pdfrwt beam="1">  1        2 0.19382239E+00 0.19303389E+04</pdfrwt>
<pdfrwt beam="2">  1       -2 0.11375657E+00 0.19303389E+04</pdfrwt>
<totfact> 0.98750901E+00</totfact>
</mgrwt>
</event>
<event>
12    2  0.8147979E-008  0.1872751E+04  0.7818608E-02  0.8668540E-01
          2   -1    0    0  501    0  0.00000000000E+00  0.00000000000E+00  0.77262271960E+03  0.77262271960E+03  0.00000000000E+00 0. -1.
         -2   -1    0    0    0  501 -0.00000000000E+00 -0.00000000000E+00 -0.11348349916E+04  0.11348349916E+04  0.00000000000E+00 0.  1.
         23    2    1    2    0    0  0.23672348752E+03  0.64703441089E+03  0.83538217179E+02  0.70002979011E+03  0.91496092195E+02 0.  0.
        254    2    1    2    0    0 -0.23672348752E+03 -0.64703441089E+03 -0.44575048916E+03  0.12074279211E+04  0.88571843584E+03 0.  0.
         23    2    4    4    0    0  0.78449151513E+01 -0.21159476975E+03  0.25360012233E+03  0.34295264127E+03  0.92030445108E+02 0.  0.
         23    2    4    4    0    0 -0.24456840267E+03 -0.43543964114E+03 -0.69935061149E+03  0.86447527981E+03  0.93834145995E+02 0.  0.
          4    1    3    3  502    0  0.16963200786E+03  0.48845936831E+03  0.10139074885E+03  0.52692281838E+03  0.00000000000E+00 0. -1.
         -4    1    3    3    0  502  0.67091479665E+02  0.15857504258E+03 -0.17852531668E+02  0.17310697173E+03  0.00000000000E+00 0.  1.
         11    1    5    5    0    0  0.40508344591E+02 -0.15379486676E+03  0.14257611641E+03  0.21359245304E+03  0.00000000000E+00 0.  1.
        -11    1    5    5    0    0 -0.32663429440E+02 -0.57799902987E+02  0.11102400592E+03  0.12936018823E+03  0.00000000000E+00 0. -1.
          1    1    6    6  503    0 -0.44857243024E+02 -0.16001263179E+03 -0.19651146786E+03  0.25735767248E+03  0.00000000000E+00 0. -1.
         -1    1    6    6    0  503 -0.19971115965E+03 -0.27542700936E+03 -0.50283914363E+03  0.60711760734E+03  0.00000000000E+00 0.  1.
<mgrwt>
<rscale>  0 0.18727512E+04</rscale>
<asrwt>0</asrwt>
<pdfrwt beam="1">  1        2 0.11886503E+00 0.18727512E+04</pdfrwt>
<pdfrwt beam="2">  1       -2 0.17459000E+00 0.18727512E+04</pdfrwt>
<totfact> 0.66926468E+00</totfact>
</mgrwt>
</event>
<event>
12    2  0.8147979E-008  0.1656650E+04  0.7818608E-02  0.8786482E-01
         -1   -1    0    0    0  501 -0.00000000000E+00  0.00000000000E+00  0.26967356599E+03  0.26967356599E+03  0.00000000000E+00 0.  1.
          1   -1    0    0  501    0  0.00000000000E+00 -0.00000000000E+00 -0.25442695980E+04  0.25442695980E+04  0.00000000000E+00 0. -1.
         23    2    1    2    0    0 -0.17264310111E+03 -0.45256163292E+03 -0.26534612032E+03  0.55973696608E+03  0.90990305404E+02 0.  0.
        254    2    1    2    0    0  0.17264310111E+03  0.45256163292E+03 -0.20092499117E+04  0.22542061979E+04  0.89985704593E+03 0.  0.
         23    2    4    4    0    0  0.46491908762E+02  0.46291795427E+03 -0.20411858185E+04  0.20955617019E+04  0.92112815991E+02 0.  0.
         23    2    4    4    0    0  0.12615119235E+03 -0.10356321350E+02  0.31935906813E+02  0.15864449600E+03  0.90148750655E+02 0.  0.
          3    1    3    3  502    0 -0.74314102300E+02 -0.99890087649E+02 -0.91056875171E+02  0.15424645839E+03  0.00000000000E+00 0. -1.
         -3    1    3    3    0  502 -0.98328998813E+02 -0.35267154527E+03 -0.17428924515E+03  0.40549050769E+03  0.00000000000E+00 0.  1.
         11    1    5    5    0    0  0.24888051830E+02  0.23583290971E+02 -0.16054821909E+03  0.16416856395E+03  0.00000000000E+00 0. -1.
        -11    1    5    5    0    0  0.21603856932E+02  0.43933466330E+03 -0.18806375994E+04  0.19313931380E+04  0.00000000000E+00 0.  1.
          1    1    6    6  503    0  0.12635554505E+03  0.15748659232E+02  0.35761974092E+02  0.13225983072E+03  0.00000000000E+00 0. -1.
         -1    1    6    6    0  503 -0.20435269475E+00 -0.26104980582E+02 -0.38260672790E+01  0.26384665282E+02  0.00000000000E+00 0.  1.
<mgrwt>
<rscale>  0 0.16566499E+04</rscale>
<asrwt>0</asrwt>
<pdfrwt beam="1">  1        1 0.39142608E+00 0.16566499E+04</pdfrwt>
<pdfrwt beam="2">  1       -1 0.41488242E-01 0.16566499E+04</pdfrwt>
<totfact> 0.68775932E+00</totfact>
</mgrwt>
</event>
<event>
12    2  0.8147979E-008  0.2414550E+04  0.7818608E-02  0.8434076E-01
          1   -1    0    0  501    0  0.00000000000E+00  0.00000000000E+00  0.11100952057E+04  0.11100952057E+04  0.00000000000E+00 0. -1.
         -1   -1    0    0    0  501 -0.00000000000E+00 -0.00000000000E+00 -0.13129617553E+04  0.13129617553E+04  0.00000000000E+00 0.  1.
         23    2    1    2    0    0 -0.87696564623E+03 -0.29958896170E+03 -0.55087014165E+03  0.10816574274E+04  0.87764381551E+02 0.  0.
        254    2    1    2    0    0  0.87696564623E+03  0.29958896170E+03  0.34800359207E+03  0.13413995337E+04  0.90522036994E+03 0.  0.
         23    2    4    4    0    0  0.40562509381E+03 -0.31319483646E+02 -0.26573134877E+03  0.49494441589E+03  0.94043597940E+02 0.  0.
         23    2    4    4    0    0  0.47134055242E+03  0.33090844534E+03  0.61373494084E+03  0.84645511777E+03  0.90296031111E+02 0.  0.
          2    1    3    3  502    0 -0.68319541482E+03 -0.26739309630E+03 -0.45242786304E+03  0.86194316172E+03  0.00000000000E+00 0. -1.
         -2    1    3    3    0  502 -0.19377023141E+03 -0.32195865395E+02 -0.98442278608E+02  0.21971426569E+03  0.00000000000E+00 0.  1.
         11    1    5    5    0    0  0.39115001001E+03 -0.24543761178E+02 -0.27275239543E+03  0.47748779645E+03  0.00000000000E+00 0. -1.
        -11    1    5    5    0    0  0.14475083800E+02 -0.67757224676E+01  0.70210466612E+01  0.17456619438E+02  0.00000000000E+00 0.  1.
          1    1    6    6  503    0  0.44085824616E+03  0.32667210075E+03  0.59903062331E+03  0.81234742707E+03  0.00000000000E+00 0. -1.
         -1    1    6    6    0  503  0.30482306262E+02  0.42363445961E+01  0.14704317536E+02  0.34107690699E+02  0.00000000000E+00 0.  1.
<mgrwt>
<rscale>  0 0.24145497E+04</rscale>
<asrwt>0</asrwt>
<pdfrwt beam="1">  1        1 0.17078388E+00 0.24145497E+04</pdfrwt>
<pdfrwt beam="2">  1       -1 0.20199412E+00 0.24145497E+04</pdfrwt>
<totfact> 0.16259278E+00</totfact>
</mgrwt>
</event>
<event>
12    2  0.8147979E-008  0.1268874E+04  0.7818608E-02  0.9054619E-01
         -1   -1    0    0    0  501 -0.00000000000E+00  0.00000000000E+00  0.15044270436E+03  0.15044270436E+03  0.00000000000E+00 0.  1.
          1   -1    0    0  501    0  0.00000000000E+00 -0.00000000000E+00 -0.26755040252E+04  0.26755040252E+04  0.00000000000E+00 0. -1.
         23    2    1    2    0    0 -0.22402430089E+03  0.20123348080E+03 -0.50773820929E+03  0.59717851708E+03  0.90234643576E+02 0.  0.
        254    2    1    2    0    0  0.22402430089E+03 -0.20123348080E+03 -0.20173231116E+04  0.22287682125E+04  0.89840603707E+03 0.  0.
         23    2    4    4    0    0  0.16347579533E+03  0.61651880243E+02 -0.19167378502E+04  0.19267682919E+04  0.89592267770E+02 0.  0.
         23    2    4    4    0    0  0.60548505560E+02 -0.26288536104E+03 -0.10058526140E+03  0.30199992060E+03  0.91168649517E+02 0.  0.
          2    1    3    3  502    0 -0.67655978287E+02  0.85557573870E+02 -0.11262985306E+03  0.15678939264E+03  0.00000000000E+00 0.  1.
         -2    1    3    3    0  502 -0.15636832260E+03  0.11567590693E+03 -0.39510835623E+03  0.44038912444E+03  0.00000000000E+00 0. -1.
         11    1    5    5    0    0  0.12984146967E+03  0.73200266093E+02 -0.17468912756E+04  0.17532387787E+04  0.00000000000E+00 0. -1.
        -11    1    5    5    0    0  0.33634325665E+02 -0.11548385850E+02 -0.16984657453E+03  0.17352951322E+03  0.00000000000E+00 0.  1.
          3    1    6    6  503    0  0.40546718835E+02 -0.22878708403E+03 -0.49777335390E+02  0.23762438711E+03  0.00000000000E+00 0. -1.
         -3    1    6    6    0  503  0.20001786726E+02 -0.34098277006E+02 -0.50807926006E+02  0.64375533489E+02  0.00000000000E+00 0.  1.
<mgrwt>
<rscale>  0 0.12688736E+04</rscale>
<asrwt>0</asrwt>
<pdfrwt beam="1">  1        1 0.41161597E+00 0.12688736E+04</pdfrwt>
<pdfrwt beam="2">  1       -1 0.23145033E-01 0.12688736E+04</pdfrwt>
<totfact> 0.16183568E+01</totfact>
</mgrwt>
</event>
<event>
12    2  0.8147979E-008  0.1619935E+04  0.7818608E-02  0.8808394E-01
         -2   -1    0    0    0  501 -0.00000000000E+00  0.00000000000E+00  0.45516534387E+03  0.45516534387E+03  0.00000000000E+00 0.  1.
          2   -1    0    0  501    0  0.00000000000E+00 -0.00000000000E+00 -0.14413384673E+04  0.14413384673E+04  0.00000000000E+00 0. -1.
         23    2    1    2    0    0  0.17377629173E+03  0.52504553022E+03 -0.32723647849E+03  0.64897245390E+03  0.90611945681E+02 0.  0.
        254    2    1    2    0    0 -0.17377629173E+03 -0.52504553022E+03 -0.65893664498E+03  0.12475313573E+04  0.90347439199E+03 0.  0.
         23    2    4    4    0    0  0.22362907970E+03 -0.53150220863E+03 -0.16587900650E+03  0.60749125041E+03  0.95001112908E+02 0.  0.
         23    2    4    4    0    0 -0.39740537144E+03  0.64566784118E+01 -0.49305763848E+03  0.64004010689E+03  0.92589338612E+02 0.  0.
          4    1    3    3  502    0  0.94683355792E+02  0.15755410479E+03 -0.92294704452E+02  0.20568555193E+03  0.00000000000E+00 0. -1.
         -4    1    3    3    0  502  0.79092935942E+02  0.36749142543E+03 -0.23494177403E+03  0.44328690198E+03  0.00000000000E+00 0.  1.
         11    1    5    5    0    0  0.87349535099E+02 -0.31955563288E+03 -0.11302054628E+03  0.35002769557E+03  0.00000000000E+00 0. -1.
        -11    1    5    5    0    0  0.13627954461E+03 -0.21194657576E+03 -0.52858460223E+02  0.25746355484E+03  0.00000000000E+00 0.  1.
          3    1    6    6  503    0 -0.24569745486E+03  0.67757047697E+01 -0.37240150316E+03  0.44620178066E+03  0.00000000000E+00 0. -1.
         -3    1    6    6    0  503 -0.15170791658E+03 -0.31902635791E+00 -0.12065613532E+03  0.19383832624E+03  0.00000000000E+00 0.  1.
<mgrwt>
<rscale>  0 0.16199350E+04</rscale>
<asrwt>0</asrwt>
<pdfrwt beam="1">  1        2 0.22174438E+00 0.16199350E+04</pdfrwt>
<pdfrwt beam="2">  1       -2 0.70025439E-01 0.16199350E+04</pdfrwt>
<totfact> 0.24372148E+01</totfact>
</mgrwt>
</event>
<event>
12    2  0.8147979E-008  0.3698080E+04  0.7818608E-02  0.8068388E-01
         -1   -1    0    0    0  501 -0.00000000000E+00  0.00000000000E+00  0.13524507076E+04  0.13524507076E+04  0.00000000000E+00 0.  1.
          1   -1    0    0  501    0  0.00000000000E+00 -0.00000000000E+00 -0.25279651563E+04  0.25279651563E+04  0.00000000000E+00 0. -1.
         23    2    1    2    0    0 -0.17201809469E+04 -0.17331514290E+03 -0.73656488152E+03  0.18823006284E+04  0.10708502319E+03 0.  0.
        254    2    1    2    0    0  0.17201809469E+04  0.17331514290E+03 -0.43894956722E+03  0.19981152355E+04  0.90040387770E+03 0.  0.
         23    2    4    4    0    0  0.62750955862E+02  0.10879546580E+03 -0.29189349979E+03  0.33039437189E+03  0.90468170726E+02 0.  0.
         23    2    4    4    0    0  0.16574299910E+04  0.64519677097E+02 -0.14705606743E+03  0.16677208636E+04  0.91817362687E+02 0.  0.
          1    1    3    3  502    0 -0.56880991386E+03 -0.10131416740E+03 -0.27322866634E+03  0.63911124441E+03  0.00000000000E+00 0. -1.
         -1    1    3    3    0  502 -0.11513710330E+04 -0.72000975496E+02 -0.46333621518E+03  0.12431893840E+04  0.00000000000E+00 0.  1.
         11    1    5    5    0    0 -0.11220202345E+02  0.12265987207E+02 -0.11214796536E+03  0.11337333689E+03  0.00000000000E+00 0.  1.
        -11    1    5    5    0    0  0.73971158207E+02  0.96529478595E+02 -0.17974553443E+03  0.21702103500E+03  0.00000000000E+00 0. -1.
          3    1    6    6  503    0  0.87876374717E+03 -0.11629216272E+02 -0.76179491485E+02  0.88213620090E+03  0.00000000000E+00 0. -1.
         -3    1    6    6    0  503  0.77866624383E+03  0.76148893369E+02 -0.70876575947E+02  0.78558466269E+03  0.00000000000E+00 0.  1.
<mgrwt>
<rscale>  0 0.36980796E+04</rscale>
<asrwt>0</asrwt>
<pdfrwt beam="1">  1        1 0.38891771E+00 0.36980796E+04</pdfrwt>
<pdfrwt beam="2">  1       -1 0.20806934E+00 0.36980796E+04</pdfrwt>
<totfact> 0.13773002E-01</totfact>
</mgrwt>
</event>
<event>
12    2  0.8147979E-008  0.3016955E+04  0.7818608E-02  0.8238906E-01
         -1   -1    0    0    0  501 -0.00000000000E+00  0.00000000000E+00  0.14821142748E+04  0.14821142748E+04  0.00000000000E+00 0.  1.
          1   -1    0    0  501    0  0.00000000000E+00 -0.00000000000E+00 -0.15353101390E+04  0.15353101390E+04  0.00000000000E+00 0. -1.
         23    2    1    2    0    0 -0.13015339985E+04 -0.11681771913E+03 -0.44523883384E+03  0.13835917621E+04  0.91931583893E+02 0.  0.
        254    2    1    2    0    0  0.13015339985E+04  0.11681771913E+03  0.39204296958E+03  0.16338326517E+04  0.89892953845E+03 0.  0.
         23    2    4    4    0    0  0.78651957857E+03  0.32074262495E+03 -0.13370570876E+03  0.86479113132E+03  0.92182456737E+02 0.  0.
         23    2    4    4    0    0  0.51501441994E+03 -0.20392490582E+03  0.52574867835E+03  0.76904152041E+03  0.90487387935E+02 0.  0.
          1    1    3    3  502    0 -0.22071581015E+03  0.13280770591E+02 -0.85564636145E+02  0.23709313503E+03  0.00000000000E+00 0. -1.
         -1    1    3    3    0  502 -0.10808181884E+04 -0.13009848973E+03 -0.35967419769E+03  0.11464986270E+04  0.00000000000E+00 0.  1.
         11    1    5    5    0    0  0.58124610058E+03  0.20625501787E+03 -0.66505002309E+02  0.62033142526E+03  0.00000000000E+00 0.  1.
        -11    1    5    5    0    0  0.20527347799E+03  0.11448760708E+03 -0.67200706453E+02  0.24445970606E+03  0.00000000000E+00 0. -1.
          3    1    6    6  503    0  0.72246407163E+02 -0.15560752774E+02  0.35049926170E+02  0.81793506462E+02  0.00000000000E+00 0. -1.
         -3    1    6    6    0  503  0.44276801278E+03 -0.18836415304E+03  0.49069875218E+03  0.68724801395E+03  0.00000000000E+00 0.  1.
<mgrwt>
<rscale>  0 0.30169555E+04</rscale>
<asrwt>0</asrwt>
<pdfrwt beam="1">  1        1 0.23620156E+00 0.30169555E+04</pdfrwt>
<pdfrwt beam="2">  1       -1 0.22801758E+00 0.30169555E+04</pdfrwt>
<totfact> 0.51130461E-01</totfact>
</mgrwt>
</event>
<event>
12    2  0.8147979E-008  0.1539583E+04  0.7818608E-02  0.8858549E-01
         -2   -1    0    0    0  501 -0.00000000000E+00  0.00000000000E+00  0.14334571573E+04  0.14334571573E+04  0.00000000000E+00 0.  1.
          2   -1    0    0  501    0  0.00000000000E+00 -0.00000000000E+00 -0.41339160327E+03  0.41339160327E+03  0.00000000000E+00 0. -1.
         23    2    1    2    0    0  0.21981638752E+03 -0.41263754505E+03  0.55888019818E+03  0.73453329901E+03  0.92752917101E+02 0.  0.
        254    2    1    2    0    0 -0.21981638752E+03  0.41263754505E+03  0.46118535585E+03  0.11123154616E+04  0.89775540420E+03 0.  0.
         23    2    4    4    0    0  0.23089184667E+03  0.35004484215E+03 -0.38098439080E+02  0.43076252735E+03  0.90897896200E+02 0.  0.
         23    2    4    4    0    0 -0.45070823419E+03  0.62592702898E+02  0.49928379493E+03  0.68155293421E+03  0.90412031428E+02 0.  0.
          3    1    3    3  502    0  0.45249971943E+02 -0.14115104092E+03  0.23080716597E+03  0.27430480159E+03  0.00000000000E+00 0. -1.
         -3    1    3    3    0  502  0.17456641558E+03 -0.27148650413E+03  0.32807303221E+03  0.46022849742E+03  0.00000000000E+00 0.  1.
         11    1    5    5    0    0  0.37392494055E+02  0.93691065040E+02 -0.42707835257E+02  0.10954530329E+03  0.00000000000E+00 0. -1.
        -11    1    5    5    0    0  0.19349935261E+03  0.25635377711E+03  0.46093961773E+01  0.32121722407E+03  0.00000000000E+00 0.  1.
          2    1    6    6  503    0 -0.10777883346E+03  0.51466578888E+02  0.15267343986E+03  0.19384082368E+03  0.00000000000E+00 0. -1.
         -2    1    6    6    0  503 -0.34292940073E+03  0.11126124010E+02  0.34661035507E+03  0.48771211053E+03  0.00000000000E+00 0.  1.
<mgrwt>
<rscale>  0 0.15395833E+04</rscale>
<asrwt>0</asrwt>
<pdfrwt beam="1">  1        2 0.63598709E-01 0.15395833E+04</pdfrwt>
<pdfrwt beam="2">  1       -2 0.22053187E+00 0.15395833E+04</pdfrwt>
<totfact> 0.72331209E+00</totfact>
</mgrwt>
</event>
<event>
12    2  0.8147979E-008  0.1571876E+04  0.7818608E-02  0.8838015E-01
          2   -1    0    0  501    0  0.00000000000E+00  0.00000000000E+00  0.13482414572E+04  0.13482414572E+04  0.00000000000E+00 0. -1.
         -2   -1    0    0    0  501 -0.00000000000E+00 -0.00000000000E+00 -0.45815109970E+03  0.45815109970E+03  0.00000000000E+00 0.  1.
         23    2    1    2    0    0  0.42758786958E+03 -0.30014459736E+03  0.29259155417E+03  0.60605237578E+03  0.93656281591E+02 0.  0.
        254    2    1    2    0    0 -0.42758786958E+03  0.30014459736E+03  0.59749880335E+03  0.12003401811E+04  0.90049628812E+03 0.  0.
         23    2    4    4    0    0 -0.60833171707E+03  0.99436985906E+02  0.10633390669E+03  0.63199314854E+03  0.90295337253E+02 0.  0.
         23    2    4    4    0    0  0.18074384749E+03  0.20070761146E+03  0.49116489666E+03  0.56834703260E+03  0.93933540562E+02 0.  0.
          2    1    3    3  502    0  0.46704693170E+02 -0.19506138387E+01  0.31414318915E+02  0.56320446477E+02  0.00000000000E+00 0.  1.
         -2    1    3    3    0  502  0.38088317641E+03 -0.29819398353E+03  0.26117723525E+03  0.54973192930E+03  0.00000000000E+00 0. -1.
         11    1    5    5    0    0 -0.18117126900E+03 -0.59747783707E+00  0.26566400724E+01  0.18119173112E+03  0.00000000000E+00 0.  1.
        -11    1    5    5    0    0 -0.42716044807E+03  0.10003446374E+03  0.10367726662E+03  0.45080141742E+03  0.00000000000E+00 0. -1.
          1    1    6    6  503    0  0.18261143860E+03  0.19530882209E+03  0.42618440400E+03  0.50311591081E+03  0.00000000000E+00 0. -1.
         -1    1    6    6    0  503 -0.18675911099E+01  0.53987893722E+01  0.64980492662E+02  0.65231121789E+02  0.00000000000E+00 0.  1.
<mgrwt>
<rscale>  0 0.15718757E+04</rscale>
<asrwt>0</asrwt>
<pdfrwt beam="1">  1        2 0.20742176E+00 0.15718757E+04</pdfrwt>
<pdfrwt beam="2">  1       -2 0.70484785E-01 0.15718757E+04</pdfrwt>
<totfact> 0.27270825E+01</totfact>
</mgrwt>
</event>
<event>
12    2  0.8147979E-008  0.1398537E+04  0.7818608E-02  0.8954878E-01
          2   -1    0    0  501    0  0.00000000000E+00  0.00000000000E+00  0.71562608720E+03  0.71562608720E+03  0.00000000000E+00 0. -1.
         -2   -1    0    0    0  501 -0.00000000000E+00 -0.00000000000E+00 -0.68328522420E+03  0.68328522420E+03  0.00000000000E+00 0.  1.
         23    2    1    2    0    0 -0.39434008218E+03  0.37145965113E+02 -0.80235750178E+02  0.41445690350E+03  0.91939252290E+02 0.  0.
        254    2    1    2    0    0  0.39434008218E+03 -0.37145965113E+02  0.11257661318E+03  0.98445440790E+03  0.89419967807E+03 0.  0.
         23    2    4    4    0    0  0.66080584285E+03  0.71450033531E+02  0.31662151370E+02  0.67177870659E+03  0.92274967116E+02 0.  0.
         23    2    4    4    0    0 -0.26646576067E+03 -0.10859599864E+03  0.80914461811E+02  0.31267570132E+03  0.91770646366E+02 0.  0.
          3    1    3    3  502    0 -0.35782555869E+03  0.58142180437E+02 -0.84142771768E+02  0.37215541060E+03  0.00000000000E+00 0.  1.
         -3    1    3    3    0  502 -0.36514523490E+02 -0.20996215324E+02  0.39070215899E+01  0.42301492897E+02  0.00000000000E+00 0. -1.
         11    1    5    5    0    0 -0.30497089593E+01  0.27910243978E+00  0.15693932594E+01  0.34411652257E+01  0.00000000000E+00 0. -1.
        -11    1    5    5    0    0  0.66385555181E+03  0.71170931092E+02  0.30092758111E+02  0.66833754136E+03  0.00000000000E+00 0.  1.
          3    1    6    6  503    0  0.21626786862E+01 -0.94213160982E+01 -0.83085354551E+01  0.12746377428E+02  0.00000000000E+00 0. -1.
         -3    1    6    6    0  503 -0.26862843935E+03 -0.99174682547E+02  0.89222997267E+02  0.29992932389E+03  0.00000000000E+00 0.  1.
<mgrwt>
<rscale>  0 0.13985374E+04</rscale>
<asrwt>0</asrwt>
<pdfrwt beam="1">  1        2 0.11009632E+00 0.13985374E+04</pdfrwt>
<pdfrwt beam="2">  1       -2 0.10512080E+00 0.13985374E+04</pdfrwt>
<totfact> 0.28430681E+01</totfact>
</mgrwt>
</event>
<event>
12    2  0.8147979E-008  0.1465882E+04  0.7818608E-02  0.8907464E-01
          1   -1    0    0  501    0  0.00000000000E+00  0.00000000000E+00  0.20817256108E+04  0.20817256108E+04  0.00000000000E+00 0. -1.
         -1   -1    0    0    0  501 -0.00000000000E+00 -0.00000000000E+00 -0.25805626742E+03  0.25805626742E+03  0.00000000000E+00 0.  1.
         23    2    1    2    0    0  0.12978235838E+03  0.37017332621E+03  0.92628116585E+03  0.10094946885E+04  0.84917465634E+02 0.  0.
        254    2    1    2    0    0 -0.12978235838E+03 -0.37017332621E+03  0.89738817756E+03  0.13302871897E+04  0.90027035603E+03 0.  0.
         23    2    4    4    0    0  0.11893200501E+03  0.22311743596E+03  0.50379371603E+03  0.57075067299E+03  0.89565676266E+02 0.  0.
         23    2    4    4    0    0 -0.24871436339E+03 -0.59329076217E+03  0.39359446153E+03  0.75953651673E+03  0.90146309201E+02 0.  0.
          3    1    3    3  502    0  0.10292107183E+03  0.23758000054E+03  0.51302716663E+03  0.57465979273E+03  0.00000000000E+00 0. -1.
         -3    1    3    3    0  502  0.26861286549E+02  0.13259332566E+03  0.41325399922E+03  0.43483489580E+03  0.00000000000E+00 0.  1.
         11    1    5    5    0    0  0.32097183031E+02  0.72999714501E+02  0.25721526720E+03  0.26929329950E+03  0.00000000000E+00 0.  1.
        -11    1    5    5    0    0  0.86834821980E+02  0.15011772146E+03  0.24657844883E+03  0.30145737349E+03  0.00000000000E+00 0. -1.
          1    1    6    6  503    0 -0.17123628603E+03 -0.45373788903E+03  0.33533822788E+03  0.58961993239E+03  0.00000000000E+00 0. -1.
         -1    1    6    6    0  503 -0.77478077367E+02 -0.13955287314E+03  0.58256233648E+02  0.16991658434E+03  0.00000000000E+00 0.  1.
<mgrwt>
<rscale>  0 0.14658818E+04</rscale>
<asrwt>0</asrwt>
<pdfrwt beam="1">  1        1 0.32026547E+00 0.14658818E+04</pdfrwt>
<pdfrwt beam="2">  1       -1 0.39700966E-01 0.14658818E+04</pdfrwt>
<totfact> 0.15723778E+01</totfact>
</mgrwt>
</event>
<event>
12    2  0.8147979E-008  0.1768406E+04  0.7818608E-02  0.8723283E-01
          2   -1    0    0  501    0  0.00000000000E+00  0.00000000000E+00  0.13116344341E+04  0.13116344341E+04  0.00000000000E+00 0. -1.
         -2   -1    0    0    0  501 -0.00000000000E+00 -0.00000000000E+00 -0.59606179595E+03  0.59606179595E+03  0.00000000000E+00 0.  1.
         23    2    1    2    0    0  0.54703460620E+03  0.29639177236E+02 -0.11270323778E+03  0.56638625433E+03  0.89252608244E+02 0.  0.
        254    2    1    2    0    0 -0.54703460620E+03 -0.29639177236E+02  0.82827587588E+03  0.13413099757E+04  0.90163528275E+03 0.  0.
         23    2    4    4    0    0 -0.13210868540E+03 -0.40105601929E+03  0.58384380920E+03  0.72632731162E+03  0.91537613584E+02 0.  0.
         23    2    4    4    0    0 -0.41492592080E+03  0.37141684205E+03  0.24443206668E+03  0.61498266406E+03  0.91338116696E+02 0.  0.
          4    1    3    3  502    0  0.51095821243E+03  0.46846789742E+02 -0.91690491300E+02  0.52122937633E+03  0.00000000000E+00 0. -1.
         -4    1    3    3    0  502  0.36076393769E+02 -0.17207612506E+02 -0.21012746478E+02  0.45156877993E+02  0.00000000000E+00 0.  1.
         11    1    5    5    0    0 -0.84412856032E+02 -0.19363451795E+03  0.22132747110E+03  0.30595049643E+03  0.00000000000E+00 0. -1.
        -11    1    5    5    0    0 -0.47695829363E+02 -0.20742150134E+03  0.36251633811E+03  0.42037681519E+03  0.00000000000E+00 0.  1.
          3    1    6    6  503    0 -0.30833667944E+03  0.31528565499E+03  0.16583963632E+03  0.47114683179E+03  0.00000000000E+00 0. -1.
         -3    1    6    6    0  503 -0.10658924136E+03  0.56131187057E+02  0.78592430357E+02  0.14383583227E+03  0.00000000000E+00 0.  1.
<mgrwt>
<rscale>  0 0.17684063E+04</rscale>
<asrwt>0</asrwt>
<pdfrwt beam="1">  1        2 0.20178991E+00 0.17684063E+04</pdfrwt>
<pdfrwt beam="2">  1       -2 0.91701815E-01 0.17684063E+04</pdfrwt>
<totfact> 0.15589749E+01</totfact>
</mgrwt>
</event>
<event>
12    2  0.8147979E-008  0.1484778E+04  0.7818608E-02  0.8894639E-01
          3   -1    0    0  501    0  0.00000000000E+00  0.00000000000E+00  0.15753827913E+03  0.15753827913E+03  0.00000000000E+00 0. -1.
         -3   -1    0    0    0  501 -0.00000000000E+00 -0.00000000000E+00 -0.34984608556E+04  0.34984608556E+04  0.00000000000E+00 0.  1.
         23    2    1    2    0    0  0.21936182110E+02  0.35767007518E+03 -0.33978049844E+03  0.50220113551E+03  0.91357072054E+02 0.  0.
        254    2    1    2    0    0 -0.21936182110E+02 -0.35767007518E+03 -0.30011420780E+04  0.31537979992E+04  0.90065474440E+03 0.  0.
         23    2    4    4    0    0 -0.29126204884E+03  0.60211570284E+02 -0.41252808804E+03  0.51662074666E+03  0.90876609576E+02 0.  0.
         23    2    4    4    0    0  0.26932586673E+03 -0.41788164547E+03 -0.25886139899E+04  0.26371772525E+04  0.81363260485E+02 0.  0.
          4    1    3    3  502    0 -0.29203667515E+02  0.15448877253E+03 -0.11414739389E+03  0.19429169454E+03  0.00000000000E+00 0. -1.
         -4    1    3    3    0  502  0.51139849625E+02  0.20318130265E+03 -0.22563310455E+03  0.30790944097E+03  0.00000000000E+00 0.  1.
         11    1    5    5    0    0 -0.25732548365E+03  0.30005080040E+02 -0.38315576240E+03  0.46252032131E+03  0.00000000000E+00 0. -1.
        -11    1    5    5    0    0 -0.33936565192E+02  0.30206490244E+02 -0.29372325642E+02  0.54100425354E+02  0.00000000000E+00 0.  1.
          2    1    6    6  503    0  0.60001157110E+02 -0.55526426846E+02 -0.55141388577E+03  0.55744111469E+03  0.00000000000E+00 0. -1.
         -2    1    6    6    0  503  0.20932470962E+03 -0.36235521862E+03 -0.20372001042E+04  0.20797361378E+04  0.00000000000E+00 0.  1.
<mgrwt>
<rscale>  0 0.14847781E+04</rscale>
<asrwt>0</asrwt>
<pdfrwt beam="1">  1        3 0.24236658E-01 0.14847781E+04</pdfrwt>
<pdfrwt beam="2">  1       -3 0.53822476E+00 0.14847781E+04</pdfrwt>
<totfact> 0.79777633E-02</totfact>
</mgrwt>
</event>
<event>
12    2  0.8147979E-008  0.3440420E+04  0.7818608E-02  0.8128057E-01
          2   -1    0    0  501    0  0.00000000000E+00  0.00000000000E+00  0.18080090665E+04  0.18080090665E+04  0.00000000000E+00 0. -1.
         -2   -1    0    0    0  501 -0.00000000000E+00 -0.00000000000E+00 -0.16366742997E+04  0.16366742997E+04  0.00000000000E+00 0.  1.
         23    2    1    2    0    0  0.14842265312E+04  0.59318761718E+03  0.17192892521E+03  0.16101933930E+04  0.91450874719E+02 0.  0.
        254    2    1    2    0    0 -0.14842265312E+04 -0.59318761718E+03 -0.59415838257E+00  0.18344899733E+04  0.90030726088E+03 0.  0.
         23    2    4    4    0    0 -0.63853727756E+03  0.19665521298E+03 -0.32634784126E+01  0.67350054333E+03  0.84789173481E+02 0.  0.
         23    2    4    4    0    0 -0.84568925359E+03 -0.78984283016E+03  0.26693200300E+01  0.11609894299E+04  0.94060199551E+02 0.  0.
          2    1    3    3  502    0  0.95442533649E+03  0.41520876241E+03  0.81345972614E+02  0.10440034514E+04  0.00000000000E+00 0. -1.
         -2    1    3    3    0  502  0.52980119467E+03  0.17797885477E+03  0.90582952593E+02  0.56618994155E+03  0.00000000000E+00 0.  1.
         11    1    5    5    0    0 -0.46293709177E+03  0.17725219587E+03  0.14639708988E+02  0.49592682217E+03  0.00000000000E+00 0. -1.
        -11    1    5    5    0    0 -0.17560018580E+03  0.19403017118E+02 -0.17903187401E+02  0.17757372116E+03  0.00000000000E+00 0.  1.
          1    1    6    6  503    0 -0.51449445990E+03 -0.41681149823E+03  0.13428122402E+01  0.66214664347E+03  0.00000000000E+00 0. -1.
         -1    1    6    6    0  503 -0.33119479369E+03 -0.37303133194E+03  0.13265077899E+01  0.49884278646E+03  0.00000000000E+00 0.  1.
<mgrwt>
<rscale>  0 0.34404197E+04</rscale>
<asrwt>0</asrwt>
<pdfrwt beam="1">  1        2 0.27815524E+00 0.34404197E+04</pdfrwt>
<pdfrwt beam="2">  1       -2 0.25179604E+00 0.34404197E+04</pdfrwt>
<totfact> 0.44183187E-01</totfact>
</mgrwt>
</event>
<event>
12    2  0.8147979E-008  0.1325466E+04  0.7818608E-02  0.9009611E-01
         -1   -1    0    0    0  501 -0.00000000000E+00  0.00000000000E+00  0.83463526638E+03  0.83463526638E+03  0.00000000000E+00 0.  1.
          1   -1    0    0  501    0  0.00000000000E+00 -0.00000000000E+00 -0.52623592175E+03  0.52623592175E+03  0.00000000000E+00 0. -1.
         23    2    1    2    0    0  0.16147161236E+03  0.17444314732E+03 -0.18436448090E+03  0.31403222873E+03  0.90124833495E+02 0.  0.
        254    2    1    2    0    0 -0.16147161236E+03 -0.17444314732E+03  0.49276382554E+03  0.10468389594E+04  0.89249768958E+03 0.  0.
         23    2    4    4    0    0 -0.23347653967E+03  0.48599431511E+02 -0.19061245890E+03  0.31850412175E+03  0.90766550915E+02 0.  0.
         23    2    4    4    0    0  0.72004927312E+02 -0.22304257883E+03  0.68337628444E+03  0.72833483764E+03  0.92389328730E+02 0.  0.
          2    1    3    3  502    0  0.16438715009E+03  0.16553981018E+03 -0.19184401430E+03  0.30204418500E+03  0.00000000000E+00 0. -1.
         -2    1    3    3    0  502 -0.29155377344E+01  0.89033371461E+01  0.74795333927E+01  0.11988043727E+02  0.00000000000E+00 0.  1.
         11    1    5    5    0    0 -0.10135629508E+03  0.67248179115E+02 -0.86366604025E+02  0.14917977891E+03  0.00000000000E+00 0. -1.
        -11    1    5    5    0    0 -0.13212024460E+03 -0.18648747604E+02 -0.10424585488E+03  0.16932434284E+03  0.00000000000E+00 0.  1.
          2    1    6    6  503    0  0.54274479877E+02 -0.22683473441E+03  0.62014442789E+03  0.66255477309E+03  0.00000000000E+00 0. -1.
         -2    1    6    6    0  503  0.17730447435E+02  0.37921555775E+01  0.63231856551E+02  0.65780064557E+02  0.00000000000E+00 0.  1.
<mgrwt>
<rscale>  0 0.13254660E+04</rscale>
<asrwt>0</asrwt>
<pdfrwt beam="1">  1        1 0.80959373E-01 0.13254660E+04</pdfrwt>
<pdfrwt beam="2">  1       -1 0.12840543E+00 0.13254660E+04</pdfrwt>
<totfact> 0.21184792E+01</totfact>
</mgrwt>
</event>
<event>
12    2  0.8147979E-008  0.1818442E+04  0.7818608E-02  0.8696553E-01
          2   -1    0    0  501    0  0.00000000000E+00  0.00000000000E+00  0.22311058755E+04  0.22311058755E+04  0.00000000000E+00 0. -1.
         -2   -1    0    0    0  501 -0.00000000000E+00 -0.00000000000E+00 -0.37052588982E+03  0.37052588982E+03  0.00000000000E+00 0.  1.
         23    2    1    2    0    0  0.16838888441E+03  0.52382723251E+03  0.12572981180E+03  0.57153207487E+03  0.89950770490E+02 0.  0.
        254    2    1    2    0    0 -0.16838888441E+03 -0.52382723251E+03  0.17348501739E+04  0.20300996905E+04  0.89936079604E+03 0.  0.
         23    2    4    4    0    0  0.26888898539E+03 -0.14005763054E+03  0.17171853440E+03  0.35979881991E+03  0.89724631027E+02 0.  0.
         23    2    4    4    0    0 -0.43727786980E+03 -0.38376960197E+03  0.15631316395E+04  0.16703008706E+04  0.89629420308E+02 0.  0.
          4    1    3    3  502    0  0.93237644682E+02  0.36734704497E+03  0.50513590733E+02  0.38234635173E+03  0.00000000000E+00 0. -1.
         -4    1    3    3    0  502  0.75151239730E+02  0.15648018754E+03  0.75216221071E+02  0.18918572313E+03  0.00000000000E+00 0.  1.
         11    1    5    5    0    0  0.14947414808E+03 -0.10941487512E+03  0.14085448208E+03  0.23271038001E+03  0.00000000000E+00 0.  1.
        -11    1    5    5    0    0  0.11941483731E+03 -0.30642755414E+02  0.30864052321E+02  0.12708843990E+03  0.00000000000E+00 0. -1.
          1    1    6    6  503    0 -0.40053945561E+03 -0.37816967693E+03  0.14437957588E+04  0.15453123804E+04  0.00000000000E+00 0. -1.
         -1    1    6    6    0  503 -0.36738414190E+02 -0.55999250425E+01  0.11933588075E+03  0.12498849015E+03  0.00000000000E+00 0.  1.
<mgrwt>
<rscale>  0 0.18184416E+04</rscale>
<asrwt>0</asrwt>
<pdfrwt beam="1">  1        2 0.34324705E+00 0.18184416E+04</pdfrwt>
<pdfrwt beam="2">  1       -2 0.57003984E-01 0.18184416E+04</pdfrwt>
<totfact> 0.13492395E+01</totfact>
</mgrwt>
</event>
<event>
12    2  0.8147979E-008  0.1506756E+04  0.7818608E-02  0.8879973E-01
         -3   -1    0    0    0  501 -0.00000000000E+00  0.00000000000E+00  0.10485881288E+04  0.10485881288E+04  0.00000000000E+00 0.  1.
          3   -1    0    0  501    0  0.00000000000E+00 -0.00000000000E+00 -0.54127844768E+03  0.54127844768E+03  0.00000000000E+00 0. -1.
         23    2    1    2    0    0 -0.18396324780E+03 -0.40988591997E+02  0.63274849559E+03  0.66670653458E+03  0.92759923288E+02 0.  0.
        254    2    1    2    0    0  0.18396324780E+03  0.40988591997E+02 -0.12543881447E+03  0.92316004189E+03  0.89496761145E+03 0.  0.
         23    2    4    4    0    0 -0.12044520620E+03 -0.31468101590E+03 -0.25099013523E+03  0.42963895140E+03  0.89790818662E+02 0.  0.
         23    2    4    4    0    0  0.30440845401E+03  0.35566960789E+03  0.12555132076E+03  0.49352109048E+03  0.92922310343E+02 0.  0.
          4    1    3    3  502    0 -0.17054433858E+03 -0.58563909651E+01  0.48120373850E+03  0.51056508565E+03  0.00000000000E+00 0. -1.
         -4    1    3    3    0  502 -0.13418909224E+02 -0.35132201032E+02  0.15154475708E+03  0.15614144893E+03  0.00000000000E+00 0.  1.
         11    1    5    5    0    0 -0.88536777935E+02 -0.19187769931E+03 -0.20573633110E+03  0.29492922960E+03  0.00000000000E+00 0.  1.
        -11    1    5    5    0    0 -0.31908428270E+02 -0.12280331659E+03 -0.45253804134E+02  0.13470972180E+03  0.00000000000E+00 0. -1.
          4    1    6    6  503    0  0.26023823446E+03  0.31835499666E+03  0.77691061057E+02  0.41846116132E+03  0.00000000000E+00 0. -1.
         -4    1    6    6    0  503  0.44170219552E+02  0.37314611236E+02  0.47860259700E+02  0.75059929160E+02  0.00000000000E+00 0.  1.
<mgrwt>
<rscale>  0 0.15067557E+04</rscale>
<asrwt>0</asrwt>
<pdfrwt beam="1">  1        3 0.83273607E-01 0.15067557E+04</pdfrwt>
<pdfrwt beam="2">  1       -3 0.16132125E+00 0.15067557E+04</pdfrwt>
<totfact> 0.89596086E-01</totfact>
</mgrwt>
</event>
<event>
12    2  0.8147979E-008  0.2402828E+04  0.7818608E-02  0.8438446E-01
          1   -1    0    0  501    0  0.00000000000E+00  0.00000000000E+00  0.14499679473E+04  0.14499679473E+04  0.00000000000E+00 0. -1.
         -1   -1    0    0    0  501 -0.00000000000E+00 -0.00000000000E+00 -0.99546732997E+03  0.99546732997E+03  0.00000000000E+00 0.  1.
         23    2    1    2    0    0  0.31412400139E+03  0.87646554375E+03 -0.25490008459E+03  0.96968975191E+03  0.91969691715E+02 0.  0.
        254    2    1    2    0    0 -0.31412400139E+03 -0.87646554375E+03  0.70940070196E+03  0.14757455254E+04  0.89872674502E+03 0.  0.
         23    2    4    4    0    0 -0.61752254415E+03 -0.48617056403E+03  0.41268360597E+03  0.89210348956E+03  0.88571821649E+02 0.  0.
         23    2    4    4    0    0  0.30339854276E+03 -0.39029497972E+03  0.29671709599E+03  0.58364203586E+03  0.90642947977E+02 0.  0.
          3    1    3    3  502    0  0.19364419271E+03  0.43025011040E+03 -0.10064636857E+03  0.48243437105E+03  0.00000000000E+00 0. -1.
         -3    1    3    3    0  502  0.12047980868E+03  0.44621543335E+03 -0.15425371602E+03  0.48725538085E+03  0.00000000000E+00 0.  1.
         11    1    5    5    0    0 -0.60413488683E+03 -0.45626560954E+03  0.38571186474E+03  0.84966517554E+03  0.00000000000E+00 0. -1.
        -11    1    5    5    0    0 -0.13387657318E+02 -0.29904954488E+02  0.26971741230E+02  0.42438314014E+02  0.00000000000E+00 0.  1.
          4    1    6    6  503    0  0.26251827560E+03 -0.31800416319E+03  0.20705174308E+03  0.46142487704E+03  0.00000000000E+00 0. -1.
         -4    1    6    6    0  503  0.40880267155E+02 -0.72290816530E+02  0.89665352913E+02  0.12221715882E+03  0.00000000000E+00 0.  1.
<mgrwt>
<rscale>  0 0.24028281E+04</rscale>
<asrwt>0</asrwt>
<pdfrwt beam="1">  1        1 0.22307199E+00 0.24028281E+04</pdfrwt>
<pdfrwt beam="2">  1       -1 0.15314882E+00 0.24028281E+04</pdfrwt>
<totfact> 0.20942160E+00</totfact>
</mgrwt>
</event>
<event>
12    2  0.8147979E-008  0.2422021E+04  0.7818608E-02  0.8431305E-01
          2   -1    0    0  501    0  0.00000000000E+00  0.00000000000E+00  0.21393843039E+04  0.21393843039E+04  0.00000000000E+00 0. -1.
         -2   -1    0    0    0  501 -0.00000000000E+00 -0.00000000000E+00 -0.68549907348E+03  0.68549907348E+03  0.00000000000E+00 0.  1.
         23    2    1    2    0    0  0.85735706343E+03  0.38615550409E+03  0.10643906628E+03  0.95071618340E+03  0.91404480203E+02 0.  0.
        254    2    1    2    0    0 -0.85735706343E+03 -0.38615550409E+03  0.13474461641E+04  0.18741671939E+04  0.90150668225E+03 0.  0.
         23    2    4    4    0    0 -0.76726705806E+02  0.24555148830E+03  0.16153163095E+03  0.31752741552E+03  0.92459023476E+02 0.  0.
         23    2    4    4    0    0 -0.78063035762E+03 -0.63170699239E+03  0.11859145332E+04  0.15566397784E+04  0.91085895307E+02 0.  0.
          1    1    3    3  502    0  0.32749036590E+03  0.18187725954E+03  0.10241654395E+02  0.37474547200E+03  0.00000000000E+00 0.  1.
         -1    1    3    3    0  502  0.52986669753E+03  0.20427824455E+03  0.96197411881E+02  0.57597071141E+03  0.00000000000E+00 0. -1.
         11    1    5    5    0    0 -0.31848733824E+02  0.21796727745E+03  0.12333642244E+03  0.25245979677E+03  0.00000000000E+00 0. -1.
        -11    1    5    5    0    0 -0.44877971982E+02  0.27584210855E+02  0.38195208510E+02  0.65067618758E+02  0.00000000000E+00 0.  1.
          1    1    6    6  503    0 -0.27945378586E+03 -0.18537404032E+03  0.44058705239E+03  0.55369206604E+03  0.00000000000E+00 0. -1.
         -1    1    6    6    0  503 -0.50117657176E+03 -0.44633295208E+03  0.74532748077E+03  0.10029477124E+04  0.00000000000E+00 0.  1.
<mgrwt>
<rscale>  0 0.24220206E+04</rscale>
<asrwt>0</asrwt>
<pdfrwt beam="1">  1        2 0.32913604E+00 0.24220206E+04</pdfrwt>
<pdfrwt beam="2">  1       -2 0.10546140E+00 0.24220206E+04</pdfrwt>
<totfact> 0.36460586E+00</totfact>
</mgrwt>
</event>
<event>
12    2  0.8147979E-008  0.1410070E+04  0.7818608E-02  0.8946561E-01
          2   -1    0    0  501    0  0.00000000000E+00  0.00000000000E+00  0.14140163135E+04  0.14140163135E+04  0.00000000000E+00 0. -1.
         -2   -1    0    0    0  501 -0.00000000000E+00 -0.00000000000E+00 -0.35153366397E+03  0.35153366397E+03  0.00000000000E+00 0.  1.
         23    2    1    2    0    0  0.34200054105E+03  0.22965826124E+03  0.33085022361E+03  0.53587430930E+03  0.89398645786E+02 0.  0.
        254    2    1    2    0    0 -0.34200054105E+03 -0.22965826124E+03  0.73163242597E+03  0.12296756682E+04  0.89839242830E+03 0.  0.
         23    2    4    4    0    0 -0.32899786669E+03  0.25842558847E+03  0.55872144668E+03  0.70400973898E+03  0.91851382872E+02 0.  0.
         23    2    4    4    0    0 -0.13002674364E+02 -0.48808384971E+03  0.17291097929E+03  0.52566592923E+03  0.89618907087E+02 0.  0.
          1    1    3    3  502    0  0.25227939904E+03  0.20751379765E+03  0.28089207097E+03  0.43082157203E+03  0.00000000000E+00 0. -1.
         -1    1    3    3    0  502  0.89721142019E+02  0.22144463588E+02  0.49958152646E+02  0.10505273727E+03  0.00000000000E+00 0.  1.
         11    1    5    5    0    0 -0.21682779747E+03  0.13427193477E+03  0.39307828230E+03  0.46856566481E+03  0.00000000000E+00 0. -1.
        -11    1    5    5    0    0 -0.11217006923E+03  0.12415365370E+03  0.16564316438E+03  0.23544407417E+03  0.00000000000E+00 0.  1.
          1    1    6    6  503    0 -0.45531596396E+01 -0.48439304010E+03  0.16071948282E+03  0.51038034907E+03  0.00000000000E+00 0. -1.
         -1    1    6    6    0  503 -0.84495147244E+01 -0.36908096099E+01  0.12191496470E+02  0.15285580160E+02  0.00000000000E+00 0.  1.
<mgrwt>
<rscale>  0 0.14100700E+04</rscale>
<asrwt>0</asrwt>
<pdfrwt beam="1">  1        2 0.21754097E+00 0.14100700E+04</pdfrwt>
<pdfrwt beam="2">  1       -2 0.54082103E-01 0.14100700E+04</pdfrwt>
<totfact> 0.44476234E+01</totfact>
</mgrwt>
</event>
<event>
12    2  0.8147979E-008  0.2652278E+04  0.7818608E-02  0.8350657E-01
          1   -1    0    0  501    0  0.00000000000E+00  0.00000000000E+00  0.21384485675E+04  0.21384485675E+04  0.00000000000E+00 0. -1.
         -1   -1    0    0    0  501 -0.00000000000E+00 -0.00000000000E+00 -0.82239304621E+03  0.82239304621E+03  0.00000000000E+00 0.  1.
         23    2    1    2    0    0  0.85834803078E+03  0.56608699333E+03 -0.43381034734E+02  0.10330727804E+04  0.90230978969E+02 0.  0.
        254    2    1    2    0    0 -0.85834803078E+03 -0.56608699333E+03  0.13594365560E+04  0.19277688333E+04  0.90056043589E+03 0.  0.
         23    2    4    4    0    0  0.14494207488E+03 -0.28992150652E+01  0.37036679901E+03  0.40783818037E+03  0.90243033210E+02 0.  0.
         23    2    4    4    0    0 -0.10032901057E+04 -0.56318777826E+03  0.98906975703E+03  0.15199306529E+04  0.90325498366E+02 0.  0.
          3    1    3    3  502    0  0.31756780985E+03  0.15816300893E+03 -0.13234316829E+02  0.35502112386E+03  0.00000000000E+00 0. -1.
         -3    1    3    3    0  502  0.54078022093E+03  0.40792398440E+03 -0.30146717905E+02  0.67805165658E+03  0.00000000000E+00 0.  1.
         11    1    5    5    0    0  0.15248614032E+03  0.12533261804E+02  0.32173737328E+03  0.35626400745E+03  0.00000000000E+00 0.  1.
        -11    1    5    5    0    0 -0.75440654391E+01 -0.15432476869E+02  0.48629425729E+02  0.51574172921E+02  0.00000000000E+00 0. -1.
          3    1    6    6  503    0 -0.12189827987E+03 -0.40645174592E+02  0.91425313316E+02  0.15770164479E+03  0.00000000000E+00 0. -1.
         -3    1    6    6    0  503 -0.88139182579E+03 -0.52254260367E+03  0.89764444371E+03  0.13622290081E+04  0.00000000000E+00 0.  1.
<mgrwt>
<rscale>  0 0.26522784E+04</rscale>
<asrwt>0</asrwt>
<pdfrwt beam="1">  1        1 0.32899209E+00 0.26522784E+04</pdfrwt>
<pdfrwt beam="2">  1       -1 0.12652201E+00 0.26522784E+04</pdfrwt>
<totfact> 0.11419920E+00</totfact>
</mgrwt>
</event>
<event>
12    2  0.8147979E-008  0.1581106E+04  0.7818608E-02  0.8832240E-01
         -2   -1    0    0    0  501 -0.00000000000E+00  0.00000000000E+00  0.66228926718E+03  0.66228926718E+03  0.00000000000E+00 0.  1.
          2   -1    0    0  501    0  0.00000000000E+00 -0.00000000000E+00 -0.94365686159E+03  0.94365686159E+03  0.00000000000E+00 0. -1.
         23    2    1    2    0    0 -0.31671141108E+03 -0.16392448354E+03  0.30191367784E+03  0.47653273015E+03  0.93563987824E+02 0.  0.
        254    2    1    2    0    0  0.31671141108E+03  0.16392448354E+03 -0.58328127225E+03  0.11294133986E+04  0.89898844721E+03 0.  0.
         23    2    4    4    0    0  0.84278054523E+02  0.25800390136E+03 -0.75783596093E+03  0.81070035342E+03  0.96181681094E+02 0.  0.
         23    2    4    4    0    0  0.23243335656E+03 -0.94079417815E+02  0.17455468867E+03  0.31871304521E+03  0.90732925387E+02 0.  0.
          2    1    3    3  502    0 -0.10800356257E+03 -0.20820547344E+02  0.55012328838E+02  0.12298219808E+03  0.00000000000E+00 0. -1.
         -2    1    3    3    0  502 -0.20870784851E+03 -0.14310393620E+03  0.24690134900E+03  0.35355053207E+03  0.00000000000E+00 0.  1.
         11    1    5    5    0    0 -0.83855516706E+01  0.49131577219E+02 -0.23311453122E+03  0.23838333419E+03  0.00000000000E+00 0.  1.
        -11    1    5    5    0    0  0.92663606193E+02  0.20887232414E+03 -0.52472142971E+03  0.57231701923E+03  0.00000000000E+00 0. -1.
          4    1    6    6  503    0  0.23571017012E+03 -0.10242639842E+03  0.17246064789E+03  0.30950464691E+03  0.00000000000E+00 0. -1.
         -4    1    6    6    0  503 -0.32768135644E+01  0.83469806004E+01  0.20940407838E+01  0.92083982909E+01  0.00000000000E+00 0.  1.
<mgrwt>
<rscale>  0 0.15811057E+04</rscale>
<asrwt>0</asrwt>
<pdfrwt beam="1">  1        2 0.14517798E+00 0.15811057E+04</pdfrwt>
<pdfrwt beam="2">  1       -2 0.10189066E+00 0.15811057E+04</pdfrwt>
<totfact> 0.20799795E+01</totfact>
</mgrwt>
</event>
<event>
12    2  0.8147979E-008  0.1601824E+04  0.7818608E-02  0.8819428E-01
         -2   -1    0    0    0  501 -0.00000000000E+00  0.00000000000E+00  0.48081029846E+03  0.48081029846E+03  0.00000000000E+00 0.  1.
          2   -1    0    0  501    0  0.00000000000E+00 -0.00000000000E+00 -0.13341227325E+04  0.13341227325E+04  0.00000000000E+00 0. -1.
         23    2    1    2    0    0 -0.43116556353E+03  0.27106656369E+03 -0.73763233290E+02  0.52189265527E+03  0.86891333992E+02 0.  0.
        254    2    1    2    0    0  0.43116556353E+03 -0.27106656369E+03 -0.77954920078E+03  0.12930403757E+04  0.89714861182E+03 0.  0.
         23    2    4    4    0    0  0.61542115183E+03 -0.51551377054E+02 -0.22710926223E+03  0.66391141714E+03  0.88312027617E+02 0.  0.
         23    2    4    4    0    0 -0.18425558830E+03 -0.21951518664E+03 -0.55243993856E+03  0.62912895859E+03  0.92066942141E+02 0.  0.
          2    1    3    3  502    0 -0.13536340266E+03  0.10317335568E+03  0.13544253240E+02  0.17073792460E+03  0.00000000000E+00 0. -1.
         -2    1    3    3    0  502 -0.29580216087E+03  0.16789320801E+03 -0.87307486530E+02  0.35115473067E+03  0.00000000000E+00 0.  1.
         11    1    5    5    0    0  0.82527199050E+02  0.22923031461E+02 -0.35964370374E+02  0.92895855079E+02  0.00000000000E+00 0. -1.
        -11    1    5    5    0    0  0.53289395278E+03 -0.74474408515E+02 -0.19114489185E+03  0.57101556206E+03  0.00000000000E+00 0.  1.
          1    1    6    6  503    0 -0.35256107109E+02 -0.11004012965E+03 -0.19376990617E+03  0.22560718020E+03  0.00000000000E+00 0. -1.
         -1    1    6    6    0  503 -0.14899948119E+03 -0.10947505699E+03 -0.35867003239E+03  0.40352177839E+03  0.00000000000E+00 0.  1.
<mgrwt>
<rscale>  0 0.16018239E+04</rscale>
<asrwt>0</asrwt>
<pdfrwt beam="1">  1        2 0.20524965E+00 0.16018239E+04</pdfrwt>
<pdfrwt beam="2">  1       -2 0.73970816E-01 0.16018239E+04</pdfrwt>
<totfact> 0.24931421E+01</totfact>
</mgrwt>
</event>
<event>
12    2  0.8147979E-008  0.1826725E+04  0.7818608E-02  0.8692215E-01
          2   -1    0    0  501    0  0.00000000000E+00  0.00000000000E+00  0.14040742576E+04  0.14040742576E+04  0.00000000000E+00 0.  1.
         -2   -1    0    0    0  501 -0.00000000000E+00 -0.00000000000E+00 -0.59415022625E+03  0.59415022625E+03  0.00000000000E+00 0. -1.
         23    2    1    2    0    0  0.41393084196E+03  0.33295601208E+03 -0.17006628103E+03  0.56526315992E+03  0.91659435507E+02 0.  0.
        254    2    1    2    0    0 -0.41393084196E+03 -0.33295601208E+03  0.97999031238E+03  0.14329613239E+04  0.90044361046E+03 0.  0.
         23    2    4    4    0    0  0.16168393117E+03  0.14329244471E+03  0.46540017683E+03  0.52114220272E+03  0.91200068808E+02 0.  0.
         23    2    4    4    0    0 -0.57561477313E+03 -0.47624845680E+03  0.51459013555E+03  0.91181912121E+03  0.92011643607E+02 0.  0.
          3    1    3    3  502    0  0.37938160160E+03  0.27672818221E+03 -0.16958470206E+03  0.49926732082E+03  0.00000000000E+00 0. -1.
         -3    1    3    3    0  502  0.34549240363E+02  0.56227829867E+02 -0.48157896767E+00  0.65995839108E+02  0.00000000000E+00 0.  1.
         11    1    5    5    0    0  0.17263965485E+03  0.13820798352E+03  0.45133794242E+03  0.50260504912E+03  0.00000000000E+00 0. -1.
        -11    1    5    5    0    0 -0.10955723676E+02  0.50844611911E+01  0.14062234410E+02  0.18537153597E+02  0.00000000000E+00 0.  1.
          1    1    6    6  503    0 -0.53466741693E+03 -0.46576293560E+03  0.49760764854E+03  0.86626654720E+03  0.00000000000E+00 0. -1.
         -1    1    6    6    0  503 -0.40947356197E+02 -0.10485521193E+02  0.16982487007E+02  0.45552574013E+02  0.00000000000E+00 0.  1.
<mgrwt>
<rscale>  0 0.18267250E+04</rscale>
<asrwt>0</asrwt>
<pdfrwt beam="1">  1        2 0.21601142E+00 0.18267250E+04</pdfrwt>
<pdfrwt beam="2">  1       -2 0.91407728E-01 0.18267250E+04</pdfrwt>
<totfact> 0.13825195E+01</totfact>
</mgrwt>
</event>
<event>
12    2  0.8147979E-008  0.2505963E+04  0.7818608E-02  0.8400864E-01
          1   -1    0    0  501    0  0.00000000000E+00  0.00000000000E+00  0.18896030479E+04  0.18896030479E+04  0.00000000000E+00 0. -1.
         -1   -1    0    0    0  501 -0.00000000000E+00 -0.00000000000E+00 -0.83084258708E+03  0.83084258708E+03  0.00000000000E+00 0.  1.
         23    2    1    2    0    0 -0.10456315137E+04 -0.29074751095E+03  0.54996384105E+03  0.12200143395E+04  0.89974354829E+02 0.  0.
        254    2    1    2    0    0  0.10456315137E+04  0.29074751095E+03  0.50879661976E+03  0.15004312955E+04  0.90251908262E+03 0.  0.
         23    2    4    4    0    0  0.75882263629E+03 -0.21528357411E+01 -0.89987471517E+02  0.76950917685E+03  0.90720450714E+02 0.  0.
         23    2    4    4    0    0  0.28680887744E+03  0.29290034669E+03  0.59878409128E+03  0.73092211862E+03  0.87491772447E+02 0.  0.
          1    1    3    3  502    0 -0.66082274103E+03 -0.17725662697E+03  0.29803806170E+03  0.74627963464E+03  0.00000000000E+00 0. -1.
         -1    1    3    3    0  502 -0.38480877270E+03 -0.11349088398E+03  0.25192577935E+03  0.47373470487E+03  0.00000000000E+00 0.  1.
         11    1    5    5    0    0  0.33852036748E+03  0.98682692633E+01  0.38732195518E+01  0.33868632061E+03  0.00000000000E+00 0.  1.
        -11    1    5    5    0    0  0.42030226880E+03 -0.12021105004E+02 -0.93860691069E+02  0.43082285623E+03  0.00000000000E+00 0. -1.
          1    1    6    6  503    0  0.18235162669E+03  0.13213163220E+03  0.36092234175E+03  0.42541253009E+03  0.00000000000E+00 0. -1.
         -1    1    6    6    0  503  0.10445725075E+03  0.16076871449E+03  0.23786174952E+03  0.30550958852E+03  0.00000000000E+00 0.  1.
<mgrwt>
<rscale>  0 0.25059630E+04</rscale>
<asrwt>0</asrwt>
<pdfrwt beam="1">  1        1 0.29070816E+00 0.25059630E+04</pdfrwt>
<pdfrwt beam="2">  1       -1 0.12782194E+00 0.25059630E+04</pdfrwt>
<totfact> 0.16638634E+00</totfact>
</mgrwt>
</event>
<event>
12    2  0.8147979E-008  0.3409324E+04  0.7818608E-02  0.8135622E-01
         -1   -1    0    0    0  501 -0.00000000000E+00  0.00000000000E+00  0.13739869315E+04  0.13739869315E+04  0.00000000000E+00 0.  1.
          1   -1    0    0  501    0  0.00000000000E+00 -0.00000000000E+00 -0.21149200809E+04  0.21149200809E+04  0.00000000000E+00 0. -1.
         23    2    1    2    0    0 -0.14840554870E+04 -0.11737310719E+02 -0.90948028799E+03  0.17430814720E+04  0.92844875067E+02 0.  0.
        254    2    1    2    0    0  0.14840554870E+04  0.11737310719E+02  0.16854713855E+03  0.17458255404E+04  0.90384745772E+03 0.  0.
         23    2    4    4    0    0  0.11208813777E+04 -0.23017157347E+03  0.43332137173E+03  0.12267260557E+04  0.87951057163E+02 0.  0.
         23    2    4    4    0    0  0.36317410925E+03  0.24190888419E+03 -0.26477423318E+03  0.51909948470E+03  0.94570283789E+02 0.  0.
          4    1    3    3  502    0 -0.58044916503E+03  0.25863253440E+02 -0.39528526901E+03  0.70273792053E+03  0.00000000000E+00 0. -1.
         -4    1    3    3    0  502 -0.90360632195E+03 -0.37600564159E+02 -0.51419501899E+03  0.10403435515E+04  0.00000000000E+00 0.  1.
         11    1    5    5    0    0  0.51200060881E+03 -0.68481293563E+02  0.22200145201E+03  0.56224456928E+03  0.00000000000E+00 0.  1.
        -11    1    5    5    0    0  0.60888076893E+03 -0.16169027991E+03  0.21131991972E+03  0.66448148647E+03  0.00000000000E+00 0. -1.
          4    1    6    6  503    0  0.10394267719E+03  0.12079486393E+03 -0.78170640095E+02  0.17749965709E+03  0.00000000000E+00 0. -1.
         -4    1    6    6    0  503  0.25923143205E+03  0.12111402027E+03 -0.18660359309E+03  0.34159982761E+03  0.00000000000E+00 0.  1.
<mgrwt>
<rscale>  0 0.34093240E+04</rscale>
<asrwt>0</asrwt>
<pdfrwt beam="1">  1        1 0.32537232E+00 0.34093240E+04</pdfrwt>
<pdfrwt beam="2">  1       -1 0.21138261E+00 0.34093240E+04</pdfrwt>
<totfact> 0.25749343E-01</totfact>
</mgrwt>
</event>
<event>
12    2  0.8147979E-008  0.3332380E+04  0.7818608E-02  0.8154705E-01
         -1   -1    0    0    0  501 -0.00000000000E+00  0.00000000000E+00  0.17819384346E+04  0.17819384346E+04  0.00000000000E+00 0.  1.
          1   -1    0    0  501    0  0.00000000000E+00 -0.00000000000E+00 -0.15579600275E+04  0.15579600275E+04  0.00000000000E+00 0. -1.
         23    2    1    2    0    0 -0.45170672937E+03 -0.14755768779E+04  0.12947111574E+03  0.15512287802E+04  0.90453671830E+02 0.  0.
        254    2    1    2    0    0  0.45170672937E+03  0.14755768779E+04  0.94507291319E+02  0.17886696819E+04  0.89946734836E+03 0.  0.
         23    2    4    4    0    0  0.33946898443E+03  0.15468197072E+03  0.23869740950E+03  0.45200617863E+03  0.90373827869E+02 0.  0.
         23    2    4    4    0    0  0.11223774494E+03  0.13208949072E+04 -0.14419011818E+03  0.13366635032E+04  0.92292272094E+02 0.  0.
          2    1    3    3  502    0 -0.21469337965E+03 -0.61532059301E+03  0.17636862653E+02  0.65193844676E+03  0.00000000000E+00 0. -1.
         -2    1    3    3    0  502 -0.23701334973E+03 -0.86025628491E+03  0.11183425308E+03  0.89929033345E+03  0.00000000000E+00 0.  1.
         11    1    5    5    0    0  0.30057929597E+03  0.12219105536E+03  0.16902245160E+03  0.36585127623E+03  0.00000000000E+00 0.  1.
        -11    1    5    5    0    0  0.38889688462E+02  0.32490915366E+02  0.69674957897E+02  0.86154902403E+02  0.00000000000E+00 0. -1.
          4    1    6    6  503    0  0.16266054487E+02  0.11243587414E+03 -0.37844461799E+02  0.11974395021E+03  0.00000000000E+00 0. -1.
         -4    1    6    6    0  503  0.95971690458E+02  0.12084590331E+04 -0.10634565638E+03  0.12169195530E+04  0.00000000000E+00 0.  1.
<mgrwt>
<rscale>  0 0.33323798E+04</rscale>
<asrwt>0</asrwt>
<pdfrwt beam="1">  1        1 0.23968616E+00 0.33323798E+04</pdfrwt>
<pdfrwt beam="2">  1       -1 0.27414437E+00 0.33323798E+04</pdfrwt>
<totfact> 0.23967718E-01</totfact>
</mgrwt>
</event>
<event>
12    2  0.8147979E-008  0.2953859E+04  0.7818608E-02  0.8257031E-01
         -2   -1    0    0    0  501 -0.00000000000E+00  0.00000000000E+00  0.12870479788E+04  0.12870479788E+04  0.00000000000E+00 0.  1.
          2   -1    0    0  501    0  0.00000000000E+00 -0.00000000000E+00 -0.16948245104E+04  0.16948245104E+04  0.00000000000E+00 0. -1.
         23    2    1    2    0    0  0.94957500446E+03 -0.50749770773E+03  0.61467324617E+03  0.12430816995E+04  0.90456064712E+02 0.  0.
        254    2    1    2    0    0 -0.94957500446E+03  0.50749770773E+03 -0.10224497778E+04  0.17387907897E+04  0.90484432350E+03 0.  0.
         23    2    4    4    0    0 -0.86673616475E+03  0.19289478976E+02 -0.46837774755E+03  0.98963510826E+03  0.91631161861E+02 0.  0.
         23    2    4    4    0    0 -0.82838839713E+02  0.48820822875E+03 -0.55407203021E+03  0.74915568141E+03  0.95020378577E+02 0.  0.
          1    1    3    3  502    0  0.45923023454E+03 -0.29221523156E+03  0.28852326282E+03  0.61605829518E+03  0.00000000000E+00 0. -1.
         -1    1    3    3    0  502  0.49034476992E+03 -0.21528247617E+03  0.32614998336E+03  0.62702340433E+03  0.00000000000E+00 0.  1.
         11    1    5    5    0    0 -0.70419136713E+03  0.51375171378E+02 -0.37584468549E+03  0.79986506199E+03  0.00000000000E+00 0.  1.
        -11    1    5    5    0    0 -0.16254479762E+03 -0.32085692402E+02 -0.92533062051E+02  0.18977004627E+03  0.00000000000E+00 0. -1.
          2    1    6    6  503    0 -0.98624408167E+02  0.32153206499E+03 -0.35433482204E+03  0.48853127721E+03  0.00000000000E+00 0. -1.
         -2    1    6    6    0  503  0.15785568454E+02  0.16667616376E+03 -0.19973720817E+03  0.26062440420E+03  0.00000000000E+00 0.  1.
<mgrwt>
<rscale>  0 0.29538588E+04</rscale>
<asrwt>0</asrwt>
<pdfrwt beam="1">  1        2 0.26074223E+00 0.29538588E+04</pdfrwt>
<pdfrwt beam="2">  1       -2 0.19800738E+00 0.29538588E+04</pdfrwt>
<totfact> 0.11629717E+00</totfact>
</mgrwt>
</event>
<event>
12    2  0.8147979E-008  0.1553761E+04  0.7818608E-02  0.8849469E-01
          2   -1    0    0  501    0  0.00000000000E+00  0.00000000000E+00  0.15123377812E+04  0.15123377812E+04  0.00000000000E+00 0.  1.
         -2   -1    0    0    0  501 -0.00000000000E+00 -0.00000000000E+00 -0.39907967944E+03  0.39907967944E+03  0.00000000000E+00 0. -1.
         23    2    1    2    0    0  0.21796484650E+03  0.42251935283E+03  0.59515184165E+03  0.76788089446E+03  0.96974613308E+02 0.  0.
        254    2    1    2    0    0 -0.21796484650E+03 -0.42251935283E+03  0.51810626009E+03  0.11435365662E+04  0.90178184921E+03 0.  0.
         23    2    4    4    0    0 -0.46496778839E+03 -0.60314034028E+02  0.50569448660E+03  0.69579749764E+03  0.92598147934E+02 0.  0.
         23    2    4    4    0    0  0.24700294189E+03 -0.36220531881E+03  0.12411773488E+02  0.44773906852E+03  0.90072610054E+02 0.  0.
          4    1    3    3  502    0  0.11732813081E+03  0.23894151100E+03  0.25599401258E+03  0.36931270008E+03  0.00000000000E+00 0. -1.
         -4    1    3    3    0  502  0.10063671569E+03  0.18357784184E+03  0.33915782906E+03  0.39856819438E+03  0.00000000000E+00 0.  1.
         11    1    5    5    0    0 -0.95225059872E+01  0.12210588809E+02  0.85822807551E+01  0.17704014864E+02  0.00000000000E+00 0. -1.
        -11    1    5    5    0    0 -0.45544528240E+03 -0.72524622838E+02  0.49711220585E+03  0.67809348278E+03  0.00000000000E+00 0.  1.
          1    1    6    6  503    0 -0.32936793555E+01 -0.36962074643E+02 -0.89363831503E+00  0.37119292491E+02  0.00000000000E+00 0. -1.
         -1    1    6    6    0  503  0.25029662124E+03 -0.32524324416E+03  0.13305411803E+02  0.41061977603E+03  0.00000000000E+00 0.  1.
<mgrwt>
<rscale>  0 0.15537610E+04</rscale>
<asrwt>0</asrwt>
<pdfrwt beam="1">  1        2 0.23266735E+00 0.15537610E+04</pdfrwt>
<pdfrwt beam="2">  1       -2 0.61396875E-01 0.15537610E+04</pdfrwt>
<totfact> 0.29645579E+01</totfact>
</mgrwt>
</event>
<event>
12    2  0.8147979E-008  0.1997181E+04  0.7818608E-02  0.8607940E-01
         -2   -1    0    0    0  501 -0.00000000000E+00  0.00000000000E+00  0.10843367266E+04  0.10843367266E+04  0.00000000000E+00 0.  1.
          2   -1    0    0  501    0  0.00000000000E+00 -0.00000000000E+00 -0.91962461231E+03  0.91962461231E+03  0.00000000000E+00 0. -1.
         23    2    1    2    0    0  0.63460310126E+03  0.25218503350E+03 -0.33755243284E+03  0.76736856180E+03  0.92706404755E+02 0.  0.
        254    2    1    2    0    0 -0.63460310126E+03 -0.25218503350E+03  0.50226454710E+03  0.12365927771E+04  0.90031862903E+03 0.  0.
         23    2    4    4    0    0 -0.69681250277E+03  0.13760887981E+03  0.39409550596E+03  0.81753503875E+03  0.92565673681E+02 0.  0.
         23    2    4    4    0    0  0.62209401513E+02 -0.38979391331E+03  0.10816904114E+03  0.41905773832E+03  0.89997456034E+02 0.  0.
          4    1    3    3  502    0  0.38065829120E+03  0.11759538126E+03 -0.15868048636E+03  0.42884601561E+03  0.00000000000E+00 0. -1.
         -4    1    3    3    0  502  0.25394481006E+03  0.13458965224E+03 -0.17887194647E+03  0.33852254619E+03  0.00000000000E+00 0.  1.
         11    1    5    5    0    0 -0.48171521882E+03  0.10811810683E+03  0.31905775081E+03  0.58782388980E+03  0.00000000000E+00 0.  1.
        -11    1    5    5    0    0 -0.21509728395E+03  0.29490772983E+02  0.75037755153E+02  0.22971114895E+03  0.00000000000E+00 0. -1.
          1    1    6    6  503    0  0.14144693485E+02 -0.14056436982E+02  0.23666192380E+02  0.30947446359E+02  0.00000000000E+00 0. -1.
         -1    1    6    6    0  503  0.48064708028E+02 -0.37573747633E+03  0.84502848758E+02  0.38811029196E+03  0.00000000000E+00 0.  1.
<mgrwt>
<rscale>  0 0.19971808E+04</rscale>
<asrwt>0</asrwt>
<pdfrwt beam="1">  1        2 0.14148071E+00 0.19971808E+04</pdfrwt>
<pdfrwt beam="2">  1       -2 0.16682103E+00 0.19971808E+04</pdfrwt>
<totfact> 0.59346971E+00</totfact>
</mgrwt>
</event>
<event>
12    2  0.8147979E-008  0.1659060E+04  0.7818608E-02  0.8785065E-01
          1   -1    0    0  501    0  0.00000000000E+00  0.00000000000E+00  0.87746584125E+03  0.87746584125E+03  0.00000000000E+00 0. -1.
         -1   -1    0    0    0  501 -0.00000000000E+00 -0.00000000000E+00 -0.78421310334E+03  0.78421310334E+03  0.00000000000E+00 0.  1.
         23    2    1    2    0    0 -0.32350278190E+03 -0.47537732562E+03 -0.78152938707E+02  0.58758495256E+03  0.92252604515E+02 0.  0.
        254    2    1    2    0    0  0.32350278190E+03  0.47537732562E+03  0.17140567662E+03  0.10740939920E+04  0.89087616768E+03 0.  0.
         23    2    4    4    0    0 -0.21205755337E+03  0.39104390650E+03  0.25178909680E+03  0.51834783290E+03  0.86040594222E+02 0.  0.
         23    2    4    4    0    0  0.53556033527E+03  0.84333419123E+02 -0.80383420181E+02  0.55574615913E+03  0.91952709905E+02 0.  0.
          1    1    3    3  502    0 -0.68978309474E+02 -0.17797301604E+03 -0.28968517608E+02  0.19305847981E+03  0.00000000000E+00 0. -1.
         -1    1    3    3    0  502 -0.25452447242E+03 -0.29740430958E+03 -0.49184421099E+02  0.39452647275E+03  0.00000000000E+00 0.  1.
         11    1    5    5    0    0 -0.12680447985E+03  0.23725861029E+03  0.19944458440E+03  0.33488679657E+03  0.00000000000E+00 0.  1.
        -11    1    5    5    0    0 -0.85253073523E+02  0.15378529620E+03  0.52344512395E+02  0.18346103633E+03  0.00000000000E+00 0. -1.
          1    1    6    6  503    0  0.34474981558E+03  0.93404567104E+01 -0.51791064291E+02  0.34874344985E+03  0.00000000000E+00 0. -1.
         -1    1    6    6    0  503  0.19081051969E+03  0.74992962412E+02 -0.28592355890E+02  0.20700270929E+03  0.00000000000E+00 0.  1.
<mgrwt>
<rscale>  0 0.16590602E+04</rscale>
<asrwt>0</asrwt>
<pdfrwt beam="1">  1        1 0.13499474E+00 0.16590602E+04</pdfrwt>
<pdfrwt beam="2">  1       -1 0.12064817E+00 0.16590602E+04</pdfrwt>
<totfact> 0.11082954E+01</totfact>
</mgrwt>
</event>
<event>
12    2  0.8147979E-008  0.1953616E+04  0.7818608E-02  0.8628619E-01
          2   -1    0    0  501    0  0.00000000000E+00  0.00000000000E+00  0.11843107766E+04  0.11843107766E+04  0.00000000000E+00 0.  1.
         -2   -1    0    0    0  501 -0.00000000000E+00 -0.00000000000E+00 -0.80566158776E+03  0.80566158776E+03  0.00000000000E+00 0. -1.
         23    2    1    2    0    0  0.44778430005E+03  0.18152442582E+03  0.75704299574E+03  0.90265301544E+03  0.90589581888E+02 0.  0.
        254    2    1    2    0    0 -0.44778430005E+03 -0.18152442582E+03 -0.37839380685E+03  0.10873193490E+04  0.89756314377E+03 0.  0.
         23    2    4    4    0    0  0.10342269992E+03 -0.34001478356E+03  0.43880512948E+02  0.36954303572E+03  0.91270191918E+02 0.  0.
         23    2    4    4    0    0 -0.55120699997E+03  0.15849035774E+03 -0.42227431980E+03  0.71777631325E+03  0.89100417451E+02 0.  0.
          2    1    3    3  502    0  0.18432217884E+03  0.42494106044E+02  0.23585491541E+03  0.30233748657E+03  0.00000000000E+00 0. -1.
         -2    1    3    3    0  502  0.26346212121E+03  0.13903031978E+03  0.52118808033E+03  0.60031552887E+03  0.00000000000E+00 0.  1.
         11    1    5    5    0    0 -0.26474946907E+01 -0.12510775971E+02  0.20928706169E+02  0.24526301911E+02  0.00000000000E+00 0. -1.
        -11    1    5    5    0    0  0.10607019461E+03 -0.32750400759E+03  0.22951806779E+02  0.34501673381E+03  0.00000000000E+00 0.  1.
          2    1    6    6  503    0 -0.12170865877E+03  0.54059419546E+02 -0.59091983363E+02  0.14569585087E+03  0.00000000000E+00 0. -1.
         -2    1    6    6    0  503 -0.42949834120E+03  0.10443093819E+03 -0.36318233644E+03  0.57208046239E+03  0.00000000000E+00 0.  1.
<mgrwt>
<rscale>  0 0.19536158E+04</rscale>
<asrwt>0</asrwt>
<pdfrwt beam="1">  1        2 0.18220166E+00 0.19536158E+04</pdfrwt>
<pdfrwt beam="2">  1       -2 0.12394794E+00 0.19536158E+04</pdfrwt>
<totfact> 0.88415323E+00</totfact>
</mgrwt>
</event>
<event>
12    2  0.8147979E-008  0.1168719E+04  0.7818608E-02  0.9140686E-01
          2   -1    0    0  501    0  0.00000000000E+00  0.00000000000E+00  0.21153109000E+04  0.21153109000E+04  0.00000000000E+00 0. -1.
         -2   -1    0    0    0  501 -0.00000000000E+00 -0.00000000000E+00 -0.16143066126E+03  0.16143066126E+03  0.00000000000E+00 0.  1.
         23    2    1    2    0    0 -0.12642385433E+03 -0.78831827618E+02  0.72835208781E+03  0.74909352224E+03  0.91906981568E+02 0.  0.
        254    2    1    2    0    0  0.12642385433E+03  0.78831827618E+02  0.12255281510E+04  0.15276480391E+04  0.89977321278E+03 0.  0.
         23    2    4    4    0    0  0.20415629319E+03 -0.18348962725E+03  0.19336885922E+02  0.28742893517E+03  0.83025551855E+02 0.  0.
         23    2    4    4    0    0 -0.77732438856E+02  0.26232145487E+03  0.12061912651E+04  0.12402191039E+04  0.91603384395E+02 0.  0.
          3    1    3    3  502    0 -0.71630307271E+02 -0.66562239728E+02  0.61357497018E+03  0.62131769386E+03  0.00000000000E+00 0. -1.
         -3    1    3    3    0  502 -0.54793547063E+02 -0.12269587890E+02  0.11477711763E+03  0.12777582838E+03  0.00000000000E+00 0.  1.
         11    1    5    5    0    0  0.10074305441E+03 -0.13911505166E+03 -0.68196910077E+01  0.17189726233E+03  0.00000000000E+00 0.  1.
        -11    1    5    5    0    0  0.10341323878E+03 -0.44374575587E+02  0.26156576930E+02  0.11553167285E+03  0.00000000000E+00 0. -1.
          2    1    6    6  503    0  0.15823560282E+02  0.69208066670E+02  0.22933343503E+03  0.24007075201E+03  0.00000000000E+00 0.  1.
         -2    1    6    6    0  503 -0.93555999138E+02  0.19311338820E+03  0.97685783003E+03  0.10001483519E+04  0.00000000000E+00 0. -1.
<mgrwt>
<rscale>  0 0.11687190E+04</rscale>
<asrwt>0</asrwt>
<pdfrwt beam="1">  1        2 0.32543243E+00 0.11687190E+04</pdfrwt>
<pdfrwt beam="2">  1       -2 0.24835488E-01 0.11687190E+04</pdfrwt>
<totfact> 0.82912089E+01</totfact>
</mgrwt>
</event>
<event>
12    2  0.8147979E-008  0.1176878E+04  0.7818608E-02  0.9133340E-01
          2   -1    0    0  501    0  0.00000000000E+00  0.00000000000E+00  0.25641478523E+04  0.25641478523E+04  0.00000000000E+00 0.  1.
         -2   -1    0    0    0  501 -0.00000000000E+00 -0.00000000000E+00 -0.13503911268E+03  0.13503911268E+03  0.00000000000E+00 0. -1.
         23    2    1    2    0    0  0.92925160372E+02 -0.11793629215E+03  0.11396288145E+03  0.21115215531E+03  0.95150616972E+02 0.  0.
        254    2    1    2    0    0 -0.92925160372E+02  0.11793629215E+03  0.23151458581E+04  0.24880348096E+04  0.89881745367E+03 0.  0.
         23    2    4    4    0    0 -0.29953984239E+03  0.31401292795E+03  0.20169914855E+04  0.20651643202E+04  0.91218312862E+02 0.  0.
         23    2    4    4    0    0  0.20661468202E+03 -0.19607663580E+03  0.29815437263E+03  0.42287048945E+03  0.93742983718E+02 0.  0.
          4    1    3    3  502    0  0.90991505025E+02 -0.90866612586E+02  0.43675966131E+02  0.13580789847E+03  0.00000000000E+00 0. -1.
         -4    1    3    3    0  502  0.19336553463E+01 -0.27069679562E+02  0.70286915315E+02  0.75344256842E+02  0.00000000000E+00 0.  1.
         11    1    5    5    0    0 -0.17652052980E+03  0.15681735510E+03  0.89883748959E+03  0.92933310120E+03  0.00000000000E+00 0. -1.
        -11    1    5    5    0    0 -0.12301931259E+03  0.15719557285E+03  0.11181539959E+04  0.11358312190E+04  0.00000000000E+00 0.  1.
          2    1    6    6  503    0  0.16436471747E+03 -0.12467779439E+03  0.25903058865E+03  0.33114522285E+03  0.00000000000E+00 0. -1.
         -2    1    6    6    0  503  0.42249964552E+02 -0.71398841411E+02  0.39123783980E+02  0.91725266598E+02  0.00000000000E+00 0.  1.
<mgrwt>
<rscale>  0 0.11768776E+04</rscale>
<asrwt>0</asrwt>
<pdfrwt beam="1">  1        2 0.39448425E+00 0.11768776E+04</pdfrwt>
<pdfrwt beam="2">  1       -2 0.20775250E-01 0.11768776E+04</pdfrwt>
<totfact> 0.63587058E+01</totfact>
</mgrwt>
</event>
<event>
12    2  0.8147979E-008  0.1293387E+04  0.7818608E-02  0.9034826E-01
         -2   -1    0    0    0  501 -0.00000000000E+00  0.00000000000E+00  0.13658400977E+04  0.13658400977E+04  0.00000000000E+00 0.  1.
          2   -1    0    0  501    0  0.00000000000E+00 -0.00000000000E+00 -0.30619434831E+03  0.30619434831E+03  0.00000000000E+00 0. -1.
         23    2    1    2    0    0  0.28981440080E+03 -0.73827891222E+02  0.43807565986E+03  0.53763386930E+03  0.87732258735E+02 0.  0.
        254    2    1    2    0    0 -0.28981440080E+03  0.73827891222E+02  0.62157008956E+03  0.11344005767E+04  0.90059555176E+03 0.  0.
         23    2    4    4    0    0 -0.84607508025E+02  0.82321162686E+02  0.81993494988E+03  0.83346449728E+03  0.91839762401E+02 0.  0.
         23    2    4    4    0    0 -0.20520689277E+03 -0.84932714640E+01 -0.19836486032E+03  0.30093607946E+03  0.95036317317E+02 0.  0.
          3    1    3    3  502    0  0.88081554274E+02  0.78400824503E+01  0.83677372719E+02  0.12174452678E+03  0.00000000000E+00 0. -1.
         -3    1    3    3    0  502  0.20173284652E+03 -0.81667973672E+02  0.35439828714E+03  0.41588934252E+03  0.00000000000E+00 0.  1.
         11    1    5    5    0    0 -0.79100870884E+02  0.25500222949E+02  0.61978583934E+03  0.62533326778E+03  0.00000000000E+00 0.  1.
        -11    1    5    5    0    0 -0.55066371413E+01  0.56820939737E+02  0.20014911054E+03  0.20813122950E+03  0.00000000000E+00 0. -1.
          2    1    6    6  503    0 -0.16477888005E+03 -0.34260427104E+02 -0.11201782000E+03  0.20217281759E+03  0.00000000000E+00 0. -1.
         -2    1    6    6    0  503 -0.40428012721E+02  0.25767155640E+02 -0.86347040318E+02  0.98763261864E+02  0.00000000000E+00 0.  1.
<mgrwt>
<rscale>  0 0.12933871E+04</rscale>
<asrwt>0</asrwt>
<pdfrwt beam="1">  1        2 0.47106824E-01 0.12933871E+04</pdfrwt>
<pdfrwt beam="2">  1       -2 0.21012924E+00 0.12933871E+04</pdfrwt>
<totfact> 0.12021485E+01</totfact>
</mgrwt>
</event>
<event>
12    2  0.8147979E-008  0.1150987E+04  0.7818608E-02  0.9156873E-01
         -3   -1    0    0    0  501 -0.00000000000E+00  0.00000000000E+00  0.26974105928E+03  0.26974105928E+03  0.00000000000E+00 0.  1.
          3   -1    0    0  501    0  0.00000000000E+00 -0.00000000000E+00 -0.12278180236E+04  0.12278180236E+04  0.00000000000E+00 0. -1.
         23    2    1    2    0    0 -0.87261984499E+02 -0.87070772814E+02 -0.40810460533E+03  0.43573417334E+03  0.90105091452E+02 0.  0.
        254    2    1    2    0    0  0.87261984499E+02  0.87070772814E+02 -0.54997235901E+03  0.10618249096E+04  0.89989253217E+03 0.  0.
         23    2    4    4    0    0 -0.11671819266E+03 -0.35712708509E+03 -0.12126427462E+03  0.40531379627E+03  0.91713454580E+02 0.  0.
         23    2    4    4    0    0  0.20398017716E+03  0.44419785790E+03 -0.42870808440E+03  0.65651111328E+03  0.91085512582E+02 0.  0.
          2    1    3    3  502    0 -0.95828373943E+02 -0.70752631200E+02 -0.39637860008E+03  0.41389009009E+03  0.00000000000E+00 0. -1.
         -2    1    3    3    0  502  0.85663894438E+01 -0.16318141614E+02 -0.11726005254E+02  0.21844083250E+02  0.00000000000E+00 0.  1.
         11    1    5    5    0    0 -0.36007689090E+02 -0.93233593085E+02 -0.76241096572E+02  0.12570505702E+03  0.00000000000E+00 0.  1.
        -11    1    5    5    0    0 -0.80710503568E+02 -0.26389349200E+03 -0.45023178044E+02  0.27960873925E+03  0.00000000000E+00 0. -1.
          4    1    6    6  503    0  0.12470022181E+03  0.27899904498E+03 -0.20807751200E+03  0.36971186540E+03  0.00000000000E+00 0.  1.
         -4    1    6    6    0  503  0.79279955349E+02  0.16519881292E+03 -0.22063057239E+03  0.28679924788E+03  0.00000000000E+00 0. -1.
<mgrwt>
<rscale>  0 0.11509873E+04</rscale>
<asrwt>0</asrwt>
<pdfrwt beam="1">  1        3 0.18889508E+00 0.11509873E+04</pdfrwt>
<pdfrwt beam="2">  1       -3 0.41498624E-01 0.11509873E+04</pdfrwt>
<totfact> 0.26048557E+00</totfact>
</mgrwt>
</event>
<event>
12    2  0.8147979E-008  0.2217566E+04  0.7818608E-02  0.8511152E-01
          2   -1    0    0  501    0  0.00000000000E+00  0.00000000000E+00  0.33616647656E+04  0.33616647656E+04  0.00000000000E+00 0. -1.
         -2   -1    0    0    0  501 -0.00000000000E+00 -0.00000000000E+00 -0.36571149821E+03  0.36571149821E+03  0.00000000000E+00 0.  1.
         23    2    1    2    0    0 -0.75574852214E+03 -0.50230433391E+03  0.94693482596E+03  0.13147249311E+04  0.91381657663E+02 0.  0.
        254    2    1    2    0    0  0.75574852214E+03  0.50230433391E+03  0.20490184414E+04  0.24126513327E+04  0.89383690190E+03 0.  0.
         23    2    4    4    0    0  0.19521571822E+03 -0.25017899399E+03  0.52148510587E+03  0.61761992117E+03  0.93855983843E+02 0.  0.
         23    2    4    4    0    0  0.56053280392E+03  0.75248332790E+03  0.15275333356E+04  0.17950314115E+04  0.91386509101E+02 0.  0.
          2    1    3    3  502    0 -0.46317370823E+03 -0.27782830306E+03  0.61582777701E+03  0.81912288511E+03  0.00000000000E+00 0. -1.
         -2    1    3    3    0  502 -0.29257481390E+03 -0.22447603085E+03  0.33110704895E+03  0.49560204602E+03  0.00000000000E+00 0.  1.
         11    1    5    5    0    0  0.15373562946E+03 -0.24158269448E+03  0.47576179016E+03  0.55528922465E+03  0.00000000000E+00 0.  1.
        -11    1    5    5    0    0  0.41480088758E+02 -0.85962995143E+01  0.45723315715E+02  0.62330696520E+02  0.00000000000E+00 0. -1.
          3    1    6    6  503    0  0.51031209559E+02  0.56142638184E+02  0.83201200312E+02  0.11259937791E+03  0.00000000000E+00 0. -1.
         -3    1    6    6    0  503  0.50950159436E+03  0.69634068972E+03  0.14443321352E+04  0.16824320336E+04  0.00000000000E+00 0.  1.
<mgrwt>
<rscale>  0 0.22175657E+04</rscale>
<asrwt>0</asrwt>
<pdfrwt beam="1">  1        2 0.51717917E+00 0.22175657E+04</pdfrwt>
<pdfrwt beam="2">  1       -2 0.56263310E-01 0.22175657E+04</pdfrwt>
<totfact> 0.27471015E+00</totfact>
</mgrwt>
</event>
<event>
12    2  0.8147979E-008  0.1325603E+04  0.7818608E-02  0.9009504E-01
          2   -1    0    0  501    0  0.00000000000E+00  0.00000000000E+00  0.16048092063E+04  0.16048092063E+04  0.00000000000E+00 0. -1.
         -2   -1    0    0    0  501 -0.00000000000E+00 -0.00000000000E+00 -0.27374338887E+03  0.27374338887E+03  0.00000000000E+00 0.  1.
         23    2    1    2    0    0  0.11701550389E+03  0.17394250357E+03 -0.27488500349E+02  0.23076396000E+03  0.92454123132E+02 0.  0.
        254    2    1    2    0    0 -0.11701550389E+03 -0.17394250357E+03  0.13585543178E+04  0.16477886352E+04  0.90861924321E+03 0.  0.
         23    2    4    4    0    0  0.26260503034E+03 -0.13496857307E+03  0.11749073987E+04  0.12149092387E+04  0.91755898698E+02 0.  0.
         23    2    4    4    0    0 -0.37962053423E+03 -0.38973930508E+02  0.18364691903E+03  0.43287939648E+03  0.89597230752E+02 0.  0.
          2    1    3    3  502    0  0.45675814132E+02  0.11689820875E+03 -0.52524893100E+02  0.13605269421E+03  0.00000000000E+00 0. -1.
         -2    1    3    3    0  502  0.71339689755E+02  0.57044294824E+02  0.25036392751E+02  0.94711265794E+02  0.00000000000E+00 0.  1.
         11    1    5    5    0    0  0.41373380811E+02  0.66436418104E+01  0.24741893075E+03  0.25094226808E+03  0.00000000000E+00 0.  1.
        -11    1    5    5    0    0  0.22123164953E+03 -0.14161221488E+03  0.92748846800E+03  0.96396697061E+03  0.00000000000E+00 0. -1.
          3    1    6    6  503    0 -0.23252012990E+03  0.44083352399E+01  0.72938468352E+02  0.24373154165E+03  0.00000000000E+00 0. -1.
         -3    1    6    6    0  503 -0.14710040433E+03 -0.43382265748E+02  0.11070845068E+03  0.18914785483E+03  0.00000000000E+00 0.  1.
<mgrwt>
<rscale>  0 0.13256031E+04</rscale>
<asrwt>0</asrwt>
<pdfrwt beam="1">  1        2 0.24689372E+00 0.13256031E+04</pdfrwt>
<pdfrwt beam="2">  1       -2 0.42114368E-01 0.13256031E+04</pdfrwt>
<totfact> 0.57931136E+01</totfact>
</mgrwt>
</event>
<event>
12    2  0.8147979E-008  0.1574522E+04  0.7818608E-02  0.8836355E-01
          2   -1    0    0  501    0  0.00000000000E+00  0.00000000000E+00  0.26508989217E+04  0.26508989217E+04  0.00000000000E+00 0. -1.
         -2   -1    0    0    0  501 -0.00000000000E+00 -0.00000000000E+00 -0.23379996033E+03  0.23379996033E+03  0.00000000000E+00 0.  1.
         23    2    1    2    0    0  0.42066504187E+03  0.26868414844E+03  0.51526370183E+03  0.72316028832E+03  0.91180431574E+02 0.  0.
        254    2    1    2    0    0 -0.42066504187E+03 -0.26868414844E+03  0.19018352596E+04  0.21615385938E+04  0.89784268589E+03 0.  0.
         23    2    4    4    0    0 -0.32829686663E+03  0.21593369284E+03  0.13800319222E+04  0.14377332804E+04  0.90458205502E+02 0.  0.
         23    2    4    4    0    0 -0.92368175237E+02 -0.48461784128E+03  0.52180333735E+03  0.72380531331E+03  0.90714259244E+02 0.  0.
          3    1    3    3  502    0  0.18546983230E+03  0.15932732901E+03  0.20760463834E+03  0.32075526858E+03  0.00000000000E+00 0. -1.
         -3    1    3    3    0  502  0.23519520957E+03  0.10935681943E+03  0.30765906349E+03  0.40240501974E+03  0.00000000000E+00 0.  1.
         11    1    5    5    0    0 -0.22744754635E+03  0.15388719404E+03  0.80244344546E+03  0.84813273607E+03  0.00000000000E+00 0.  1.
        -11    1    5    5    0    0 -0.10084932029E+03  0.62046498793E+02  0.57758847678E+03  0.58960054437E+03  0.00000000000E+00 0. -1.
          1    1    6    6  503    0 -0.91472511840E+01 -0.35160428422E+01  0.87794883415E+00  0.98389814334E+01  0.00000000000E+00 0. -1.
         -1    1    6    6    0  503 -0.83220924053E+02 -0.48110179844E+03  0.52092538851E+03  0.71396633188E+03  0.00000000000E+00 0.  1.
<mgrwt>
<rscale>  0 0.15745222E+04</rscale>
<asrwt>0</asrwt>
<pdfrwt beam="1">  1        2 0.40783058E+00 0.15745222E+04</pdfrwt>
<pdfrwt beam="2">  1       -2 0.35969227E-01 0.15745222E+04</pdfrwt>
<totfact> 0.19900842E+01</totfact>
</mgrwt>
</event>
<event>
12    2  0.8147979E-008  0.2424466E+04  0.7818608E-02  0.8430400E-01
          2   -1    0    0  501    0  0.00000000000E+00  0.00000000000E+00  0.12936621276E+04  0.12936621276E+04  0.00000000000E+00 0. -1.
         -2   -1    0    0    0  501 -0.00000000000E+00 -0.00000000000E+00 -0.11359294762E+04  0.11359294762E+04  0.00000000000E+00 0.  1.
         23    2    1    2    0    0  0.87970479132E+03  0.54354024383E+03 -0.66538249111E+02  0.10401522785E+04  0.90404133179E+02 0.  0.
        254    2    1    2    0    0 -0.87970479132E+03 -0.54354024383E+03  0.22427090055E+03  0.13894393254E+04  0.90051523335E+03 0.  0.
         23    2    4    4    0    0 -0.91735984515E+03 -0.71875211153E+03  0.18467745307E+03  0.11837830472E+04  0.95304028991E+02 0.  0.
         23    2    4    4    0    0  0.37655053824E+02  0.17521186771E+03  0.39593447483E+02  0.20565627812E+03  0.92788803118E+02 0.  0.
          3    1    3    3  502    0  0.36061458017E+03  0.18232575074E+03  0.16198715425E+01  0.40408932032E+03  0.00000000000E+00 0. -1.
         -3    1    3    3    0  502  0.51909021116E+03  0.36121449308E+03 -0.68158120653E+02  0.63606295816E+03  0.00000000000E+00 0.  1.
         11    1    5    5    0    0 -0.10526291970E+03 -0.10803825269E+03  0.49334134165E+02  0.15870224669E+03  0.00000000000E+00 0. -1.
        -11    1    5    5    0    0 -0.81209692544E+03 -0.61071385884E+03  0.13534331891E+03  0.10250808006E+04  0.00000000000E+00 0.  1.
          2    1    6    6  503    0  0.23434299121E+02  0.14628058148E+03 -0.77852023944E+01  0.14835020819E+03  0.00000000000E+00 0. -1.
         -2    1    6    6    0  503  0.14220754703E+02  0.28931286226E+02  0.47378649877E+02  0.57306069933E+02  0.00000000000E+00 0.  1.
<mgrwt>
<rscale>  0 0.24244661E+04</rscale>
<asrwt>0</asrwt>
<pdfrwt beam="1">  1        2 0.19902494E+00 0.24244661E+04</pdfrwt>
<pdfrwt beam="2">  1       -2 0.17475838E+00 0.24244661E+04</pdfrwt>
<totfact> 0.29516124E+00</totfact>
</mgrwt>
</event>
<event>
12    2  0.8147979E-008  0.1227744E+04  0.7818608E-02  0.9088913E-01
          1   -1    0    0  501    0  0.00000000000E+00  0.00000000000E+00  0.97716713127E+03  0.97716713127E+03  0.00000000000E+00 0. -1.
         -1   -1    0    0    0  501 -0.00000000000E+00 -0.00000000000E+00 -0.38564442699E+03  0.38564442699E+03  0.00000000000E+00 0.  1.
         23    2    1    2    0    0 -0.26620627159E+03  0.61195487544E+02  0.17225710290E+03  0.33355235080E+03  0.83510445407E+02 0.  0.
        254    2    1    2    0    0  0.26620627159E+03 -0.61195487544E+02  0.41926560138E+03  0.10292592075E+04  0.89943326874E+03 0.  0.
         23    2    4    4    0    0  0.24780135991E+03 -0.27623969647E+03 -0.15314706547E+03  0.41063276199E+03  0.86321246978E+02 0.  0.
         23    2    4    4    0    0  0.18404911679E+02  0.21504420893E+03  0.57241266685E+03  0.61862644547E+03  0.91976438858E+02 0.  0.
          4    1    3    3  502    0 -0.17700929296E+03  0.80236033611E+02  0.12086285578E+03  0.22886227472E+03  0.00000000000E+00 0. -1.
         -4    1    3    3    0  502 -0.89196978630E+02 -0.19040546066E+02  0.51394247121E+02  0.10469007607E+03  0.00000000000E+00 0.  1.
         11    1    5    5    0    0  0.17617557588E+02 -0.65852272725E+02 -0.16344416162E+02  0.70100214679E+02  0.00000000000E+00 0.  1.
        -11    1    5    5    0    0  0.23018380232E+03 -0.21038742375E+03 -0.13680264930E+03  0.34053254731E+03  0.00000000000E+00 0. -1.
          3    1    6    6  503    0  0.39385394109E+02  0.10790458287E+03  0.38460409013E+03  0.40139122364E+03  0.00000000000E+00 0. -1.
         -3    1    6    6    0  503 -0.20980482430E+02  0.10713962606E+03  0.18780857672E+03  0.21723522183E+03  0.00000000000E+00 0.  1.
<mgrwt>
<rscale>  0 0.12277444E+04</rscale>
<asrwt>0</asrwt>
<pdfrwt beam="1">  1        1 0.15033340E+00 0.12277444E+04</pdfrwt>
<pdfrwt beam="2">  1       -1 0.59329912E-01 0.12277444E+04</pdfrwt>
<totfact> 0.44859193E+01</totfact>
</mgrwt>
</event>
<event>
12    2  0.8147979E-008  0.5668122E+04  0.7818608E-02  0.7732970E-01
          2   -1    0    0  501    0  0.00000000000E+00  0.00000000000E+00  0.16950777547E+04  0.16950777547E+04  0.00000000000E+00 0. -1.
         -2   -1    0    0    0  501 -0.00000000000E+00 -0.00000000000E+00 -0.47383685713E+04  0.47383685713E+04  0.00000000000E+00 0.  1.
         23    2    1    2    0    0  0.25737048856E+04 -0.21551896215E+03 -0.26021900271E+04  0.36674443411E+04  0.91377224919E+02 0.  0.
        254    2    1    2    0    0 -0.25737048856E+04  0.21551896215E+03 -0.44110078954E+03  0.27660019848E+04  0.88644899040E+03 0.  0.
         23    2    4    4    0    0 -0.16441505564E+04  0.47839879888E+03 -0.37209315252E+02  0.17150773103E+04  0.89494045249E+02 0.  0.
         23    2    4    4    0    0 -0.92955432915E+03 -0.26287983673E+03 -0.40389147429E+03  0.10509246746E+04  0.90206924434E+02 0.  0.
          3    1    3    3  502    0  0.83733258123E+03 -0.27270346739E+02 -0.84011407271E+03  0.11864489785E+04  0.00000000000E+00 0. -1.
         -3    1    3    3    0  502  0.17363723043E+04 -0.18824861541E+03 -0.17620759544E+04  0.24809953626E+04  0.00000000000E+00 0.  1.
         11    1    5    5    0    0 -0.36188328717E+02  0.39565881110E+01 -0.12203874559E+02  0.38395107489E+02  0.00000000000E+00 0. -1.
        -11    1    5    5    0    0 -0.16079622277E+04  0.47444221077E+03 -0.25005440693E+02  0.16766822028E+04  0.00000000000E+00 0.  1.
          1    1    6    6  503    0 -0.89619076761E+02 -0.14251503945E+02 -0.12876700204E+02  0.91654207172E+02  0.00000000000E+00 0. -1.
         -1    1    6    6    0  503 -0.83993525238E+03 -0.24862833278E+03 -0.39101477408E+03  0.95927046739E+03  0.00000000000E+00 0.  1.
<mgrwt>
<rscale>  0 0.56681225E+04</rscale>
<asrwt>0</asrwt>
<pdfrwt beam="1">  1        2 0.26078120E+00 0.56681225E+04</pdfrwt>
<pdfrwt beam="2">  1       -2 0.72897976E+00 0.56681225E+04</pdfrwt>
<totfact> 0.12179735E-03</totfact>
</mgrwt>
</event>
<event>
12    2  0.8147979E-008  0.1861956E+04  0.7818608E-02  0.8674028E-01
          2   -1    0    0  501    0  0.00000000000E+00  0.00000000000E+00  0.11196670520E+04  0.11196670520E+04  0.00000000000E+00 0. -1.
         -2   -1    0    0    0  501 -0.00000000000E+00 -0.00000000000E+00 -0.77408746109E+03  0.77408746109E+03  0.00000000000E+00 0.  1.
         23    2    1    2    0    0 -0.18888019360E+03  0.68200674486E+03  0.17302729816E+03  0.73602272642E+03  0.10479542128E+03 0.  0.
        254    2    1    2    0    0  0.18888019360E+03 -0.68200674486E+03  0.17255229277E+03  0.11577317867E+04  0.89986647267E+03 0.  0.
         23    2    4    4    0    0 -0.98753116155E+02 -0.62088273890E+02  0.40435262260E+03  0.43046343650E+03  0.90501906386E+02 0.  0.
         23    2    4    4    0    0  0.28763330976E+03 -0.61991847097E+03 -0.23180032982E+03  0.72726835020E+03  0.90310734504E+02 0.  0.
          3    1    3    3  502    0 -0.14167706666E+03  0.44669105972E+03  0.16176531584E+03  0.49575529393E+03  0.00000000000E+00 0. -1.
         -3    1    3    3    0  502 -0.47203126941E+02  0.23531568514E+03  0.11261982313E+02  0.24026743249E+03  0.00000000000E+00 0.  1.
         11    1    5    5    0    0 -0.19426019187E+02  0.15161924202E+02  0.16388846944E+03  0.16573075931E+03  0.00000000000E+00 0. -1.
        -11    1    5    5    0    0 -0.79327096967E+02 -0.77250198092E+02  0.24046415315E+03  0.26473267719E+03  0.00000000000E+00 0.  1.
          4    1    6    6  503    0  0.16750547288E+03 -0.44856917628E+03 -0.18129434061E+03  0.51199612039E+03  0.00000000000E+00 0. -1.
         -4    1    6    6    0  503  0.12012783687E+03 -0.17134929469E+03 -0.50505989213E+02  0.21527222981E+03  0.00000000000E+00 0.  1.
<mgrwt>
<rscale>  0 0.18619562E+04</rscale>
<asrwt>0</asrwt>
<pdfrwt beam="1">  1        2 0.17225647E+00 0.18619562E+04</pdfrwt>
<pdfrwt beam="2">  1       -2 0.11909038E+00 0.18619562E+04</pdfrwt>
<totfact> 0.10771924E+01</totfact>
</mgrwt>
</event>
<event>
12    2  0.8147979E-008  0.5394443E+04  0.7818608E-02  0.7770383E-01
          2   -1    0    0  501    0  0.00000000000E+00  0.00000000000E+00  0.23034563005E+04  0.23034563005E+04  0.00000000000E+00 0. -1.
         -2   -1    0    0    0  501 -0.00000000000E+00 -0.00000000000E+00 -0.31582993189E+04  0.31582993189E+04  0.00000000000E+00 0.  1.
         23    2    1    2    0    0 -0.16220692964E+04  0.14794703558E+04 -0.18660386042E+04  0.28825835669E+04  0.85127034197E+02 0.  0.
        254    2    1    2    0    0  0.16220692964E+04 -0.14794703558E+04  0.10111955857E+04  0.25791720525E+04  0.89981699684E+03 0.  0.
         23    2    4    4    0    0  0.44144257562E+03 -0.57171123412E+03  0.78400534936E+03  0.10699578184E+04  0.91760898703E+02 0.  0.
         23    2    4    4    0    0  0.11806267208E+04 -0.90775912166E+03  0.22719023637E+03  0.15092142341E+04  0.90587659912E+02 0.  0.
          4    1    3    3  502    0 -0.12709174368E+04  0.11279315719E+04 -0.14078213386E+04  0.22066766151E+04  0.00000000000E+00 0. -1.
         -4    1    3    3    0  502 -0.35115185957E+03  0.35153878385E+03 -0.45821726557E+03  0.67590695181E+03  0.00000000000E+00 0.  1.
         11    1    5    5    0    0  0.28682629099E+03 -0.30255627145E+03  0.47411183665E+03  0.63134115362E+03  0.00000000000E+00 0. -1.
        -11    1    5    5    0    0  0.15461628463E+03 -0.26915496267E+03  0.30989351271E+03  0.43861666478E+03  0.00000000000E+00 0.  1.
          2    1    6    6  503    0  0.31086585036E+03 -0.26441302773E+03  0.26931356859E+02  0.40899526175E+03  0.00000000000E+00 0. -1.
         -2    1    6    6    0  503  0.86976087040E+03 -0.64334609393E+03  0.20025887951E+03  0.11002189723E+04  0.00000000000E+00 0.  1.
<mgrwt>
<rscale>  0 0.53944432E+04</rscale>
<asrwt>0</asrwt>
<pdfrwt beam="1">  1        2 0.35437789E+00 0.53944432E+04</pdfrwt>
<pdfrwt beam="2">  1       -2 0.48589220E+00 0.53944432E+04</pdfrwt>
<totfact> 0.64933157E-03</totfact>
</mgrwt>
</event>
<event>
12    2  0.8147979E-008  0.1134345E+04  0.7818608E-02  0.9172348E-01
         -2   -1    0    0    0  501 -0.00000000000E+00  0.00000000000E+00  0.23859902577E+04  0.23859902577E+04  0.00000000000E+00 0.  1.
          2   -1    0    0  501    0  0.00000000000E+00 -0.00000000000E+00 -0.13482234237E+03  0.13482234237E+03  0.00000000000E+00 0. -1.
         23    2    1    2    0    0 -0.61833647767E+02  0.12027333152E+03  0.11873075637E+03  0.20199224522E+03  0.91732220885E+02 0.  0.
        254    2    1    2    0    0  0.61833647767E+02 -0.12027333152E+03  0.21324371590E+04  0.23188203549E+04  0.90074998027E+03 0.  0.
         23    2    4    4    0    0  0.40206012238E+03 -0.29370835501E+03  0.13862861560E+04  0.14757999012E+04  0.90989572774E+02 0.  0.
         23    2    4    4    0    0 -0.34022647461E+03  0.17343502349E+03  0.74615100301E+03  0.84302045368E+03  0.90046680272E+02 0.  0.
          4    1    3    3  502    0 -0.85064311963E+02  0.94941904170E+02  0.81396008466E+02  0.15124553723E+03  0.00000000000E+00 0.  1.
         -4    1    3    3    0  502  0.23230664196E+02  0.25331427348E+02  0.37334747907E+02  0.50746707989E+02  0.00000000000E+00 0. -1.
         11    1    5    5    0    0  0.39644435192E+03 -0.28808114535E+03  0.13828899037E+04  0.14671548508E+04  0.00000000000E+00 0. -1.
        -11    1    5    5    0    0  0.56157704562E+01 -0.56272096642E+01  0.33962522087E+01  0.86450503461E+01  0.00000000000E+00 0.  1.
          2    1    6    6  503    0 -0.34492836261E+03  0.16721136126E+03  0.73869887759E+03  0.83223268766E+03  0.00000000000E+00 0. -1.
         -2    1    6    6    0  503  0.47018879955E+01  0.62236622318E+01  0.74521254196E+01  0.10787766014E+02  0.00000000000E+00 0.  1.
<mgrwt>
<rscale>  0 0.11343453E+04</rscale>
<asrwt>0</asrwt>
<pdfrwt beam="1">  1        2 0.20741901E-01 0.11343453E+04</pdfrwt>
<pdfrwt beam="2">  1       -2 0.36707539E+00 0.11343453E+04</pdfrwt>
<totfact> 0.33375419E+00</totfact>
</mgrwt>
</event>
<event>
12    2  0.8147979E-008  0.1648970E+04  0.7818608E-02  0.8791016E-01
         -2   -1    0    0    0  501 -0.00000000000E+00  0.00000000000E+00  0.14698332824E+04  0.14698332824E+04  0.00000000000E+00 0.  1.
          2   -1    0    0  501    0  0.00000000000E+00 -0.00000000000E+00 -0.46248486033E+03  0.46248486033E+03  0.00000000000E+00 0. -1.
         23    2    1    2    0    0 -0.21129839158E+02 -0.42571799434E+03  0.79556028946E+03  0.90685684862E+03  0.88266012242E+02 0.  0.
        254    2    1    2    0    0  0.21129839158E+02  0.42571799434E+03  0.21178813263E+03  0.10254612941E+04  0.90831402710E+03 0.  0.
         23    2    4    4    0    0  0.20809498140E+03  0.11812483795E+03  0.49566780530E+03  0.55776674848E+03  0.90333680785E+02 0.  0.
         23    2    4    4    0    0 -0.18696514224E+03  0.30759315639E+03 -0.28387967266E+03  0.46769454565E+03  0.92633715296E+02 0.  0.
          3    1    3    3  502    0  0.31848438672E+02 -0.24181152837E+03  0.44611607884E+03  0.50843553584E+03  0.00000000000E+00 0. -1.
         -3    1    3    3    0  502 -0.52978277831E+02 -0.18390646597E+03  0.34944421062E+03  0.39842131278E+03  0.00000000000E+00 0.  1.
         11    1    5    5    0    0  0.20853756282E+03  0.10830393893E+03  0.49496305509E+03  0.54791065348E+03  0.00000000000E+00 0. -1.
        -11    1    5    5    0    0 -0.44258142227E+00  0.98208990173E+01  0.70475020509E+00  0.98560950013E+01  0.00000000000E+00 0.  1.
          2    1    6    6  503    0 -0.19070493680E+03  0.28751696220E+03 -0.28461702984E+03  0.44725968983E+03  0.00000000000E+00 0. -1.
         -2    1    6    6    0  503  0.37397945665E+01  0.20076194190E+02  0.73735718092E+00  0.20434855815E+02  0.00000000000E+00 0.  1.
<mgrwt>
<rscale>  0 0.16489702E+04</rscale>
<asrwt>0</asrwt>
<pdfrwt beam="1">  1        2 0.71151518E-01 0.16489702E+04</pdfrwt>
<pdfrwt beam="2">  1       -2 0.22612820E+00 0.16489702E+04</pdfrwt>
<totfact> 0.58182334E+00</totfact>
</mgrwt>
</event>
<event>
12    2  0.8147979E-008  0.2007185E+04  0.7818608E-02  0.8603269E-01
         -2   -1    0    0    0  501 -0.00000000000E+00  0.00000000000E+00  0.13647415416E+04  0.13647415416E+04  0.00000000000E+00 0.  1.
          2   -1    0    0  501    0  0.00000000000E+00 -0.00000000000E+00 -0.73801391218E+03  0.73801391218E+03  0.00000000000E+00 0. -1.
         23    2    1    2    0    0  0.69674156460E+03 -0.32794995713E+03  0.26866948091E+02  0.77596429896E+03  0.91644847842E+02 0.  0.
        254    2    1    2    0    0 -0.69674156460E+03  0.32794995713E+03  0.59986068129E+03  0.13267911548E+04  0.89863337866E+03 0.  0.
         23    2    4    4    0    0  0.19340354299E+03  0.44289037144E+02  0.10217740781E+02  0.21858807971E+03  0.91158637062E+02 0.  0.
         23    2    4    4    0    0 -0.89014510759E+03  0.28366091999E+03  0.58964294051E+03  0.11082030751E+04  0.87254960998E+02 0.  0.
          2    1    3    3  502    0  0.34662136058E+03 -0.11459889250E+03 -0.10916848076E+00  0.36507435638E+03  0.00000000000E+00 0. -1.
         -2    1    3    3    0  502  0.35012020402E+03 -0.21335106464E+03  0.26976116572E+02  0.41088994258E+03  0.00000000000E+00 0.  1.
         11    1    5    5    0    0  0.11335407412E+03 -0.97078613007E+01 -0.23763791496E+02  0.11622437987E+03  0.00000000000E+00 0. -1.
        -11    1    5    5    0    0  0.80049468877E+02  0.53996898445E+02  0.33981532276E+02  0.10236369984E+03  0.00000000000E+00 0.  1.
          2    1    6    6  503    0 -0.16736439704E+03  0.69964327105E+02  0.15188039248E+03  0.23658719763E+03  0.00000000000E+00 0. -1.
         -2    1    6    6    0  503 -0.72278071055E+03  0.21369659289E+03  0.43776254803E+03  0.87161587745E+03  0.00000000000E+00 0.  1.
<mgrwt>
<rscale>  0 0.20071853E+04</rscale>
<asrwt>0</asrwt>
<pdfrwt beam="1">  1        2 0.11354060E+00 0.20071853E+04</pdfrwt>
<pdfrwt beam="2">  1       -2 0.20996024E+00 0.20071853E+04</pdfrwt>
<totfact> 0.40713920E+00</totfact>
</mgrwt>
</event>
<event>
12    2  0.8147979E-008  0.1473628E+04  0.7818608E-02  0.8902182E-01
         -1   -1    0    0    0  501 -0.00000000000E+00  0.00000000000E+00  0.98614979879E+03  0.98614979879E+03  0.00000000000E+00 0.  1.
          1   -1    0    0  501    0  0.00000000000E+00 -0.00000000000E+00 -0.55051982738E+03  0.55051982738E+03  0.00000000000E+00 0. -1.
         23    2    1    2    0    0 -0.21768042662E+03  0.40058024757E+03  0.14480571232E+03  0.48712704371E+03  0.92058457035E+02 0.  0.
        254    2    1    2    0    0  0.21768042662E+03 -0.40058024757E+03  0.29082425909E+03  0.10495425825E+04  0.89950629783E+03 0.  0.
         23    2    4    4    0    0  0.30412525306E+03 -0.54934159925E+03  0.46629489641E+03  0.78722342105E+03  0.89562391767E+02 0.  0.
         23    2    4    4    0    0 -0.86444826439E+02  0.14876135167E+03 -0.17547063732E+03  0.26231916141E+03  0.91753747122E+02 0.  0.
          1    1    3    3  502    0 -0.17211439758E+03  0.22518117212E+03  0.77731703872E+02  0.29389138115E+03  0.00000000000E+00 0. -1.
         -1    1    3    3    0  502 -0.45566029044E+02  0.17539907545E+03  0.67074008449E+02  0.19323566255E+03  0.00000000000E+00 0.  1.
         11    1    5    5    0    0  0.92367934106E+01 -0.50456310879E+02  0.17350095192E+02  0.54149639548E+02  0.00000000000E+00 0. -1.
        -11    1    5    5    0    0  0.29488845965E+03 -0.49888528837E+03  0.44894480122E+03  0.73307378150E+03  0.00000000000E+00 0.  1.
          4    1    6    6  503    0 -0.73314421098E+02  0.73734776933E+02 -0.14897827818E+03  0.18167649557E+03  0.00000000000E+00 0.  1.
         -4    1    6    6    0  503 -0.13130405341E+02  0.75026574742E+02 -0.26492359137E+02  0.80642665845E+02  0.00000000000E+00 0. -1.
<mgrwt>
<rscale>  0 0.14736282E+04</rscale>
<asrwt>0</asrwt>
<pdfrwt beam="1">  1        1 0.84695358E-01 0.14736282E+04</pdfrwt>
<pdfrwt beam="2">  1       -1 0.15171535E+00 0.14736282E+04</pdfrwt>
<totfact> 0.12706111E+01</totfact>
</mgrwt>
</event>
<event>
12    2  0.8147979E-008  0.1657076E+04  0.7818608E-02  0.8786231E-01
         -1   -1    0    0    0  501 -0.00000000000E+00  0.00000000000E+00  0.35849766656E+03  0.35849766656E+03  0.00000000000E+00 0.  1.
          1   -1    0    0  501    0  0.00000000000E+00 -0.00000000000E+00 -0.19148665160E+04  0.19148665160E+04  0.00000000000E+00 0. -1.
         23    2    1    2    0    0  0.64876274544E+02  0.44544011117E+03 -0.10547082885E+04  0.11501420507E+04  0.88268563610E+02 0.  0.
        254    2    1    2    0    0 -0.64876274544E+02 -0.44544011117E+03 -0.50166056087E+03  0.11232221318E+04  0.89852034778E+03 0.  0.
         23    2    4    4    0    0 -0.26098966573E+03 -0.35560491284E+03  0.11381287997E+03  0.46452894517E+03  0.90902747988E+02 0.  0.
         23    2    4    4    0    0  0.19611339119E+03 -0.89835198329E+02 -0.61547344084E+03  0.65869318663E+03  0.92403098793E+02 0.  0.
          1    1    3    3  502    0  0.16174375513E+02  0.33614538450E+03 -0.82839742828E+03  0.89414631304E+03  0.00000000000E+00 0. -1.
         -1    1    3    3    0  502  0.48701899031E+02  0.10929472667E+03 -0.22631086026E+03  0.25599573770E+03  0.00000000000E+00 0.  1.
         11    1    5    5    0    0 -0.11607318896E+03 -0.18055145241E+03  0.10016675215E+03  0.23686534233E+03  0.00000000000E+00 0.  1.
        -11    1    5    5    0    0 -0.14491647678E+03 -0.17505346044E+03  0.13646127824E+02  0.22766360284E+03  0.00000000000E+00 0. -1.
          4    1    6    6  503    0  0.43130878322E+02  0.57632711911E+01 -0.56394122012E+02  0.71230505805E+02  0.00000000000E+00 0. -1.
         -4    1    6    6    0  503  0.15298251287E+03 -0.95598469520E+02 -0.55907931883E+03  0.58746268082E+03  0.00000000000E+00 0.  1.
<mgrwt>
<rscale>  0 0.16570760E+04</rscale>
<asrwt>0</asrwt>
<pdfrwt beam="1">  1        1 0.29459484E+00 0.16570760E+04</pdfrwt>
<pdfrwt beam="2">  1       -1 0.55153488E-01 0.16570760E+04</pdfrwt>
<totfact> 0.10805285E+01</totfact>
</mgrwt>
</event>
<event>
12    2  0.8147979E-008  0.3331164E+04  0.7818608E-02  0.8155011E-01
          1   -1    0    0  501    0  0.00000000000E+00  0.00000000000E+00  0.15568969286E+04  0.15568969286E+04  0.00000000000E+00 0. -1.
         -1   -1    0    0    0  501 -0.00000000000E+00 -0.00000000000E+00 -0.17818545888E+04  0.17818545888E+04  0.00000000000E+00 0.  1.
         23    2    1    2    0    0  0.68206536810E+02 -0.15407628542E+04 -0.13480298976E+03  0.15510171868E+04  0.94234617777E+02 0.  0.
        254    2    1    2    0    0 -0.68206536810E+02  0.15407628542E+04 -0.90154670417E+02  0.17877343306E+04  0.89959094463E+03 0.  0.
         23    2    4    4    0    0  0.12679303737E+03  0.15578106318E+04 -0.11812256453E+03  0.15699827950E+04  0.89680530560E+02 0.  0.
         23    2    4    4    0    0 -0.19499957418E+03 -0.17047777629E+02  0.27967894111E+02  0.21775153555E+03  0.91203440062E+02 0.  0.
          4    1    3    3  502    0 -0.26804589684E+01 -0.50776074342E+03 -0.81008946593E+02  0.51418927142E+03  0.00000000000E+00 0.  1.
         -4    1    3    3    0  502  0.70886995778E+02 -0.10330021107E+04 -0.53794043167E+02  0.10368279153E+04  0.00000000000E+00 0. -1.
         11    1    5    5    0    0  0.11719315817E+03  0.15040410414E+04 -0.12964665989E+03  0.15141604759E+04  0.00000000000E+00 0.  1.
        -11    1    5    5    0    0  0.95998792015E+01  0.53769590412E+02  0.11524095361E+02  0.55822319082E+02  0.00000000000E+00 0. -1.
          2    1    6    6  503    0  0.93270757595E+01  0.47377267704E+01  0.11623368920E+01  0.10525750530E+02  0.00000000000E+00 0. -1.
         -2    1    6    6    0  503 -0.20432664994E+03 -0.21785504399E+02  0.26805557219E+02  0.20722578502E+03  0.00000000000E+00 0.  1.
<mgrwt>
<rscale>  0 0.33311643E+04</rscale>
<asrwt>0</asrwt>
<pdfrwt beam="1">  1        1 0.23952261E+00 0.33311643E+04</pdfrwt>
<pdfrwt beam="2">  1       -1 0.27413147E+00 0.33311643E+04</pdfrwt>
<totfact> 0.24015291E-01</totfact>
</mgrwt>
</event>
<event>
12    2  0.8147979E-008  0.1663317E+04  0.7818608E-02  0.8782567E-01
          1   -1    0    0  501    0  0.00000000000E+00  0.00000000000E+00  0.72460400919E+03  0.72460400919E+03  0.00000000000E+00 0. -1.
         -1   -1    0    0    0  501 -0.00000000000E+00 -0.00000000000E+00 -0.95452894287E+03  0.95452894287E+03  0.00000000000E+00 0.  1.
         23    2    1    2    0    0  0.23616096783E+03  0.43413953738E+02  0.45501175944E+03  0.52290350455E+03  0.93464430322E+02 0.  0.
        254    2    1    2    0    0 -0.23616096783E+03 -0.43413953738E+02 -0.68493669312E+03  0.11562294475E+04  0.90003971444E+03 0.  0.
         23    2    4    4    0    0  0.20467220744E+03 -0.32568923671E+03 -0.23673461726E+03  0.46094389516E+03  0.91988064822E+02 0.  0.
         23    2    4    4    0    0 -0.44083317527E+03  0.28227528298E+03 -0.44820207586E+03  0.69528555233E+03  0.92323749274E+02 0.  0.
          1    1    3    3  502    0  0.38272139058E+02  0.24693314822E+02  0.16600179899E+03  0.17213690392E+03  0.00000000000E+00 0. -1.
         -1    1    3    3    0  502  0.19788882877E+03  0.18720638916E+02  0.28900996046E+03  0.35076660063E+03  0.00000000000E+00 0.  1.
         11    1    5    5    0    0  0.30059783374E+02 -0.69109391946E+02 -0.90757187601E+02  0.11796849466E+03  0.00000000000E+00 0. -1.
        -11    1    5    5    0    0  0.17461242406E+03 -0.25657984477E+03 -0.14597742966E+03  0.34297540050E+03  0.00000000000E+00 0.  1.
          1    1    6    6  503    0 -0.80746960828E+02  0.91016401114E+02 -0.13026365550E+03  0.17824891837E+03  0.00000000000E+00 0. -1.
         -1    1    6    6    0  503 -0.36008621444E+03  0.19125888186E+03 -0.31793842036E+03  0.51703663397E+03  0.00000000000E+00 0.  1.
<mgrwt>
<rscale>  0 0.16633166E+04</rscale>
<asrwt>0</asrwt>
<pdfrwt beam="1">  1        1 0.11147754E+00 0.16633166E+04</pdfrwt>
<pdfrwt beam="2">  1       -1 0.14685061E+00 0.16633166E+04</pdfrwt>
<totfact> 0.91110685E+00</totfact>
</mgrwt>
</event>
<event>
12    2  0.8147979E-008  0.1429129E+04  0.7818608E-02  0.8932999E-01
         -2   -1    0    0    0  501 -0.00000000000E+00  0.00000000000E+00  0.50772339202E+03  0.50772339202E+03  0.00000000000E+00 0.  1.
          2   -1    0    0  501    0  0.00000000000E+00 -0.00000000000E+00 -0.10056710202E+04  0.10056710202E+04  0.00000000000E+00 0. -1.
         23    2    1    2    0    0  0.30642540212E+03 -0.10092292521E+03 -0.44000332653E+03  0.55309687221E+03  0.90726284991E+02 0.  0.
        254    2    1    2    0    0 -0.30642540212E+03  0.10092292521E+03 -0.57944301625E+02  0.96029753999E+03  0.90262498266E+03 0.  0.
         23    2    4    4    0    0 -0.21267443926E+03  0.27368207684E+03  0.34827667248E+03  0.49966518730E+03  0.90754407652E+02 0.  0.
         23    2    4    4    0    0 -0.93750962865E+02 -0.17275915163E+03 -0.40622097410E+03  0.46063235269E+03  0.92367294166E+02 0.  0.
          3    1    3    3  502    0  0.23330279829E+03 -0.97661546936E+02 -0.38859180424E+03  0.46365026017E+03  0.00000000000E+00 0. -1.
         -3    1    3    3    0  502  0.73122603833E+02 -0.32613782777E+01 -0.51411522292E+02  0.89446612032E+02  0.00000000000E+00 0.  1.
         11    1    5    5    0    0 -0.14127237644E+03  0.12079362007E+03  0.14674310158E+03  0.23681748427E+03  0.00000000000E+00 0. -1.
        -11    1    5    5    0    0 -0.71402062815E+02  0.15288845677E+03  0.20153357090E+03  0.26284770303E+03  0.00000000000E+00 0.  1.
          1    1    6    6  503    0 -0.21322497414E+02 -0.22748584816E+01 -0.10873440218E+02  0.24042786428E+02  0.00000000000E+00 0.  1.
         -1    1    6    6    0  503 -0.72428465451E+02 -0.17048429315E+03 -0.39534753389E+03  0.43658956626E+03  0.00000000000E+00 0. -1.
<mgrwt>
<rscale>  0 0.14291294E+04</rscale>
<asrwt>0</asrwt>
<pdfrwt beam="1">  1        2 0.15471862E+00 0.14291294E+04</pdfrwt>
<pdfrwt beam="2">  1       -2 0.78111292E-01 0.14291294E+04</pdfrwt>
<totfact> 0.35391481E+01</totfact>
</mgrwt>
</event>
<event>
12    2  0.8147979E-008  0.1519008E+04  0.7818608E-02  0.8871911E-01
          1   -1    0    0  501    0  0.00000000000E+00  0.00000000000E+00  0.82322823571E+03  0.82322823571E+03  0.00000000000E+00 0. -1.
         -1   -1    0    0    0  501 -0.00000000000E+00 -0.00000000000E+00 -0.70071211913E+03  0.70071211913E+03  0.00000000000E+00 0.  1.
         23    2    1    2    0    0 -0.18048788102E+03  0.20891949933E+03 -0.36200372791E+03  0.46431429279E+03  0.91202144026E+02 0.  0.
        254    2    1    2    0    0  0.18048788102E+03 -0.20891949933E+03  0.48451984449E+03  0.10596260620E+04  0.90101314046E+03 0.  0.
         23    2    4    4    0    0  0.11176230159E+03  0.16451054690E+03  0.61122732590E+03  0.64916559246E+03  0.90898792124E+02 0.  0.
         23    2    4    4    0    0  0.68725579435E+02 -0.37343004622E+03 -0.12670748142E+03  0.41046046958E+03  0.90828445724E+02 0.  0.
          3    1    3    3  502    0 -0.75895146742E+01 -0.50449159708E+01 -0.38964726906E+02  0.40016269854E+02  0.00000000000E+00 0. -1.
         -3    1    3    3    0  502 -0.17289836635E+03  0.21396441530E+03 -0.32303900101E+03  0.42429802294E+03  0.00000000000E+00 0.  1.
         11    1    5    5    0    0  0.85584016900E+02  0.16954793600E+03  0.50183966398E+03  0.53657634582E+03  0.00000000000E+00 0.  1.
        -11    1    5    5    0    0  0.26178284686E+02 -0.50373891045E+01  0.10938766193E+03  0.11258924664E+03  0.00000000000E+00 0. -1.
          4    1    6    6  503    0  0.75144613003E+02 -0.15972198528E+03 -0.61778891572E+02  0.18701459004E+03  0.00000000000E+00 0. -1.
         -4    1    6    6    0  503 -0.64190335682E+01 -0.21370806095E+03 -0.64928589844E+02  0.22344587954E+03  0.00000000000E+00 0.  1.
<mgrwt>
<rscale>  0 0.15190076E+04</rscale>
<asrwt>0</asrwt>
<pdfrwt beam="1">  1        1 0.12665050E+00 0.15190076E+04</pdfrwt>
<pdfrwt beam="2">  1       -1 0.10780187E+00 0.15190076E+04</pdfrwt>
<totfact> 0.16324266E+01</totfact>
</mgrwt>
</event>
<event>
12    2  0.8147979E-008  0.2215297E+04  0.7818608E-02  0.8512088E-01
          2   -1    0    0  501    0  0.00000000000E+00  0.00000000000E+00  0.17958091454E+04  0.17958091454E+04  0.00000000000E+00 0. -1.
         -2   -1    0    0    0  501 -0.00000000000E+00 -0.00000000000E+00 -0.68319344660E+03  0.68319344660E+03  0.00000000000E+00 0.  1.
         23    2    1    2    0    0 -0.55963691092E+03 -0.58641244115E+03  0.95735320701E+03  0.12577779377E+04  0.91690535928E+02 0.  0.
        254    2    1    2    0    0  0.55963691092E+03  0.58641244115E+03  0.15526249181E+03  0.12212246543E+04  0.90011676561E+03 0.  0.
         23    2    4    4    0    0  0.66741338095E+03  0.25885801697E+03 -0.16892298108E+03  0.74079908011E+03  0.88318794934E+02 0.  0.
         23    2    4    4    0    0 -0.10777647002E+03  0.32755442419E+03  0.32418547289E+03  0.48042557421E+03  0.82491473642E+02 0.  0.
          2    1    3    3  502    0 -0.23736615397E+03 -0.21259360726E+03  0.43382386670E+03  0.53827676916E+03  0.00000000000E+00 0. -1.
         -2    1    3    3    0  502 -0.32227075696E+03 -0.37381883390E+03  0.52352934031E+03  0.71950116854E+03  0.00000000000E+00 0.  1.
         11    1    5    5    0    0  0.61656100922E+03  0.23125432521E+03 -0.17822435450E+03  0.68219495861E+03  0.00000000000E+00 0. -1.
        -11    1    5    5    0    0  0.50852371728E+02  0.27603691753E+02  0.93013734234E+01  0.58604121495E+02  0.00000000000E+00 0.  1.
          1    1    6    6  503    0 -0.84184556015E+02  0.15339173195E+03  0.19696079025E+03  0.26345704735E+03  0.00000000000E+00 0. -1.
         -1    1    6    6    0  503 -0.23591914008E+02  0.17416269224E+03  0.12722468264E+03  0.21696852686E+03  0.00000000000E+00 0.  1.
<mgrwt>
<rscale>  0 0.22152969E+04</rscale>
<asrwt>0</asrwt>
<pdfrwt beam="1">  1        2 0.27627833E+00 0.22152969E+04</pdfrwt>
<pdfrwt beam="2">  1       -2 0.10510668E+00 0.22152969E+04</pdfrwt>
<totfact> 0.58074403E+00</totfact>
</mgrwt>
</event>
<event>
12    2  0.8147979E-008  0.4578634E+04  0.7818608E-02  0.7897013E-01
         -2   -1    0    0    0  501 -0.00000000000E+00  0.00000000000E+00  0.15278394392E+04  0.15278394392E+04  0.00000000000E+00 0.  1.
          2   -1    0    0  501    0  0.00000000000E+00 -0.00000000000E+00 -0.34303165558E+04  0.34303165558E+04  0.00000000000E+00 0. -1.
         23    2    1    2    0    0  0.19945889643E+04  0.92253387484E+03 -0.80971815852E+03  0.23436808309E+04  0.87991216502E+02 0.  0.
        254    2    1    2    0    0 -0.19945889643E+04 -0.92253387484E+03 -0.10927589581E+04  0.26144751641E+04  0.90105735461E+03 0.  0.
         23    2    4    4    0    0  0.17006405025E+02 -0.39417076333E+02  0.71733798612E+02  0.12637102442E+03  0.94768002151E+02 0.  0.
         23    2    4    4    0    0 -0.20115953694E+04 -0.88311679850E+03 -0.11644927567E+04  0.24881041397E+04  0.90595913791E+02 0.  0.
          2    1    3    3  502    0  0.71715243039E+03  0.36926151709E+03 -0.27024616068E+03  0.85070245314E+03  0.00000000000E+00 0. -1.
         -2    1    3    3    0  502  0.12774365339E+04  0.55327235775E+03 -0.53947199784E+03  0.14929783778E+04  0.00000000000E+00 0.  1.
         11    1    5    5    0    0  0.43489176411E+02 -0.57331985308E+02  0.52254426567E+02  0.88931378602E+02  0.00000000000E+00 0. -1.
        -11    1    5    5    0    0 -0.26482771386E+02  0.17914908974E+02  0.19479372045E+02  0.37439645820E+02  0.00000000000E+00 0.  1.
          4    1    6    6  503    0 -0.19275336093E+04 -0.86286374557E+03 -0.11085906544E+04  0.23851400163E+04  0.00000000000E+00 0. -1.
         -4    1    6    6    0  503 -0.84061760087E+02 -0.20253052936E+02 -0.55902102233E+02  0.10296412334E+03  0.00000000000E+00 0.  1.
<mgrwt>
<rscale>  0 0.45786343E+04</rscale>
<asrwt>0</asrwt>
<pdfrwt beam="1">  1        2 0.52774100E+00 0.45786343E+04</pdfrwt>
<pdfrwt beam="2">  1       -2 0.23505222E+00 0.45786343E+04</pdfrwt>
<totfact> 0.54312984E-02</totfact>
</mgrwt>
</event>
<event>
12    2  0.8147979E-008  0.1609553E+04  0.7818608E-02  0.8814700E-01
          2   -1    0    0  501    0  0.00000000000E+00  0.00000000000E+00  0.28292165502E+03  0.28292165502E+03  0.00000000000E+00 0. -1.
         -2   -1    0    0    0  501 -0.00000000000E+00 -0.00000000000E+00 -0.22892040870E+04  0.22892040870E+04  0.00000000000E+00 0.  1.
         23    2    1    2    0    0  0.43912537752E+01 -0.28446479938E+03 -0.14449603807E+04  0.14754518661E+04  0.90045557577E+02 0.  0.
        254    2    1    2    0    0 -0.43912537752E+01  0.28446479938E+03 -0.56132205132E+03  0.10966738759E+04  0.89814900743E+03 0.  0.
         23    2    4    4    0    0 -0.18454507001E+03  0.43743807419E+03 -0.66574361030E+03  0.82260624766E+03  0.89763758897E+02 0.  0.
         23    2    4    4    0    0  0.18015381624E+03 -0.15297327481E+03  0.10442155898E+03  0.27406762823E+03  0.91394652745E+02 0.  0.
          2    1    3    3  502    0 -0.44295295371E+01 -0.26135391043E+03 -0.11442779398E+04  0.11737535903E+04  0.00000000000E+00 0. -1.
         -2    1    3    3    0  502  0.88207833122E+01 -0.23110888947E+02 -0.30068244088E+03  0.30169827586E+03  0.00000000000E+00 0.  1.
         11    1    5    5    0    0 -0.99208461126E+01  0.28451201446E+02 -0.91294342700E+02  0.96138187316E+02  0.00000000000E+00 0. -1.
        -11    1    5    5    0    0 -0.17462422390E+03  0.40898687274E+03 -0.57444926760E+03  0.72646806034E+03  0.00000000000E+00 0.  1.
          1    1    6    6  503    0  0.13789112868E+03 -0.68908506429E+02  0.37618780455E+02  0.15867425207E+03  0.00000000000E+00 0. -1.
         -1    1    6    6    0  503  0.42262687563E+02 -0.84064768383E+02  0.66802778524E+02  0.11539337616E+03  0.00000000000E+00 0.  1.
<mgrwt>
<rscale>  0 0.16095532E+04</rscale>
<asrwt>0</asrwt>
<pdfrwt beam="1">  1        2 0.43526408E-01 0.16095532E+04</pdfrwt>
<pdfrwt beam="2">  1       -2 0.35218524E+00 0.16095532E+04</pdfrwt>
<totfact> 0.17026007E+00</totfact>
</mgrwt>
</event>
<event>
12    2  0.8147979E-008  0.2390612E+04  0.7818608E-02  0.8443027E-01
          1   -1    0    0  501    0  0.00000000000E+00  0.00000000000E+00  0.26546644086E+04  0.26546644086E+04  0.00000000000E+00 0. -1.
         -1   -1    0    0    0  501 -0.00000000000E+00 -0.00000000000E+00 -0.53820592636E+03  0.53820592636E+03  0.00000000000E+00 0.  1.
         23    2    1    2    0    0 -0.42665974076E+03  0.89289720180E+03  0.56247171660E+03  0.11419281297E+04  0.91222113490E+02 0.  0.
        254    2    1    2    0    0  0.42665974076E+03 -0.89289720180E+03  0.15539867656E+04  0.20509422053E+04  0.90121313476E+03 0.  0.
         23    2    4    4    0    0  0.55410491563E+03 -0.16026764084E+03  0.58921265343E+03  0.82946600611E+03  0.90135065833E+02 0.  0.
         23    2    4    4    0    0 -0.12744517487E+03 -0.73262956096E+03  0.96477411218E+03  0.12214761992E+04  0.90700999902E+02 0.  0.
          1    1    3    3  502    0 -0.77469054748E+01  0.45415833299E+02  0.44076647141E+02  0.63760201394E+02  0.00000000000E+00 0. -1.
         -1    1    3    3    0  502 -0.41891283528E+03  0.84748136850E+03  0.51839506946E+03  0.10781679283E+04  0.00000000000E+00 0.  1.
         11    1    5    5    0    0  0.16575545706E+03 -0.32377956662E+02  0.12041889087E+03  0.20742206465E+03  0.00000000000E+00 0.  1.
        -11    1    5    5    0    0  0.38834945857E+03 -0.12788968418E+03  0.46879376256E+03  0.62204394146E+03  0.00000000000E+00 0. -1.
          4    1    6    6  503    0 -0.12641157021E+03 -0.61644945744E+03  0.76709392678E+03  0.99218088632E+03  0.00000000000E+00 0. -1.
         -4    1    6    6    0  503 -0.10336046563E+01 -0.11618010352E+03  0.19768018539E+03  0.22929531284E+03  0.00000000000E+00 0.  1.
<mgrwt>
<rscale>  0 0.23906117E+04</rscale>
<asrwt>0</asrwt>
<pdfrwt beam="1">  1        1 0.40840990E+00 0.23906117E+04</pdfrwt>
<pdfrwt beam="2">  1       -1 0.82800913E-01 0.23906117E+04</pdfrwt>
<totfact> 0.13725074E+00</totfact>
</mgrwt>
</event>
<event>
12    2  0.8147979E-008  0.2466560E+04  0.7818608E-02  0.8414996E-01
         -1   -1    0    0    0  501 -0.00000000000E+00  0.00000000000E+00  0.54361005599E+03  0.54361005599E+03  0.00000000000E+00 0.  1.
          1   -1    0    0  501    0  0.00000000000E+00 -0.00000000000E+00 -0.27979238066E+04  0.27979238066E+04  0.00000000000E+00 0. -1.
         23    2    1    2    0    0  0.94294735368E+03 -0.48483653839E+03 -0.82942722896E+03  0.13495364796E+04  0.95304778762E+02 0.  0.
        254    2    1    2    0    0 -0.94294735368E+03  0.48483653839E+03 -0.14248865217E+04  0.19919973830E+04  0.90196219075E+03 0.  0.
         23    2    4    4    0    0 -0.50177206768E+03 -0.13725133725E+03 -0.95567861687E+03  0.10920525855E+04  0.92973616495E+02 0.  0.
         23    2    4    4    0    0 -0.44117528600E+03  0.62208787563E+03 -0.46920790482E+03  0.89994479749E+03  0.90086750395E+02 0.  0.
          2    1    3    3  502    0  0.64723685346E+03 -0.31164333502E+03 -0.61181556977E+03  0.94358645823E+03  0.00000000000E+00 0.  1.
         -2    1    3    3    0  502  0.29571050022E+03 -0.17319320337E+03 -0.21761165919E+03  0.40595002137E+03  0.00000000000E+00 0. -1.
         11    1    5    5    0    0  0.39490698985E+01  0.10423336593E+01 -0.59062046457E+01  0.71808680420E+01  0.00000000000E+00 0. -1.
        -11    1    5    5    0    0 -0.50572113758E+03 -0.13829367091E+03 -0.94977241222E+03  0.10848717175E+04  0.00000000000E+00 0.  1.
          4    1    6    6  503    0 -0.20705157718E+03  0.22895327836E+03 -0.15995888521E+03  0.34767341607E+03  0.00000000000E+00 0. -1.
         -4    1    6    6    0  503 -0.23412370882E+03  0.39313459728E+03 -0.30924901961E+03  0.55227138142E+03  0.00000000000E+00 0.  1.
<mgrwt>
<rscale>  0 0.24665600E+04</rscale>
<asrwt>0</asrwt>
<pdfrwt beam="1">  1        1 0.43044982E+00 0.24665600E+04</pdfrwt>
<pdfrwt beam="2">  1       -1 0.83632317E-01 0.24665600E+04</pdfrwt>
<totfact> 0.10564053E+00</totfact>
</mgrwt>
</event>
<event>
12    2  0.8147979E-008  0.3766278E+04  0.7818608E-02  0.8053430E-01
          2   -1    0    0  501    0  0.00000000000E+00  0.00000000000E+00  0.26543835983E+04  0.26543835983E+04  0.00000000000E+00 0. -1.
         -2   -1    0    0    0  501 -0.00000000000E+00 -0.00000000000E+00 -0.13359834568E+04  0.13359834568E+04  0.00000000000E+00 0.  1.
         23    2    1    2    0    0 -0.99576446430E+02 -0.17639521724E+04  0.79774742671E+03  0.19406687103E+04  0.91385725992E+02 0.  0.
        254    2    1    2    0    0  0.99576446430E+02  0.17639521724E+04  0.52065271480E+03  0.20496983448E+04  0.89930046138E+03 0.  0.
         23    2    4    4    0    0 -0.10715834644E+03  0.78103364639E+03 -0.18972606203E+03  0.81607376929E+03  0.92108361763E+02 0.  0.
         23    2    4    4    0    0  0.20673479287E+03  0.98291852605E+03  0.71037877683E+03  0.12336245755E+04  0.91233125874E+02 0.  0.
          2    1    3    3  502    0 -0.57577119526E-02 -0.55499461442E+03  0.21917470521E+03  0.59670476241E+03  0.00000000000E+00 0. -1.
         -2    1    3    3    0  502 -0.99570688718E+02 -0.12089575580E+04  0.57857272150E+03  0.13439639479E+04  0.00000000000E+00 0.  1.
         11    1    5    5    0    0 -0.31727445920E+02  0.53306877954E+03 -0.11387662709E+03  0.54601908460E+03  0.00000000000E+00 0. -1.
        -11    1    5    5    0    0 -0.75430900525E+02  0.24796486685E+03 -0.75849434937E+02  0.27005468470E+03  0.00000000000E+00 0.  1.
          3    1    6    6  503    0  0.14889570022E+03  0.85827883567E+03  0.61797173422E+03  0.10680363072E+04  0.00000000000E+00 0. -1.
         -3    1    6    6    0  503  0.57839092658E+02  0.12463969038E+03  0.92407042609E+02  0.16558826825E+03  0.00000000000E+00 0.  1.
<mgrwt>
<rscale>  0 0.37662780E+04</rscale>
<asrwt>0</asrwt>
<pdfrwt beam="1">  1        2 0.40836671E+00 0.37662780E+04</pdfrwt>
<pdfrwt beam="2">  1       -2 0.20553592E+00 0.37662780E+04</pdfrwt>
<totfact> 0.27806203E-01</totfact>
</mgrwt>
</event>
<event>
12    2  0.8147979E-008  0.1576190E+04  0.7818608E-02  0.8835310E-01
          1   -1    0    0  501    0  0.00000000000E+00  0.00000000000E+00  0.99203610726E+03  0.99203610726E+03  0.00000000000E+00 0. -1.
         -1   -1    0    0    0  501 -0.00000000000E+00 -0.00000000000E+00 -0.62607977881E+03  0.62607977881E+03  0.00000000000E+00 0.  1.
         23    2    1    2    0    0  0.10475705086E+03 -0.42965362855E+03 -0.16811346032E+03  0.48180223942E+03  0.91076792561E+02 0.  0.
        254    2    1    2    0    0 -0.10475705086E+03  0.42965362855E+03  0.53406978876E+03  0.11363136466E+04  0.90022324123E+03 0.  0.
         23    2    4    4    0    0 -0.47865912565E+03  0.21327803139E+03  0.15122975764E+03  0.55294642788E+03  0.90979312324E+02 0.  0.
         23    2    4    4    0    0  0.37390207479E+03  0.21637559716E+03  0.38284003113E+03  0.58336721877E+03  0.84437325389E+02 0.  0.
          4    1    3    3  502    0  0.84370638248E+02 -0.34377838885E+03 -0.93224480008E+02  0.36605025463E+03  0.00000000000E+00 0. -1.
         -4    1    3    3    0  502  0.20386412610E+02 -0.85875239699E+02 -0.74888980313E+02  0.11575198480E+03  0.00000000000E+00 0.  1.
         11    1    5    5    0    0 -0.11564893656E+03  0.32089799257E+02  0.16370506545E+00  0.12001857583E+03  0.00000000000E+00 0.  1.
        -11    1    5    5    0    0 -0.36301018909E+03  0.18118823213E+03  0.15106605257E+03  0.43292785205E+03  0.00000000000E+00 0. -1.
          1    1    6    6  503    0  0.25536822795E+03  0.10813171597E+03  0.21303262632E+03  0.34969744026E+03  0.00000000000E+00 0. -1.
         -1    1    6    6    0  503  0.11853384684E+03  0.10824388119E+03  0.16980740480E+03  0.23366977851E+03  0.00000000000E+00 0.  1.
<mgrwt>
<rscale>  0 0.15761900E+04</rscale>
<asrwt>0</asrwt>
<pdfrwt beam="1">  1        1 0.15262094E+00 0.15761900E+04</pdfrwt>
<pdfrwt beam="2">  1       -1 0.96319967E-01 0.15761900E+04</pdfrwt>
<totfact> 0.15321644E+01</totfact>
</mgrwt>
</event>
<event>
12    2  0.8147979E-008  0.1190955E+04  0.7818608E-02  0.9120810E-01
          1   -1    0    0  501    0  0.00000000000E+00  0.00000000000E+00  0.35212469980E+03  0.35212469980E+03  0.00000000000E+00 0. -1.
         -1   -1    0    0    0  501 -0.00000000000E+00 -0.00000000000E+00 -0.10070118588E+04  0.10070118588E+04  0.00000000000E+00 0.  1.
         23    2    1    2    0    0  0.22927692331E+03  0.28439101941E+01 -0.23508398860E+03  0.34055328641E+03  0.90200131945E+02 0.  0.
        254    2    1    2    0    0 -0.22927692331E+03 -0.28439101941E+01 -0.41980317042E+03  0.10185832722E+04  0.89927814670E+03 0.  0.
         23    2    4    4    0    0 -0.35406610545E+03 -0.15850802324E+03 -0.61001003885E+03  0.72824937723E+03  0.88018790431E+02 0.  0.
         23    2    4    4    0    0  0.12478918214E+03  0.15566411305E+03  0.19020686843E+03  0.29033389498E+03  0.91167218380E+02 0.  0.
          2    1    3    3  502    0  0.56442102068E+02  0.27967856928E+01 -0.11020863834E+02  0.57575970124E+02  0.00000000000E+00 0. -1.
         -2    1    3    3    0  502  0.17283482124E+03  0.47124501274E-01 -0.22406312477E+03  0.28297731629E+03  0.00000000000E+00 0.  1.
         11    1    5    5    0    0 -0.26541534779E+03 -0.82801799490E+02 -0.38582732024E+03  0.47556720438E+03  0.00000000000E+00 0. -1.
        -11    1    5    5    0    0 -0.88650757664E+02 -0.75706223753E+02 -0.22418271861E+03  0.25268217285E+03  0.00000000000E+00 0.  1.
          3    1    6    6  503    0  0.46900472396E+02  0.22495896605E+01  0.47614418864E+02  0.66871876363E+02  0.00000000000E+00 0. -1.
         -3    1    6    6    0  503  0.77888709743E+02  0.15341452339E+03  0.14259244957E+03  0.22346201862E+03  0.00000000000E+00 0.  1.
<mgrwt>
<rscale>  0 0.11909555E+04</rscale>
<asrwt>0</asrwt>
<pdfrwt beam="1">  1        1 0.54173030E-01 0.11909555E+04</pdfrwt>
<pdfrwt beam="2">  1       -1 0.15492490E+00 0.11909555E+04</pdfrwt>
<totfact> 0.22485808E+01</totfact>
</mgrwt>
</event>
<event>
12    2  0.8147979E-008  0.1487076E+04  0.7818608E-02  0.8893093E-01
          2   -1    0    0  501    0  0.00000000000E+00  0.00000000000E+00  0.46014300004E+03  0.46014300004E+03  0.00000000000E+00 0. -1.
         -2   -1    0    0    0  501 -0.00000000000E+00 -0.00000000000E+00 -0.12014710218E+04  0.12014710218E+04  0.00000000000E+00 0.  1.
         23    2    1    2    0    0 -0.49588085480E+02 -0.14556755631E+03  0.24861652933E+03  0.30626535985E+03  0.91320317089E+02 0.  0.
        254    2    1    2    0    0  0.49588085480E+02  0.14556755631E+03 -0.98994455106E+03  0.13553486620E+04  0.91286959070E+03 0.  0.
         23    2    4    4    0    0  0.44506772122E+03 -0.79257521456E+02 -0.47620342673E+03  0.66292485607E+03  0.91283240466E+02 0.  0.
         23    2    4    4    0    0 -0.39547963574E+03  0.22482507777E+03 -0.51374112433E+03  0.69242380588E+03  0.92576056605E+02 0.  0.
          1    1    3    3  502    0 -0.67925509675E+02 -0.12255029857E+03  0.23553389996E+03  0.27405960770E+03  0.00000000000E+00 0. -1.
         -1    1    3    3    0  502  0.18337424194E+02 -0.23017257739E+02  0.13082629375E+02  0.32205752146E+02  0.00000000000E+00 0.  1.
         11    1    5    5    0    0  0.32020340996E+03 -0.75151217582E+02 -0.28883656689E+03  0.43772650323E+03  0.00000000000E+00 0. -1.
        -11    1    5    5    0    0  0.12486431125E+03 -0.41063038745E+01 -0.18736685984E+03  0.22519835284E+03  0.00000000000E+00 0.  1.
          1    1    6    6  503    0 -0.32331274060E+03  0.19371581516E+03 -0.47008537729E+03  0.60252569009E+03  0.00000000000E+00 0. -1.
         -1    1    6    6    0  503 -0.72166895140E+02  0.31109262612E+02 -0.43655747032E+02  0.89898115794E+02  0.00000000000E+00 0.  1.
<mgrwt>
<rscale>  0 0.14870756E+04</rscale>
<asrwt>0</asrwt>
<pdfrwt beam="1">  1        2 0.70791231E-01 0.14870756E+04</pdfrwt>
<pdfrwt beam="2">  1       -2 0.18484169E+00 0.14870756E+04</pdfrwt>
<totfact> 0.11000183E+01</totfact>
</mgrwt>
</event>
<event>
12    2  0.8147979E-008  0.2960832E+04  0.7818608E-02  0.8255005E-01
         -1   -1    0    0    0  501 -0.00000000000E+00  0.00000000000E+00  0.19908831305E+04  0.19908831305E+04  0.00000000000E+00 0.  1.
          1   -1    0    0  501    0  0.00000000000E+00 -0.00000000000E+00 -0.11008335241E+04  0.11008335241E+04  0.00000000000E+00 0. -1.
         23    2    1    2    0    0  0.43688740528E+03  0.70566768476E+03  0.15056868629E+04  0.17212389299E+04  0.82055093765E+02 0.  0.
        254    2    1    2    0    0 -0.43688740528E+03 -0.70566768476E+03 -0.61563725640E+03  0.13704777248E+04  0.90020135324E+03 0.  0.
         23    2    4    4    0    0 -0.69596342656E+03 -0.41267701813E+03 -0.33420875881E+03  0.87990919194E+03  0.88754037623E+02 0.  0.
         23    2    4    4    0    0  0.25907602129E+03 -0.29299066663E+03 -0.28142849759E+03  0.49056853281E+03  0.92149718341E+02 0.  0.
          3    1    3    3  502    0  0.33094621050E+03  0.56230445517E+03  0.11164592091E+04  0.12931329630E+04  0.00000000000E+00 0. -1.
         -3    1    3    3    0  502  0.10594119478E+03  0.14336322959E+03  0.38922765379E+03  0.42810596682E+03  0.00000000000E+00 0.  1.
         11    1    5    5    0    0 -0.49618657543E+03 -0.32754664966E+03 -0.21533056186E+03  0.63234102841E+03  0.00000000000E+00 0.  1.
        -11    1    5    5    0    0 -0.19977685113E+03 -0.85130368468E+02 -0.11887819695E+03  0.24756816353E+03  0.00000000000E+00 0. -1.
          4    1    6    6  503    0  0.18998144288E+01 -0.30911470042E+02 -0.59574416342E+01  0.31537586874E+02  0.00000000000E+00 0. -1.
         -4    1    6    6    0  503  0.25717620686E+03 -0.26207919659E+03 -0.27547105595E+03  0.45903094593E+03  0.00000000000E+00 0.  1.
<mgrwt>
<rscale>  0 0.29608316E+04</rscale>
<asrwt>0</asrwt>
<pdfrwt beam="1">  1        1 0.16935900E+00 0.29608316E+04</pdfrwt>
<pdfrwt beam="2">  1       -1 0.30628971E+00 0.29608316E+04</pdfrwt>
<totfact> 0.32494531E-01</totfact>
</mgrwt>
</event>
<event>
12    2  0.8147979E-008  0.1629063E+04  0.7818608E-02  0.8802890E-01
         -1   -1    0    0    0  501 -0.00000000000E+00  0.00000000000E+00  0.44430970070E+03  0.44430970070E+03  0.00000000000E+00 0.  1.
          1   -1    0    0  501    0  0.00000000000E+00 -0.00000000000E+00 -0.14932406586E+04  0.14932406586E+04  0.00000000000E+00 0. -1.
         23    2    1    2    0    0  0.55619029382E+02 -0.51312811282E+03 -0.63217873514E+03  0.82123278562E+03  0.91539054060E+02 0.  0.
        254    2    1    2    0    0 -0.55619029382E+02  0.51312811282E+03 -0.41675222278E+03  0.11163175737E+04  0.89782435562E+03 0.  0.
         23    2    4    4    0    0 -0.28611664301E+03 -0.95977266477E+02  0.36673585471E+02  0.31781129335E+03  0.92653641181E+02 0.  0.
         23    2    4    4    0    0  0.23049761363E+03  0.60910537929E+03 -0.45342580825E+03  0.79850628033E+03  0.88762622629E+02 0.  0.
          2    1    3    3  502    0 -0.12142005126E+02 -0.17099345576E+03 -0.16240629176E+03  0.23613977599E+03  0.00000000000E+00 0.  1.
         -2    1    3    3    0  502  0.67761034507E+02 -0.34213465706E+03 -0.46977244338E+03  0.58509300963E+03  0.00000000000E+00 0. -1.
         11    1    5    5    0    0 -0.18321525189E+01  0.11284001674E+02 -0.16772086461E+01  0.11554155333E+02  0.00000000000E+00 0. -1.
        -11    1    5    5    0    0 -0.28428449049E+03 -0.10726126815E+03  0.38350794117E+02  0.30625713802E+03  0.00000000000E+00 0.  1.
          3    1    6    6  503    0  0.94422032025E+02  0.17616727859E+03 -0.17800773848E+03  0.26765123788E+03  0.00000000000E+00 0. -1.
         -3    1    6    6    0  503  0.13607558160E+03  0.43293810070E+03 -0.27541806977E+03  0.53085504246E+03  0.00000000000E+00 0.  1.
<mgrwt>
<rscale>  0 0.16290627E+04</rscale>
<asrwt>0</asrwt>
<pdfrwt beam="1">  1        1 0.22972934E+00 0.16290627E+04</pdfrwt>
<pdfrwt beam="2">  1       -1 0.68355337E-01 0.16290627E+04</pdfrwt>
<totfact> 0.13712336E+01</totfact>
</mgrwt>
</event>
<event>
12    2  0.8147979E-008  0.2621289E+04  0.7818608E-02  0.8361006E-01
         -1   -1    0    0    0  501 -0.00000000000E+00  0.00000000000E+00  0.12135746175E+04  0.12135746175E+04  0.00000000000E+00 0.  1.
          1   -1    0    0  501    0  0.00000000000E+00 -0.00000000000E+00 -0.14154787104E+04  0.14154787104E+04  0.00000000000E+00 0. -1.
         23    2    1    2    0    0 -0.71011079172E+03  0.78821494319E+03  0.36659236230E+03  0.11260509610E+04  0.89781253098E+02 0.  0.
        254    2    1    2    0    0  0.71011079172E+03 -0.78821494319E+03 -0.56849645524E+03  0.15030023669E+04  0.90015985366E+03 0.  0.
         23    2    4    4    0    0  0.40467154369E+03  0.26389151121E+02 -0.46403365959E+03  0.62309585569E+03  0.92009578724E+02 0.  0.
         23    2    4    4    0    0  0.30543924804E+03 -0.81460409431E+03 -0.10446279565E+03  0.87990651123E+03  0.80312067050E+02 0.  0.
          3    1    3    3  502    0 -0.16034875508E+03  0.20749145148E+03  0.55768138591E+02  0.26809422033E+03  0.00000000000E+00 0. -1.
         -3    1    3    3    0  502 -0.54976203664E+03  0.58072349171E+03  0.31082422371E+03  0.85795674063E+03  0.00000000000E+00 0.  1.
         11    1    5    5    0    0  0.10357494114E+03  0.62641585298E+01 -0.63664833871E+02  0.12173832258E+03  0.00000000000E+00 0. -1.
        -11    1    5    5    0    0  0.30109660255E+03  0.20124992591E+02 -0.40036882572E+03  0.50135753311E+03  0.00000000000E+00 0.  1.
          2    1    6    6  503    0  0.24761285484E+03 -0.70333802173E+03 -0.11325261083E+03  0.75420332309E+03  0.00000000000E+00 0. -1.
         -2    1    6    6    0  503  0.57826393198E+02 -0.11126607258E+03  0.87898151808E+01  0.12570318814E+03  0.00000000000E+00 0.  1.
<mgrwt>
<rscale>  0 0.26212890E+04</rscale>
<asrwt>0</asrwt>
<pdfrwt beam="1">  1        1 0.21776596E+00 0.26212890E+04</pdfrwt>
<pdfrwt beam="2">  1       -1 0.18670379E+00 0.26212890E+04</pdfrwt>
<totfact> 0.12280012E+00</totfact>
</mgrwt>
</event>
<event>
12    2  0.8147979E-008  0.2291327E+04  0.7818608E-02  0.8481349E-01
         -2   -1    0    0    0  501 -0.00000000000E+00  0.00000000000E+00  0.15499714437E+04  0.15499714437E+04  0.00000000000E+00 0.  1.
          2   -1    0    0  501    0  0.00000000000E+00 -0.00000000000E+00 -0.84681867994E+03  0.84681867994E+03  0.00000000000E+00 0. -1.
         23    2    1    2    0    0  0.68152480739E+03  0.66306442600E+03  0.11356690171E+03  0.96060226935E+03  0.75688721806E+02 0.  0.
        254    2    1    2    0    0 -0.68152480739E+03 -0.66306442600E+03  0.58958586202E+03  0.14361878543E+04  0.90049628979E+03 0.  0.
         23    2    4    4    0    0 -0.31288006932E+03 -0.83161551339E+03  0.42807199447E+03  0.99056756718E+03  0.92196381682E+02 0.  0.
         23    2    4    4    0    0 -0.36864473807E+03  0.16855108739E+03  0.16151386755E+03  0.44562028709E+03  0.90456060543E+02 0.  0.
          1    1    3    3  502    0  0.16612818166E+03  0.12389465328E+03  0.40405213491E+02  0.21114222488E+03  0.00000000000E+00 0. -1.
         -1    1    3    3    0  502  0.51539662573E+03  0.53916977272E+03  0.73161688224E+02  0.74946004447E+03  0.00000000000E+00 0.  1.
         11    1    5    5    0    0 -0.63690383996E+02 -0.11048205234E+03  0.89783816542E+02  0.15596115740E+03  0.00000000000E+00 0. -1.
        -11    1    5    5    0    0 -0.24918968532E+03 -0.72113346105E+03  0.33828817793E+03  0.83460640978E+03  0.00000000000E+00 0.  1.
          3    1    6    6  503    0  0.34753923430E+01  0.62701940419E+01  0.99947344543E+01  0.12299935043E+02  0.00000000000E+00 0. -1.
         -3    1    6    6    0  503 -0.37212013041E+03  0.16228089335E+03  0.15151913310E+03  0.43332035205E+03  0.00000000000E+00 0.  1.
<mgrwt>
<rscale>  0 0.22913269E+04</rscale>
<asrwt>0</asrwt>
<pdfrwt beam="1">  1        2 0.13027980E+00 0.22913269E+04</pdfrwt>
<pdfrwt beam="2">  1       -2 0.23845714E+00 0.22913269E+04</pdfrwt>
<totfact> 0.21911779E+00</totfact>
</mgrwt>
</event>
<event>
12    2  0.8147979E-008  0.1344982E+04  0.7818608E-02  0.8994636E-01
         -1   -1    0    0    0  501 -0.00000000000E+00  0.00000000000E+00  0.33105799643E+03  0.33105799643E+03  0.00000000000E+00 0.  1.
          1   -1    0    0  501    0  0.00000000000E+00 -0.00000000000E+00 -0.13660565938E+04  0.13660565938E+04  0.00000000000E+00 0. -1.
         23    2    1    2    0    0  0.11971291329E+03 -0.33424075629E+03 -0.39200379728E+03  0.53516610590E+03  0.81778475470E+02 0.  0.
        254    2    1    2    0    0 -0.11971291329E+03  0.33424075629E+03 -0.64299480014E+03  0.11619484844E+04  0.90035209921E+03 0.  0.
         23    2    4    4    0    0  0.10383489419E+03 -0.93114054473E+02 -0.65088484993E+03  0.67162288428E+03  0.89298927316E+02 0.  0.
         23    2    4    4    0    0 -0.22354780748E+03  0.42735481076E+03  0.78900497954E+01  0.49032560009E+03  0.88040812777E+02 0.  0.
          4    1    3    3  502    0  0.93033122572E+02 -0.22203509520E+03 -0.31512265193E+03  0.39655646654E+03  0.00000000000E+00 0. -1.
         -4    1    3    3    0  502  0.26679790718E+02 -0.11220566109E+03 -0.76881145346E+02  0.13860963936E+03  0.00000000000E+00 0.  1.
         11    1    5    5    0    0  0.92312329864E+02 -0.71761825952E+02 -0.33521035330E+03  0.35501733319E+03  0.00000000000E+00 0. -1.
        -11    1    5    5    0    0  0.11522564326E+02 -0.21352228521E+02 -0.31567449664E+03  0.31660555109E+03  0.00000000000E+00 0.  1.
          2    1    6    6  503    0 -0.92749879763E+02  0.12912478231E+03 -0.32211234684E+02  0.16221378870E+03  0.00000000000E+00 0. -1.
         -2    1    6    6    0  503 -0.13079792772E+03  0.29823002845E+03  0.40101284479E+02  0.32811181140E+03  0.00000000000E+00 0.  1.
<mgrwt>
<rscale>  0 0.13449817E+04</rscale>
<asrwt>0</asrwt>
<pdfrwt beam="1">  1        1 0.21016255E+00 0.13449817E+04</pdfrwt>
<pdfrwt beam="2">  1       -1 0.50932000E-01 0.13449817E+04</pdfrwt>
<totfact> 0.30796683E+01</totfact>
</mgrwt>
</event>
<event>
12    2  0.8147979E-008  0.1344110E+04  0.7818608E-02  0.8995298E-01
         -2   -1    0    0    0  501 -0.00000000000E+00  0.00000000000E+00  0.21523451411E+03  0.21523451411E+03  0.00000000000E+00 0.  1.
          2   -1    0    0  501    0  0.00000000000E+00 -0.00000000000E+00 -0.20984471694E+04  0.20984471694E+04  0.00000000000E+00 0. -1.
         23    2    1    2    0    0  0.13161381749E+03 -0.17482455071E+03 -0.10256403521E+04  0.10527649128E+04  0.92141246295E+02 0.  0.
        254    2    1    2    0    0 -0.13161381749E+03  0.17482455071E+03 -0.85757230317E+03  0.12609167707E+04  0.89810635615E+03 0.  0.
         23    2    4    4    0    0  0.25373660730E+02  0.52001684351E+03 -0.42809257207E+03  0.68030880332E+03  0.92170914224E+02 0.  0.
         23    2    4    4    0    0 -0.15698747822E+03 -0.34519229280E+03 -0.42947973110E+03  0.58060796737E+03  0.94074358985E+02 0.  0.
          4    1    3    3  502    0  0.90979312477E+02 -0.10472144966E+03 -0.82151930121E+03  0.83314931409E+03  0.00000000000E+00 0. -1.
         -4    1    3    3    0  502  0.40634505008E+02 -0.70103101054E+02 -0.20412105087E+03  0.21961559868E+03  0.00000000000E+00 0.  1.
         11    1    5    5    0    0 -0.21463322721E+02  0.10629678266E+03 -0.56679742745E+02  0.12236124167E+03  0.00000000000E+00 0. -1.
        -11    1    5    5    0    0  0.46836983451E+02  0.41372006085E+03 -0.37141282932E+03  0.55794756165E+03  0.00000000000E+00 0.  1.
          1    1    6    6  503    0 -0.31218321044E+02 -0.15502114220E+03 -0.22038260095E+03  0.27124643573E+03  0.00000000000E+00 0. -1.
         -1    1    6    6    0  503 -0.12576915717E+03 -0.19017115060E+03 -0.20909713016E+03  0.30936153163E+03  0.00000000000E+00 0.  1.
<mgrwt>
<rscale>  0 0.13441105E+04</rscale>
<asrwt>0</asrwt>
<pdfrwt beam="1">  1        2 0.32283802E+00 0.13441105E+04</pdfrwt>
<pdfrwt beam="2">  1       -2 0.33113003E-01 0.13441105E+04</pdfrwt>
<totfact> 0.49048612E+01</totfact>
</mgrwt>
</event>
<event>
12    2  0.8147979E-008  0.3676031E+04  0.7818608E-02  0.8073295E-01
          2   -1    0    0  501    0  0.00000000000E+00  0.00000000000E+00  0.15352515064E+04  0.15352515064E+04  0.00000000000E+00 0. -1.
         -2   -1    0    0    0  501 -0.00000000000E+00 -0.00000000000E+00 -0.22004864997E+04  0.22004864997E+04  0.00000000000E+00 0.  1.
         23    2    1    2    0    0 -0.47469261855E+03 -0.16278133568E+04  0.21119240390E+02  0.16981687735E+04  0.90673889790E+02 0.  0.
        254    2    1    2    0    0  0.47469261855E+03  0.16278133568E+04 -0.68635423367E+03  0.20375692327E+04  0.89749475616E+03 0.  0.
         23    2    4    4    0    0  0.61418278132E+03  0.59398962619E+03 -0.42223206762E+03  0.95757114248E+03  0.92835387086E+02 0.  0.
         23    2    4    4    0    0 -0.13949016277E+03  0.10338237306E+04 -0.26412216605E+03  0.10799980902E+04  0.91576988527E+02 0.  0.
          4    1    3    3  502    0 -0.11052771965E+03 -0.43501907555E+03  0.42416659423E+02  0.45084048831E+03  0.00000000000E+00 0. -1.
         -4    1    3    3    0  502 -0.36416489890E+03 -0.11927942812E+04 -0.21297419033E+02  0.12473282852E+04  0.00000000000E+00 0.  1.
         11    1    5    5    0    0  0.42764710042E+03  0.41761325231E+03 -0.34175622475E+03  0.68853481259E+03  0.00000000000E+00 0.  1.
        -11    1    5    5    0    0  0.18653568091E+03  0.17637637388E+03 -0.80475842868E+02  0.26903632989E+03  0.00000000000E+00 0. -1.
          3    1    6    6  503    0 -0.85786395515E+02  0.60145000386E+03 -0.19999025787E+03  0.63960731394E+03  0.00000000000E+00 0. -1.
         -3    1    6    6    0  503 -0.53703767256E+02  0.43237372673E+03 -0.64131908181E+02  0.44039077627E+03  0.00000000000E+00 0.  1.
<mgrwt>
<rscale>  0 0.36760306E+04</rscale>
<asrwt>0</asrwt>
<pdfrwt beam="1">  1        2 0.23619254E+00 0.36760306E+04</pdfrwt>
<pdfrwt beam="2">  1       -2 0.33853638E+00 0.36760306E+04</pdfrwt>
<totfact> 0.18031096E-01</totfact>
</mgrwt>
</event>
<event>
12    2  0.8147979E-008  0.4542974E+04  0.7818608E-02  0.7903156E-01
          1   -1    0    0  501    0  0.00000000000E+00  0.00000000000E+00  0.33237163794E+04  0.33237163794E+04  0.00000000000E+00 0. -1.
         -1   -1    0    0    0  501 -0.00000000000E+00 -0.00000000000E+00 -0.15523748004E+04  0.15523748004E+04  0.00000000000E+00 0.  1.
         23    2    1    2    0    0  0.17654532846E+04  0.10945196396E+04  0.15665444565E+04  0.26032811127E+04  0.90622713124E+02 0.  0.
        254    2    1    2    0    0 -0.17654532846E+04 -0.10945196396E+04  0.20479712256E+03  0.22728100671E+04  0.89940268966E+03 0.  0.
         23    2    4    4    0    0 -0.14187086395E+04 -0.87508784768E+03 -0.20990091158E+03  0.16824768119E+04  0.90315474677E+02 0.  0.
         23    2    4    4    0    0 -0.34674464509E+03 -0.21943179192E+03  0.41469803415E+03  0.59033325520E+03  0.90203838412E+02 0.  0.
          2    1    3    3  502    0  0.78036552664E+03  0.44420097527E+03  0.71410576707E+03  0.11472715059E+04  0.00000000000E+00 0. -1.
         -2    1    3    3    0  502  0.98508775793E+03  0.65031866433E+03  0.85243868943E+03  0.14560096069E+04  0.00000000000E+00 0.  1.
         11    1    5    5    0    0 -0.11736712932E+04 -0.70194471737E+03 -0.14254287626E+03  0.13749724224E+04  0.00000000000E+00 0. -1.
        -11    1    5    5    0    0 -0.24503734626E+03 -0.17314313031E+03 -0.67358035318E+02  0.30750438949E+03  0.00000000000E+00 0.  1.
          1    1    6    6  503    0 -0.24704118958E+03 -0.19441357718E+03  0.34134766678E+03  0.46405195609E+03  0.00000000000E+00 0. -1.
         -1    1    6    6    0  503 -0.99703455516E+02 -0.25018214736E+02  0.73350367367E+02  0.12628129910E+03  0.00000000000E+00 0.  1.
<mgrwt>
<rscale>  0 0.45429742E+04</rscale>
<asrwt>0</asrwt>
<pdfrwt beam="1">  1        1 0.51134098E+00 0.45429742E+04</pdfrwt>
<pdfrwt beam="2">  1       -1 0.23882689E+00 0.45429742E+04</pdfrwt>
<totfact> 0.21149914E-02</totfact>
</mgrwt>
</event>
<event>
12    2  0.8147979E-008  0.1997365E+04  0.7818608E-02  0.8607853E-01
         -2   -1    0    0    0  501 -0.00000000000E+00  0.00000000000E+00  0.67560777762E+03  0.67560777762E+03  0.00000000000E+00 0.  1.
          2   -1    0    0  501    0  0.00000000000E+00 -0.00000000000E+00 -0.14762517996E+04  0.14762517996E+04  0.00000000000E+00 0. -1.
         23    2    1    2    0    0 -0.35240775591E+03  0.19471041648E+03 -0.10555695245E+04  0.11327818220E+04  0.82850845131E+02 0.  0.
        254    2    1    2    0    0  0.35240775591E+03 -0.19471041648E+03  0.25492550248E+03  0.10190777552E+04  0.90079358717E+03 0.  0.
         23    2    4    4    0    0  0.25613669210E+03 -0.54415764668E+03  0.21385237792E+03  0.64478053601E+03  0.91079913260E+02 0.  0.
         23    2    4    4    0    0  0.96271063812E+02  0.34944723020E+03  0.41073124557E+02  0.37429721922E+03  0.83844632110E+02 0.  0.
          3    1    3    3  502    0 -0.28452604793E+03  0.12031356753E+03 -0.83484544642E+03  0.89016703258E+03  0.00000000000E+00 0. -1.
         -3    1    3    3    0  502 -0.67881707983E+02  0.74396848946E+02 -0.22072407803E+03  0.24261478940E+03  0.00000000000E+00 0.  1.
         11    1    5    5    0    0  0.15136602232E+03 -0.37699292268E+03  0.10559001656E+03  0.41974347888E+03  0.00000000000E+00 0.  1.
        -11    1    5    5    0    0  0.10477066978E+03 -0.16716472400E+03  0.10826236137E+03  0.22503705714E+03  0.00000000000E+00 0. -1.
          1    1    6    6  503    0  0.10186633834E+03  0.24192612468E+03  0.11987805739E+02  0.26277120880E+03  0.00000000000E+00 0. -1.
         -1    1    6    6    0  503 -0.55952745241E+01  0.10752110552E+03  0.29085318818E+02  0.11152601042E+03  0.00000000000E+00 0.  1.
<mgrwt>
<rscale>  0 0.19973655E+04</rscale>
<asrwt>0</asrwt>
<pdfrwt beam="1">  1        2 0.22711566E+00 0.19973655E+04</pdfrwt>
<pdfrwt beam="2">  1       -2 0.10393966E+00 0.19973655E+04</pdfrwt>
<totfact> 0.91652724E+00</totfact>
</mgrwt>
</event>
<event>
12    2  0.8147979E-008  0.1349741E+04  0.7818608E-02  0.8991024E-01
          2   -1    0    0  501    0  0.00000000000E+00  0.00000000000E+00  0.15458744637E+04  0.15458744637E+04  0.00000000000E+00 0. -1.
         -2   -1    0    0    0  501 -0.00000000000E+00 -0.00000000000E+00 -0.29462321275E+03  0.29462321275E+03  0.00000000000E+00 0.  1.
         23    2    1    2    0    0 -0.36016111846E+03  0.18133767151E+02  0.25569520164E+03  0.45148780415E+03  0.91740592961E+02 0.  0.
        254    2    1    2    0    0  0.36016111846E+03 -0.18133767151E+02  0.99555604927E+03  0.13890098723E+04  0.89898371133E+03 0.  0.
         23    2    4    4    0    0  0.38027986913E+02 -0.18669800589E+03 -0.98219832659E+02  0.23316889495E+03  0.91751429708E+02 0.  0.
         23    2    4    4    0    0  0.32213313155E+03  0.16856423874E+03  0.10937758819E+04  0.11558409773E+04  0.86249799532E+02 0.  0.
          2    1    3    3  502    0 -0.12613372323E+03 -0.24624590780E+02  0.12841950208E+03  0.18168009005E+03  0.00000000000E+00 0. -1.
         -2    1    3    3    0  502 -0.23402739523E+03  0.42758357931E+02  0.12727569956E+03  0.26980771410E+03  0.00000000000E+00 0.  1.
         11    1    5    5    0    0 -0.19836529760E+02 -0.39484351018E+02 -0.52286054351E+02  0.68456799281E+02  0.00000000000E+00 0. -1.
        -11    1    5    5    0    0  0.57864516673E+02 -0.14721365487E+03 -0.45933778309E+02  0.16471209567E+03  0.00000000000E+00 0.  1.
          1    1    6    6  503    0  0.14757945579E+02 -0.83563171272E+01  0.81200743666E+02  0.82952912941E+02  0.00000000000E+00 0. -1.
         -1    1    6    6    0  503  0.30737518597E+03  0.17692055586E+03  0.10125751383E+04  0.10728880644E+04  0.00000000000E+00 0.  1.
<mgrwt>
<rscale>  0 0.13497415E+04</rscale>
<asrwt>0</asrwt>
<pdfrwt beam="1">  1        2 0.23782684E+00 0.13497415E+04</pdfrwt>
<pdfrwt beam="2">  1       -2 0.45326649E-01 0.13497415E+04</pdfrwt>
<totfact> 0.53907648E+01</totfact>
</mgrwt>
</event>
<event>
12    2  0.8147979E-008  0.3036750E+04  0.7818608E-02  0.8233314E-01
         -2   -1    0    0    0  501 -0.00000000000E+00  0.00000000000E+00  0.25684445562E+04  0.25684445562E+04  0.00000000000E+00 0.  1.
          2   -1    0    0  501    0  0.00000000000E+00 -0.00000000000E+00 -0.89761064829E+03  0.89761064829E+03  0.00000000000E+00 0. -1.
         23    2    1    2    0    0 -0.57088971887E+03  0.60547530023E+03 -0.49757492318E+03  0.97425186147E+03  0.95239041977E+02 0.  0.
        254    2    1    2    0    0  0.57088971887E+03 -0.60547530023E+03  0.21684088311E+04  0.24918033431E+04  0.90253622157E+03 0.  0.
         23    2    4    4    0    0  0.95922326227E+01 -0.67244986766E+02 -0.60738330390E+02  0.12911182044E+03  0.91470313358E+02 0.  0.
         23    2    4    4    0    0  0.56129748625E+03 -0.53823031346E+03  0.22291471615E+04  0.23626915226E+04  0.92018611998E+02 0.  0.
          2    1    3    3  502    0 -0.37888939185E+03  0.43845813782E+03 -0.30306425709E+03  0.65395003923E+03  0.00000000000E+00 0.  1.
         -2    1    3    3    0  502 -0.19200032701E+03  0.16701716240E+03 -0.19451066609E+03  0.32030182225E+03  0.00000000000E+00 0. -1.
         11    1    5    5    0    0  0.17561398787E+02 -0.75225573298E+02 -0.77164658344E+02  0.10918641904E+03  0.00000000000E+00 0.  1.
        -11    1    5    5    0    0 -0.79691661648E+01  0.79805865318E+01  0.16426327954E+02  0.19925401396E+02  0.00000000000E+00 0. -1.
          2    1    6    6  503    0  0.51853578936E+03 -0.49475700816E+03  0.19657596601E+04  0.20923371868E+04  0.00000000000E+00 0. -1.
         -2    1    6    6    0  503  0.42761696883E+02 -0.43473305299E+02  0.26338750144E+03  0.27035433584E+03  0.00000000000E+00 0.  1.
<mgrwt>
<rscale>  0 0.30367504E+04</rscale>
<asrwt>0</asrwt>
<pdfrwt beam="1">  1        2 0.13809395E+00 0.30367504E+04</pdfrwt>
<pdfrwt beam="2">  1       -2 0.39514531E+00 0.30367504E+04</pdfrwt>
<totfact> 0.20041903E-01</totfact>
</mgrwt>
</event>
<event>
12    2  0.8147979E-008  0.1752211E+04  0.7818608E-02  0.8732134E-01
         -2   -1    0    0    0  501 -0.00000000000E+00  0.00000000000E+00  0.11217733106E+04  0.11217733106E+04  0.00000000000E+00 0.  1.
          2   -1    0    0  501    0  0.00000000000E+00 -0.00000000000E+00 -0.68423884129E+03  0.68423884129E+03  0.00000000000E+00 0. -1.
         23    2    1    2    0    0  0.13351907726E+03 -0.42860009739E+03  0.62728214516E+03  0.77677569856E+03  0.91499774663E+02 0.  0.
        254    2    1    2    0    0 -0.13351907726E+03  0.42860009739E+03 -0.18974767584E+03  0.10292364534E+04  0.90653080971E+03 0.  0.
         23    2    4    4    0    0 -0.87044180716E+02 -0.82264862185E+02 -0.42958571746E+03  0.45552078212E+03  0.92795998593E+02 0.  0.
         23    2    4    4    0    0 -0.46474896541E+02  0.51086495957E+03  0.23983804162E+03  0.57371567123E+03  0.92111140927E+02 0.  0.
          1    1    3    3  502    0  0.55270660440E+02 -0.70403002547E+02  0.95911611241E+02  0.13118866507E+03  0.00000000000E+00 0. -1.
         -1    1    3    3    0  502  0.78248416817E+02 -0.35819709484E+03  0.53137053392E+03  0.64558703348E+03  0.00000000000E+00 0.  1.
         11    1    5    5    0    0 -0.40720432074E+02 -0.95090006576E+02 -0.29231630378E+03  0.31007915827E+03  0.00000000000E+00 0. -1.
        -11    1    5    5    0    0 -0.46323748642E+02  0.12825144391E+02 -0.13726941368E+03  0.14544162385E+03  0.00000000000E+00 0.  1.
          2    1    6    6  503    0 -0.38221207393E+02  0.39140884383E+03  0.13881143850E+03  0.41704958840E+03  0.00000000000E+00 0. -1.
         -2    1    6    6    0  503 -0.82536891482E+01  0.11945611574E+03  0.10102660312E+03  0.15666608283E+03  0.00000000000E+00 0.  1.
<mgrwt>
<rscale>  0 0.17522110E+04</rscale>
<asrwt>0</asrwt>
<pdfrwt beam="1">  1        2 0.10526751E+00 0.17522110E+04</pdfrwt>
<pdfrwt beam="2">  1       -2 0.17258051E+00 0.17522110E+04</pdfrwt>
<totfact> 0.81599504E+00</totfact>
</mgrwt>
</event>
<event>
12    2  0.8147979E-008  0.2332552E+04  0.7818608E-02  0.8465196E-01
         -2   -1    0    0    0  501 -0.00000000000E+00  0.00000000000E+00  0.35479742805E+03  0.35479742805E+03  0.00000000000E+00 0.  1.
          2   -1    0    0  501    0  0.00000000000E+00 -0.00000000000E+00 -0.38337351243E+04  0.38337351243E+04  0.00000000000E+00 0. -1.
         23    2    1    2    0    0  0.48428304433E+03 -0.83469078967E+03 -0.10911311358E+04  0.14595252663E+04  0.91695506606E+02 0.  0.
        254    2    1    2    0    0 -0.48428304433E+03  0.83469078967E+03 -0.23878065604E+04  0.27290072861E+04  0.90256402324E+03 0.  0.
         23    2    4    4    0    0  0.21878966977E+03  0.12902265346E+03 -0.86901132091E+03  0.91031823279E+03  0.94777868590E+02 0.  0.
         23    2    4    4    0    0 -0.70307271410E+03  0.70566813622E+03 -0.15187952395E+04  0.18186890533E+04  0.92801579678E+02 0.  0.
          1    1    3    3  502    0  0.19541077694E+03 -0.42272739187E+03 -0.50120481209E+03  0.68417109208E+03  0.00000000000E+00 0. -1.
         -1    1    3    3    0  502  0.28887226739E+03 -0.41196339780E+03 -0.58992632374E+03  0.77535417419E+03  0.00000000000E+00 0.  1.
         11    1    5    5    0    0  0.73559858219E+02  0.10711281153E+02 -0.36801734715E+03  0.37544979970E+03  0.00000000000E+00 0.  1.
        -11    1    5    5    0    0  0.14522981155E+03  0.11831137230E+03 -0.50099397375E+03  0.53486843309E+03  0.00000000000E+00 0. -1.
          3    1    6    6  503    0 -0.12483270106E+02 -0.37953291829E+00 -0.24619364713E+02  0.27605963064E+02  0.00000000000E+00 0. -1.
         -3    1    6    6    0  503 -0.69058944399E+03  0.70604766914E+03 -0.14941758748E+04  0.17910830902E+04  0.00000000000E+00 0.  1.
<mgrwt>
<rscale>  0 0.23325517E+04</rscale>
<asrwt>0</asrwt>
<pdfrwt beam="1">  1        2 0.58980540E+00 0.23325517E+04</pdfrwt>
<pdfrwt beam="2">  1       -2 0.54584220E-01 0.23325517E+04</pdfrwt>
<totfact> 0.13273552E+00</totfact>
</mgrwt>
</event>
<event>
12    2  0.8147979E-008  0.1541430E+04  0.7818608E-02  0.8857360E-01
         -1   -1    0    0    0  501 -0.00000000000E+00  0.00000000000E+00  0.58461204216E+03  0.58461204216E+03  0.00000000000E+00 0.  1.
          1   -1    0    0  501    0  0.00000000000E+00 -0.00000000000E+00 -0.10160613702E+04  0.10160613702E+04  0.00000000000E+00 0. -1.
         23    2    1    2    0    0 -0.30775783756E+03 -0.12208056332E+03  0.24873229052E+03  0.42421255094E+03  0.92032524161E+02 0.  0.
        254    2    1    2    0    0  0.30775783756E+03  0.12208056332E+03 -0.68018161856E+03  0.11764608614E+04  0.90099643379E+03 0.  0.
         23    2    4    4    0    0  0.53141120865E+03 -0.18055575353E+03 -0.34149294020E+03  0.66349396976E+03  0.92782363013E+02 0.  0.
         23    2    4    4    0    0 -0.22365337109E+03  0.30263631686E+03 -0.33868867836E+03  0.51296689166E+03  0.82555680652E+02 0.  0.
          2    1    3    3  502    0 -0.15510704836E+03 -0.33491566896E+02  0.71355443092E+02  0.17398701320E+03  0.00000000000E+00 0. -1.
         -2    1    3    3    0  502 -0.15265078921E+03 -0.88588996427E+02  0.17737684743E+03  0.25022553774E+03  0.00000000000E+00 0.  1.
         11    1    5    5    0    0  0.25446665416E+03 -0.42822882553E+02 -0.17950957042E+03  0.31434179363E+03  0.00000000000E+00 0.  1.
        -11    1    5    5    0    0  0.27694455450E+03 -0.13773287098E+03 -0.16198336977E+03  0.34915217613E+03  0.00000000000E+00 0. -1.
          2    1    6    6  503    0 -0.65295991898E+02  0.51822381235E+02 -0.11211737009E+03  0.13971195522E+03  0.00000000000E+00 0. -1.
         -2    1    6    6    0  503 -0.15835737919E+03  0.25081393562E+03 -0.22657130827E+03  0.37325493644E+03  0.00000000000E+00 0.  1.
<mgrwt>
<rscale>  0 0.15414301E+04</rscale>
<asrwt>0</asrwt>
<pdfrwt beam="1">  1        1 0.15631713E+00 0.15414301E+04</pdfrwt>
<pdfrwt beam="2">  1       -1 0.89940315E-01 0.15414301E+04</pdfrwt>
<totfact> 0.17149341E+01</totfact>
</mgrwt>
</event>
<event>
12    2  0.8147979E-008  0.3101284E+04  0.7818608E-02  0.8215386E-01
         -1   -1    0    0    0  501 -0.00000000000E+00  0.00000000000E+00  0.19087094385E+04  0.19087094385E+04  0.00000000000E+00 0.  1.
          1   -1    0    0  501    0  0.00000000000E+00 -0.00000000000E+00 -0.12597470978E+04  0.12597470978E+04  0.00000000000E+00 0. -1.
         23    2    1    2    0    0 -0.10331384184E+02 -0.12717230476E+04  0.94020429017E+03  0.15841112935E+04  0.89656207181E+02 0.  0.
        254    2    1    2    0    0  0.10331384184E+02  0.12717230476E+04 -0.29124194945E+03  0.15843452428E+04  0.89885578822E+03 0.  0.
         23    2    4    4    0    0  0.38256729101E+03  0.61235910971E+03  0.87482440771E+02  0.73293779318E+03  0.90571628211E+02 0.  0.
         23    2    4    4    0    0 -0.37223590683E+03  0.65936393790E+03 -0.37872439022E+03  0.85140744964E+03  0.90233633524E+02 0.  0.
          2    1    3    3  502    0  0.34640499485E+01 -0.10504615828E+04  0.73543187905E+03  0.12823188314E+04  0.00000000000E+00 0. -1.
         -2    1    3    3    0  502 -0.13795434132E+02 -0.22126146480E+03  0.20477241112E+03  0.30179246208E+03  0.00000000000E+00 0.  1.
         11    1    5    5    0    0  0.16349610467E+03  0.19277808867E+03  0.73978220678E+01  0.25288158392E+03  0.00000000000E+00 0.  1.
        -11    1    5    5    0    0  0.21907118634E+03  0.41958102104E+03  0.80084618703E+02  0.48005620927E+03  0.00000000000E+00 0. -1.
          4    1    6    6  503    0 -0.24388486508E+03  0.34082201760E+03 -0.20549381576E+03  0.46676244858E+03  0.00000000000E+00 0. -1.
         -4    1    6    6    0  503 -0.12835104175E+03  0.31854192030E+03 -0.17323057447E+03  0.38464500106E+03  0.00000000000E+00 0.  1.
<mgrwt>
<rscale>  0 0.31012844E+04</rscale>
<asrwt>0</asrwt>
<pdfrwt beam="1">  1        1 0.19380725E+00 0.31012844E+04</pdfrwt>
<pdfrwt beam="2">  1       -1 0.29364761E+00 0.31012844E+04</pdfrwt>
<totfact> 0.29617115E-01</totfact>
</mgrwt>
</event>
<event>
12    2  0.8147979E-008  0.2608373E+04  0.7818608E-02  0.8365363E-01
         -1   -1    0    0    0  501 -0.00000000000E+00  0.00000000000E+00  0.72485086901E+03  0.72485086901E+03  0.00000000000E+00 0.  1.
          1   -1    0    0  501    0  0.00000000000E+00 -0.00000000000E+00 -0.23465542967E+04  0.23465542967E+04  0.00000000000E+00 0. -1.
         23    2    1    2    0    0  0.14687141892E+03  0.20279391631E+03  0.60337854426E+03  0.65947240727E+03  0.90230826723E+02 0.  0.
        254    2    1    2    0    0 -0.14687141892E+03 -0.20279391631E+03 -0.22250819720E+04  0.24119327585E+04  0.89651171947E+03 0.  0.
         23    2    4    4    0    0 -0.97044877293E+02 -0.65111122320E+02  0.28276706385E+02  0.15192648578E+03  0.92870439310E+02 0.  0.
         23    2    4    4    0    0 -0.49826541630E+02 -0.13768279399E+03 -0.22533586784E+04  0.22600062727E+04  0.92540711160E+02 0.  0.
          4    1    3    3  502    0  0.76206055303E+01  0.65377188496E+02  0.21097479775E+03  0.22100365537E+03  0.00000000000E+00 0. -1.
         -4    1    3    3    0  502  0.13925081339E+03  0.13741672781E+03  0.39240374651E+03  0.43846875190E+03  0.00000000000E+00 0.  1.
         11    1    5    5    0    0 -0.41997329370E+02  0.10021954051E+02 -0.19351140103E+02  0.47314710826E+02  0.00000000000E+00 0. -1.
        -11    1    5    5    0    0 -0.55047547923E+02 -0.75133076370E+02  0.47627846488E+02  0.10461177495E+03  0.00000000000E+00 0.  1.
          1    1    6    6  503    0 -0.21259449744E+02 -0.68856606894E+02 -0.51118367433E+03  0.51623826420E+03  0.00000000000E+00 0. -1.
         -1    1    6    6    0  503 -0.28567091886E+02 -0.68826187095E+02 -0.17421750040E+04  0.17437680085E+04  0.00000000000E+00 0.  1.
<mgrwt>
<rscale>  0 0.26083726E+04</rscale>
<asrwt>0</asrwt>
<pdfrwt beam="1">  1        1 0.36100836E+00 0.26083726E+04</pdfrwt>
<pdfrwt beam="2">  1       -1 0.11151552E+00 0.26083726E+04</pdfrwt>
<totfact> 0.11239199E+00</totfact>
</mgrwt>
</event>
<event>
12    2  0.8147979E-008  0.2570554E+04  0.7818608E-02  0.8378273E-01
         -1   -1    0    0    0  501 -0.00000000000E+00  0.00000000000E+00  0.12760091055E+04  0.12760091055E+04  0.00000000000E+00 0.  1.
          1   -1    0    0  501    0  0.00000000000E+00 -0.00000000000E+00 -0.12946119389E+04  0.12946119389E+04  0.00000000000E+00 0. -1.
         23    2    1    2    0    0 -0.39635869675E+03  0.60289658150E+03 -0.87202306915E+03  0.11356255195E+04  0.92933217583E+02 0.  0.
        254    2    1    2    0    0  0.39635869675E+03 -0.60289658150E+03  0.85342023574E+03  0.14349955249E+04  0.90016751403E+03 0.  0.
         23    2    4    4    0    0  0.66900393458E+03 -0.46130835287E+03  0.70385951387E+03  0.10789892782E+04  0.91804065234E+02 0.  0.
         23    2    4    4    0    0 -0.27264523784E+03 -0.14158822863E+03  0.14956072187E+03  0.35600624668E+03  0.99946915648E+02 0.  0.
          1    1    3    3  502    0 -0.18728834230E+03  0.34495024689E+03 -0.52282405296E+03  0.65376799122E+03  0.00000000000E+00 0. -1.
         -1    1    3    3    0  502 -0.20907035445E+03  0.25794633461E+03 -0.34919901619E+03  0.48185752827E+03  0.00000000000E+00 0.  1.
         11    1    5    5    0    0  0.49835370260E+03 -0.35624579671E+03  0.47779312857E+03  0.77688722108E+03  0.00000000000E+00 0.  1.
        -11    1    5    5    0    0  0.17065023198E+03 -0.10506255616E+03  0.22606638530E+03  0.30210205717E+03  0.00000000000E+00 0. -1.
          3    1    6    6  503    0 -0.46072890247E+02 -0.50207198167E+02 -0.25947116353E+01  0.68192422540E+02  0.00000000000E+00 0. -1.
         -3    1    6    6    0  503 -0.22657234759E+03 -0.91381030466E+02  0.15215543351E+03  0.28781382414E+03  0.00000000000E+00 0.  1.
<mgrwt>
<rscale>  0 0.25705537E+04</rscale>
<asrwt>0</asrwt>
<pdfrwt beam="1">  1        1 0.19917107E+00 0.25705537E+04</pdfrwt>
<pdfrwt beam="2">  1       -1 0.19630909E+00 0.25705537E+04</pdfrwt>
<totfact> 0.12864511E+00</totfact>
</mgrwt>
</event>
<event>
12    2  0.8147979E-008  0.1914516E+04  0.7818608E-02  0.8647664E-01
          1   -1    0    0  501    0  0.00000000000E+00  0.00000000000E+00  0.19617619692E+04  0.19617619692E+04  0.00000000000E+00 0. -1.
         -1   -1    0    0    0  501 -0.00000000000E+00 -0.00000000000E+00 -0.46710207346E+03  0.46710207346E+03  0.00000000000E+00 0.  1.
         23    2    1    2    0    0 -0.54131294750E+03  0.50310043599E+03  0.67173014702E+03  0.10024749649E+04  0.87206129907E+02 0.  0.
        254    2    1    2    0    0  0.54131294750E+03 -0.50310043599E+03  0.82292974869E+03  0.14263890777E+04  0.90069010978E+03 0.  0.
         23    2    4    4    0    0  0.75043993148E+03 -0.35607875359E+03  0.79523557837E+03  0.11535674271E+04  0.91465918762E+02 0.  0.
         23    2    4    4    0    0 -0.20912698398E+03 -0.14702168239E+03  0.27694170315E+02  0.27282165056E+03  0.91187803046E+02 0.  0.
          1    1    3    3  502    0 -0.32566148998E+03  0.35919403134E+03  0.43342114365E+03  0.65033041292E+03  0.00000000000E+00 0. -1.
         -1    1    3    3    0  502 -0.21565145752E+03  0.14390640464E+03  0.23830900337E+03  0.35214455202E+03  0.00000000000E+00 0.  1.
         11    1    5    5    0    0  0.42741602422E+03 -0.24674288503E+03  0.44094636393E+03  0.66181583914E+03  0.00000000000E+00 0.  1.
        -11    1    5    5    0    0  0.32302390726E+03 -0.10933586856E+03  0.35428921444E+03  0.49175158799E+03  0.00000000000E+00 0. -1.
          4    1    6    6  503    0 -0.27700454525E+02 -0.29510414543E+02  0.39215540587E+02  0.56356351647E+02  0.00000000000E+00 0. -1.
         -4    1    6    6    0  503 -0.18142652946E+03 -0.11751126785E+03 -0.11521370273E+02  0.21646529892E+03  0.00000000000E+00 0.  1.
<mgrwt>
<rscale>  0 0.19145162E+04</rscale>
<asrwt>0</asrwt>
<pdfrwt beam="1">  1        1 0.30180953E+00 0.19145162E+04</pdfrwt>
<pdfrwt beam="2">  1       -1 0.71861859E-01 0.19145162E+04</pdfrwt>
<totfact> 0.57773949E+00</totfact>
</mgrwt>
</event>
<event>
12    2  0.8147979E-008  0.1858809E+04  0.7818608E-02  0.8675636E-01
          2   -1    0    0  501    0  0.00000000000E+00  0.00000000000E+00  0.18519548284E+04  0.18519548284E+04  0.00000000000E+00 0. -1.
         -2   -1    0    0    0  501 -0.00000000000E+00 -0.00000000000E+00 -0.46642231732E+03  0.46642231732E+03  0.00000000000E+00 0.  1.
         23    2    1    2    0    0  0.13100516923E+03 -0.56162151043E+03  0.10436629814E+04  0.11966113647E+04  0.10032578938E+03 0.  0.
        254    2    1    2    0    0 -0.13100516923E+03  0.56162151043E+03  0.34186952966E+03  0.11217657810E+04  0.89939013605E+03 0.  0.
         23    2    4    4    0    0  0.35087120283E+03  0.36553584713E+03  0.28983096184E+03  0.59106366645E+03  0.92882801648E+02 0.  0.
         23    2    4    4    0    0 -0.48187637206E+03  0.19608566329E+03  0.52038567823E+02  0.53070211457E+03  0.91007123733E+02 0.  0.
          4    1    3    3  502    0 -0.10506739507E+02 -0.91750329017E+02  0.20684051578E+03  0.22652044812E+03  0.00000000000E+00 0. -1.
         -4    1    3    3    0  502  0.14151190874E+03 -0.46987118141E+03  0.83682246567E+03  0.97009091661E+03  0.00000000000E+00 0.  1.
         11    1    5    5    0    0  0.72034304607E+02  0.13210158710E+03  0.10189842232E+03  0.18172247749E+03  0.00000000000E+00 0. -1.
        -11    1    5    5    0    0  0.27883689822E+03  0.23343426003E+03  0.18793253952E+03  0.40934118896E+03  0.00000000000E+00 0.  1.
          4    1    6    6  503    0 -0.39241422184E+03  0.11984963310E+03  0.47844929105E+02  0.41308836015E+03  0.00000000000E+00 0. -1.
         -4    1    6    6    0  503 -0.89462150223E+02  0.76236030194E+02  0.41936387183E+01  0.11761375442E+03  0.00000000000E+00 0.  1.
<mgrwt>
<rscale>  0 0.18588094E+04</rscale>
<asrwt>0</asrwt>
<pdfrwt beam="1">  1        2 0.28491612E+00 0.18588094E+04</pdfrwt>
<pdfrwt beam="2">  1       -2 0.71757281E-01 0.18588094E+04</pdfrwt>
<totfact> 0.13356172E+01</totfact>
</mgrwt>
</event>
<event>
12    2  0.8147979E-008  0.1676965E+04  0.7818608E-02  0.8774612E-01
          2   -1    0    0  501    0  0.00000000000E+00  0.00000000000E+00  0.72665725002E+03  0.72665725002E+03  0.00000000000E+00 0.  1.
         -2   -1    0    0    0  501 -0.00000000000E+00 -0.00000000000E+00 -0.96751637679E+03  0.96751637679E+03  0.00000000000E+00 0. -1.
         23    2    1    2    0    0 -0.92599017863E+02 -0.35972362256E+03  0.38065141958E+03  0.53978025641E+03  0.92149656765E+02 0.  0.
        254    2    1    2    0    0  0.92599017863E+02  0.35972362256E+03 -0.62151054635E+03  0.11543933704E+04  0.89909567438E+03 0.  0.
         23    2    4    4    0    0 -0.27608826912E+03 -0.15452531418E+03 -0.26441474790E+03  0.42180067615E+03  0.88869828566E+02 0.  0.
         23    2    4    4    0    0  0.36868728698E+03  0.51424893674E+03 -0.35709579845E+03  0.73259269425E+03  0.93767595046E+02 0.  0.
          1    1    3    3  502    0 -0.24832555978E+01 -0.18745872366E+03  0.16919453145E+03  0.25253460972E+03  0.00000000000E+00 0. -1.
         -1    1    3    3    0  502 -0.90115762265E+02 -0.17226489889E+03  0.21145688813E+03  0.28724564668E+03  0.00000000000E+00 0.  1.
         11    1    5    5    0    0 -0.96122848562E+02 -0.94599981263E+02 -0.14312959003E+03  0.19665919255E+03  0.00000000000E+00 0.  1.
        -11    1    5    5    0    0 -0.17996542056E+03 -0.59925332918E+02 -0.12128515787E+03  0.22514148361E+03  0.00000000000E+00 0. -1.
          2    1    6    6  503    0  0.24899842668E+03  0.36507735917E+03 -0.19985005264E+03  0.48499663732E+03  0.00000000000E+00 0.  1.
         -2    1    6    6    0  503  0.11968886031E+03  0.14917157757E+03 -0.15724574581E+03  0.24759605694E+03  0.00000000000E+00 0. -1.
<mgrwt>
<rscale>  0 0.16769649E+04</rscale>
<asrwt>0</asrwt>
<pdfrwt beam="1">  1        2 0.11179342E+00 0.16769649E+04</pdfrwt>
<pdfrwt beam="2">  1       -2 0.14884867E+00 0.16769649E+04</pdfrwt>
<totfact> 0.11381704E+01</totfact>
</mgrwt>
</event>
<event>
12    2  0.8147979E-008  0.1344230E+04  0.7818608E-02  0.8995208E-01
          2   -1    0    0  501    0  0.00000000000E+00  0.00000000000E+00  0.16947797464E+04  0.16947797464E+04  0.00000000000E+00 0. -1.
         -2   -1    0    0    0  501 -0.00000000000E+00 -0.00000000000E+00 -0.26654702524E+03  0.26654702524E+03  0.00000000000E+00 0.  1.
         23    2    1    2    0    0 -0.25165209134E+03 -0.13005632580E+03  0.72505748132E+03  0.78370207476E+03  0.90758844249E+02 0.  0.
        254    2    1    2    0    0  0.25165209134E+03  0.13005632580E+03  0.70317523988E+03  0.11776246969E+04  0.90116651393E+03 0.  0.
         23    2    4    4    0    0  0.14917522445E+03 -0.25330504166E+03  0.70647693828E+03  0.77061317811E+03  0.91204792892E+02 0.  0.
         23    2    4    4    0    0  0.10247686689E+03  0.38336136746E+03 -0.33016983951E+01  0.40701151880E+03  0.90443512270E+02 0.  0.
          3    1    3    3  502    0 -0.19272265526E+03 -0.60463849779E+02  0.55709153438E+03  0.59257816080E+03  0.00000000000E+00 0. -1.
         -3    1    3    3    0  502 -0.58929436075E+02 -0.69592476025E+02  0.16796594695E+03  0.19112391396E+03  0.00000000000E+00 0.  1.
         11    1    5    5    0    0  0.76202821177E+02 -0.53516456937E+02  0.25703659282E+03  0.27338378000E+03  0.00000000000E+00 0.  1.
        -11    1    5    5    0    0  0.72972403272E+02 -0.19978858472E+03  0.44944034545E+03  0.49722939811E+03  0.00000000000E+00 0. -1.
          3    1    6    6  503    0  0.10239699685E+03  0.24084211771E+03  0.20543770042E+02  0.26251117522E+03  0.00000000000E+00 0. -1.
         -3    1    6    6    0  503  0.79870035718E-01  0.14251924975E+03 -0.23845468437E+02  0.14450034358E+03  0.00000000000E+00 0.  1.
<mgrwt>
<rscale>  0 0.13442299E+04</rscale>
<asrwt>0</asrwt>
<pdfrwt beam="1">  1        2 0.26073534E+00 0.13442299E+04</pdfrwt>
<pdfrwt beam="2">  1       -2 0.41007236E-01 0.13442299E+04</pdfrwt>
<totfact> 0.54327969E+01</totfact>
</mgrwt>
</event>
<event>
12    2  0.8147979E-008  0.1882378E+04  0.7818608E-02  0.8663678E-01
         -1   -1    0    0    0  501 -0.00000000000E+00  0.00000000000E+00  0.44338962117E+03  0.44338962117E+03  0.00000000000E+00 0.  1.
          1   -1    0    0  501    0  0.00000000000E+00 -0.00000000000E+00 -0.19978749016E+04  0.19978749016E+04  0.00000000000E+00 0. -1.
         23    2    1    2    0    0  0.46035402213E+03  0.45432047446E+02  0.11624789262E+03  0.48882892815E+03  0.10700584954E+03 0.  0.
        254    2    1    2    0    0 -0.46035402213E+03 -0.45432047446E+02 -0.16707331730E+04  0.19524355946E+04  0.89814560011E+03 0.  0.
         23    2    4    4    0    0 -0.47289217382E+03  0.30088734498E+03 -0.61512294296E+03  0.83705104976E+03  0.90100069509E+02 0.  0.
         23    2    4    4    0    0  0.12538151690E+02 -0.34631939243E+03 -0.10556102301E+04  0.11153845449E+04  0.98363602106E+02 0.  0.
          1    1    3    3  502    0  0.26859927573E+03  0.24448769171E+02  0.12968659975E+02  0.27002129431E+03  0.00000000000E+00 0. -1.
         -1    1    3    3    0  502  0.19175474639E+03  0.20983278276E+02  0.10327923265E+03  0.21880763384E+03  0.00000000000E+00 0.  1.
         11    1    5    5    0    0 -0.11427611222E+03  0.65235475465E+02 -0.20415110848E+03  0.24288345390E+03  0.00000000000E+00 0. -1.
        -11    1    5    5    0    0 -0.35861606159E+03  0.23565186952E+03 -0.41097183448E+03  0.59416759587E+03  0.00000000000E+00 0.  1.
          2    1    6    6  503    0 -0.33880271708E+02 -0.60040251942E+02 -0.16798357657E+03  0.18157969782E+03  0.00000000000E+00 0. -1.
         -2    1    6    6    0  503  0.46418423398E+02 -0.28627914049E+03 -0.88762665352E+03  0.93380484704E+03  0.00000000000E+00 0.  1.
<mgrwt>
<rscale>  0 0.18823783E+04</rscale>
<asrwt>0</asrwt>
<pdfrwt beam="1">  1        1 0.30736536E+00 0.18823783E+04</pdfrwt>
<pdfrwt beam="2">  1       -1 0.68213789E-01 0.18823783E+04</pdfrwt>
<totfact> 0.60951371E+00</totfact>
</mgrwt>
</event>
<event>
12    2  0.8147979E-008  0.2012885E+04  0.7818608E-02  0.8600620E-01
         -1   -1    0    0    0  501 -0.00000000000E+00  0.00000000000E+00  0.83197560059E+03  0.83197560059E+03  0.00000000000E+00 0.  1.
          1   -1    0    0  501    0  0.00000000000E+00 -0.00000000000E+00 -0.12174954408E+04  0.12174954408E+04  0.00000000000E+00 0. -1.
         23    2    1    2    0    0  0.60245035438E+03  0.52580392798E+03 -0.71429275833E+02  0.80781274510E+03  0.89683273391E+02 0.  0.
        254    2    1    2    0    0 -0.60245035438E+03 -0.52580392798E+03 -0.31409056438E+03  0.12416582963E+04  0.89646318495E+03 0.  0.
         23    2    4    4    0    0 -0.65429805767E+02 -0.13374793951E+03  0.29014505912E+03  0.33874761418E+03  0.91630889866E+02 0.  0.
         23    2    4    4    0    0 -0.53702054861E+03 -0.39205598846E+03 -0.60423562349E+03  0.90291068212E+03  0.89710888210E+02 0.  0.
          4    1    3    3  502    0  0.23493655848E+03  0.18561247406E+03  0.14203990746E+02  0.29974811157E+03  0.00000000000E+00 0.  1.
         -4    1    3    3    0  502  0.36751379590E+03  0.34019145392E+03 -0.85633266579E+02  0.50806463353E+03  0.00000000000E+00 0. -1.
         11    1    5    5    0    0 -0.65520203103E+02 -0.99624555178E+02  0.13599668169E+03  0.18086748309E+03  0.00000000000E+00 0.  1.
        -11    1    5    5    0    0  0.90397336455E-01 -0.34123384334E+02  0.15414837742E+03  0.15788013109E+03  0.00000000000E+00 0. -1.
          3    1    6    6  503    0 -0.25369983336E+03 -0.23805148063E+03 -0.29510365371E+03  0.45619982388E+03  0.00000000000E+00 0. -1.
         -3    1    6    6    0  503 -0.28332071526E+03 -0.15400450783E+03 -0.30913196978E+03  0.44671085824E+03  0.00000000000E+00 0.  1.
<mgrwt>
<rscale>  0 0.20128850E+04</rscale>
<asrwt>0</asrwt>
<pdfrwt beam="1">  1        1 0.18730699E+00 0.20128850E+04</pdfrwt>
<pdfrwt beam="2">  1       -1 0.12799625E+00 0.20128850E+04</pdfrwt>
<totfact> 0.50711343E+00</totfact>
</mgrwt>
</event>
<event>
12    2  0.8147979E-008  0.2420821E+04  0.7818608E-02  0.8431749E-01
         -1   -1    0    0    0  501 -0.00000000000E+00  0.00000000000E+00  0.11939555927E+04  0.11939555927E+04  0.00000000000E+00 0.  1.
          1   -1    0    0  501    0  0.00000000000E+00 -0.00000000000E+00 -0.12270924086E+04  0.12270924086E+04  0.00000000000E+00 0. -1.
         23    2    1    2    0    0  0.20322569188E+03  0.72093459387E+03 -0.73690007662E+03  0.10548706240E+04  0.93182294050E+02 0.  0.
        254    2    1    2    0    0 -0.20322569188E+03 -0.72093459387E+03  0.70376326076E+03  0.13661773773E+04  0.90006140269E+03 0.  0.
         23    2    4    4    0    0 -0.87142981858E+02 -0.90045334348E+03  0.67126088409E+03  0.11303779258E+04  0.93557242202E+02 0.  0.
         23    2    4    4    0    0 -0.11608271002E+03  0.17951874961E+03  0.32502376675E+02  0.23579945151E+03  0.94036162289E+02 0.  0.
          3    1    3    3  502    0  0.12373628074E+03  0.34065861187E+03 -0.40913846066E+03  0.54658323886E+03  0.00000000000E+00 0. -1.
         -3    1    3    3    0  502  0.79489411144E+02  0.38027598200E+03 -0.32776161596E+03  0.50828738512E+03  0.00000000000E+00 0.  1.
         11    1    5    5    0    0 -0.12697617238E+02 -0.40509224277E+03  0.34808452013E+03  0.53425067879E+03  0.00000000000E+00 0.  1.
        -11    1    5    5    0    0 -0.74445364620E+02 -0.49536110070E+03  0.32317636396E+03  0.59612724701E+03  0.00000000000E+00 0. -1.
          3    1    6    6  503    0 -0.24167687819E+01  0.35047111269E+02  0.38183540903E+02  0.51885677942E+02  0.00000000000E+00 0. -1.
         -3    1    6    6    0  503 -0.11366594124E+03  0.14447163834E+03 -0.56811642277E+01  0.18391377357E+03  0.00000000000E+00 0.  1.
<mgrwt>
<rscale>  0 0.24208212E+04</rscale>
<asrwt>0</asrwt>
<pdfrwt beam="1">  1        1 0.18878345E+00 0.24208212E+04</pdfrwt>
<pdfrwt beam="2">  1       -1 0.18368548E+00 0.24208212E+04</pdfrwt>
<totfact> 0.17887435E+00</totfact>
</mgrwt>
</event>
<event>
12    2  0.8147979E-008  0.2651885E+04  0.7818608E-02  0.8350788E-01
         -2   -1    0    0    0  501 -0.00000000000E+00  0.00000000000E+00  0.77766088987E+03  0.77766088987E+03  0.00000000000E+00 0.  1.
          2   -1    0    0  501    0  0.00000000000E+00 -0.00000000000E+00 -0.22607841221E+04  0.22607841221E+04  0.00000000000E+00 0. -1.
         23    2    1    2    0    0  0.86213418186E+03 -0.79103983535E+02 -0.15613214229E+04  0.17875937611E+04  0.90741837507E+02 0.  0.
        254    2    1    2    0    0 -0.86213418186E+03  0.79103983535E+02  0.78198190745E+02  0.12508512509E+04  0.89943377025E+03 0.  0.
         23    2    4    4    0    0 -0.48764267506E+03  0.17688014402E+03  0.45859387265E+03  0.69930173306E+03  0.98145860498E+02 0.  0.
         23    2    4    4    0    0 -0.37449150680E+03 -0.97776160482E+02 -0.38039568191E+03  0.55154951783E+03  0.98498373478E+02 0.  0.
          4    1    3    3  502    0  0.77583733853E+03 -0.46590556885E+02 -0.13672359861E+04  0.15727137367E+04  0.00000000000E+00 0. -1.
         -4    1    3    3    0  502  0.86296843334E+02 -0.32513426650E+02 -0.19408543685E+03  0.21488002438E+03  0.00000000000E+00 0.  1.
         11    1    5    5    0    0 -0.36425461009E+03  0.12959136009E+03  0.39476793629E+03  0.55255503355E+03  0.00000000000E+00 0. -1.
        -11    1    5    5    0    0 -0.12338806497E+03  0.47288783926E+02  0.63825936362E+02  0.14674669950E+03  0.00000000000E+00 0.  1.
          1    1    6    6  503    0 -0.70048747049E+02  0.19831654159E+02 -0.62585505047E+02  0.96005556672E+02  0.00000000000E+00 0. -1.
         -1    1    6    6    0  503 -0.30444275975E+03 -0.11760781464E+03 -0.31781017686E+03  0.45554396116E+03  0.00000000000E+00 0.  1.
<mgrwt>
<rscale>  0 0.26518849E+04</rscale>
<asrwt>0</asrwt>
<pdfrwt beam="1">  1        2 0.34781294E+00 0.26518849E+04</pdfrwt>
<pdfrwt beam="2">  1       -2 0.11964014E+00 0.26518849E+04</pdfrwt>
<totfact> 0.22481444E+00</totfact>
</mgrwt>
</event>
<event>
12    2  0.8147979E-008  0.1023478E+04  0.7818608E-02  0.9283163E-01
         -2   -1    0    0    0  501 -0.00000000000E+00  0.00000000000E+00  0.13960060687E+03  0.13960060687E+03  0.00000000000E+00 0.  1.
          2   -1    0    0  501    0  0.00000000000E+00 -0.00000000000E+00 -0.18759010065E+04  0.18759010065E+04  0.00000000000E+00 0. -1.
         23    2    1    2    0    0  0.38134355977E+02 -0.19017583360E+02 -0.69328792561E+02  0.12205192298E+03  0.90963140023E+02 0.  0.
        254    2    1    2    0    0 -0.38134355977E+02  0.19017583360E+02 -0.16669716071E+04  0.18934496904E+04  0.89696237028E+03 0.  0.
         23    2    4    4    0    0  0.26867766708E+03 -0.21104414013E+03 -0.13268694960E+04  0.13725042993E+04  0.80362143946E+02 0.  0.
         23    2    4    4    0    0 -0.30681202306E+03  0.23006172349E+03 -0.34010211104E+03  0.52094539111E+03  0.93019570438E+02 0.  0.
          1    1    3    3  502    0  0.11339576673E+02 -0.42384762778E+02 -0.74165580038E+02  0.86171847939E+02  0.00000000000E+00 0. -1.
         -1    1    3    3    0  502  0.26794779304E+02  0.23367179418E+02  0.48367874771E+01  0.35880075042E+02  0.00000000000E+00 0.  1.
         11    1    5    5    0    0  0.21550357888E+03 -0.13322112314E+03 -0.87677382637E+03  0.91264560634E+03  0.00000000000E+00 0.  1.
        -11    1    5    5    0    0  0.53174088205E+02 -0.77823016981E+02 -0.45009566965E+03  0.45985869294E+03  0.00000000000E+00 0. -1.
          1    1    6    6  503    0 -0.28286309360E+02  0.16751002752E+02 -0.79992029429E+00  0.32883905834E+02  0.00000000000E+00 0. -1.
         -1    1    6    6    0  503 -0.27852571370E+03  0.21331072073E+03 -0.33930219074E+03  0.48806148528E+03  0.00000000000E+00 0.  1.
<mgrwt>
<rscale>  0 0.10234782E+04</rscale>
<asrwt>0</asrwt>
<pdfrwt beam="1">  1        2 0.28860015E+00 0.10234782E+04</pdfrwt>
<pdfrwt beam="2">  1       -2 0.21477017E-01 0.10234782E+04</pdfrwt>
<totfact> 0.14742836E+02</totfact>
</mgrwt>
</event>
<event>
12    2  0.8147979E-008  0.2680600E+04  0.7818608E-02  0.8341327E-01
          2   -1    0    0  501    0  0.00000000000E+00  0.00000000000E+00  0.15382431666E+04  0.15382431666E+04  0.00000000000E+00 0. -1.
         -2   -1    0    0    0  501 -0.00000000000E+00 -0.00000000000E+00 -0.11678284334E+04  0.11678284334E+04  0.00000000000E+00 0.  1.
         23    2    1    2    0    0 -0.24931553160E+03  0.83472896184E+03  0.97837307931E+03  0.13138360684E+04  0.10010323770E+03 0.  0.
        254    2    1    2    0    0  0.24931553160E+03 -0.83472896184E+03 -0.60795834610E+03  0.13922355317E+04  0.89987540862E+03 0.  0.
         23    2    4    4    0    0  0.80154760037E+02 -0.61656039703E+02 -0.57939449274E+03  0.59508822182E+03  0.90585654215E+02 0.  0.
         23    2    4    4    0    0  0.16916077156E+03 -0.77307292214E+03 -0.28563853360E+02  0.79714730985E+03  0.91492241772E+02 0.  0.
          4    1    3    3  502    0 -0.15875285225E+03  0.67279513704E+03  0.77897818352E+03  0.10414714470E+04  0.00000000000E+00 0. -1.
         -4    1    3    3    0  502 -0.90562679349E+02  0.16193382481E+03  0.19939489579E+03  0.27236462137E+03  0.00000000000E+00 0.  1.
         11    1    5    5    0    0 -0.16904949798E+02 -0.22225454223E+02 -0.77520930869E+02  0.82396861990E+02  0.00000000000E+00 0. -1.
        -11    1    5    5    0    0  0.97059709835E+02 -0.39430585480E+02 -0.50187356187E+03  0.51269135983E+03  0.00000000000E+00 0.  1.
          1    1    6    6  503    0  0.72893322951E+02 -0.16577431473E+03  0.71080997068E+01  0.18123213026E+03  0.00000000000E+00 0. -1.
         -1    1    6    6    0  503  0.96267448613E+02 -0.60729860740E+03 -0.35671953067E+02  0.61591517959E+03  0.00000000000E+00 0.  1.
<mgrwt>
<rscale>  0 0.26806000E+04</rscale>
<asrwt>0</asrwt>
<pdfrwt beam="1">  1        2 0.23665280E+00 0.26806000E+04</pdfrwt>
<pdfrwt beam="2">  1       -2 0.17966591E+00 0.26806000E+04</pdfrwt>
<totfact> 0.19350684E+00</totfact>
</mgrwt>
</event>
<event>
12    2  0.8147979E-008  0.1457950E+04  0.7818608E-02  0.8912908E-01
          2   -1    0    0  501    0  0.00000000000E+00  0.00000000000E+00  0.17194616878E+04  0.17194616878E+04  0.00000000000E+00 0.  1.
         -2   -1    0    0    0  501 -0.00000000000E+00 -0.00000000000E+00 -0.30905272353E+03  0.30905272353E+03  0.00000000000E+00 0. -1.
         23    2    1    2    0    0  0.40193855747E+03  0.71404853001E+02  0.19536570181E+03  0.46169751319E+03  0.91343194759E+02 0.  0.
        254    2    1    2    0    0 -0.40193855747E+03 -0.71404853001E+02  0.12150432625E+04  0.15668168982E+04  0.90107258624E+03 0.  0.
         23    2    4    4    0    0 -0.35262085434E+03 -0.37991664646E+03  0.11052390076E+04  0.12237173802E+04  0.85163592332E+02 0.  0.
         23    2    4    4    0    0 -0.49317703126E+02  0.30851179346E+03  0.10980425489E+03  0.34309951800E+03  0.89713668474E+02 0.  0.
          1    1    3    3  502    0  0.17928534987E+03  0.71674251454E+02  0.65228912751E+02  0.20380197756E+03  0.00000000000E+00 0. -1.
         -1    1    3    3    0  502  0.22265320760E+03 -0.26939845294E+00  0.13013678906E+03  0.25789553563E+03  0.00000000000E+00 0.  1.
         11    1    5    5    0    0 -0.28410336512E+03 -0.25147615085E+03  0.77984770224E+03  0.86724703240E+03  0.00000000000E+00 0.  1.
        -11    1    5    5    0    0 -0.68517489222E+02 -0.12844049561E+03  0.32539130535E+03  0.35647034777E+03  0.00000000000E+00 0. -1.
          4    1    6    6  503    0  0.33093977334E+01 -0.20714661912E+01 -0.62682853672E+01  0.73847469140E+01  0.00000000000E+00 0.  1.
         -4    1    6    6    0  503 -0.52627100859E+02  0.31058325965E+03  0.11607254026E+03  0.33571477108E+03  0.00000000000E+00 0. -1.
<mgrwt>
<rscale>  0 0.14579497E+04</rscale>
<asrwt>0</asrwt>
<pdfrwt beam="1">  1        2 0.26453256E+00 0.14579497E+04</pdfrwt>
<pdfrwt beam="2">  1       -2 0.47546574E-01 0.14579497E+04</pdfrwt>
<totfact> 0.38858483E+01</totfact>
</mgrwt>
</event>
<event>
12    2  0.8147979E-008  0.1097042E+04  0.7818608E-02  0.9208080E-01
         -1   -1    0    0    0  501 -0.00000000000E+00  0.00000000000E+00  0.39688817163E+03  0.39688817163E+03  0.00000000000E+00 0.  1.
          1   -1    0    0  501    0  0.00000000000E+00 -0.00000000000E+00 -0.75808525282E+03  0.75808525282E+03  0.00000000000E+00 0. -1.
         23    2    1    2    0    0 -0.26164437339E+02 -0.15477686638E+03 -0.43758747180E+02  0.18713978174E+03  0.92010943966E+02 0.  0.
        254    2    1    2    0    0  0.26164437339E+02  0.15477686638E+03 -0.31743833400E+03  0.96783364271E+03  0.90071882844E+03 0.  0.
         23    2    4    4    0    0  0.35076446509E+03  0.27600870166E+03  0.45481981108E+02  0.45785614030E+03  0.91362581194E+02 0.  0.
         23    2    4    4    0    0 -0.32460002775E+03 -0.12123183529E+03 -0.36292031511E+03  0.50997750240E+03  0.91123882346E+02 0.  0.
          2    1    3    3  502    0 -0.54373912935E+02 -0.67097051521E+02 -0.39413348995E+02  0.94931284674E+02  0.00000000000E+00 0. -1.
         -2    1    3    3    0  502  0.28209475596E+02 -0.87679814855E+02 -0.43453981851E+01  0.92208497070E+02  0.00000000000E+00 0.  1.
         11    1    5    5    0    0  0.22047620239E+03  0.22361248730E+03  0.16445342725E+02  0.31445627612E+03  0.00000000000E+00 0.  1.
        -11    1    5    5    0    0  0.13028826270E+03  0.52396214362E+02  0.29036638383E+02  0.14339986418E+03  0.00000000000E+00 0. -1.
          4    1    6    6  503    0  0.25507204852E+01 -0.11259749133E+02 -0.44840356066E+01  0.12385261437E+02  0.00000000000E+00 0. -1.
         -4    1    6    6    0  503 -0.32715074824E+03 -0.10997208615E+03 -0.35843627951E+03  0.49759224097E+03  0.00000000000E+00 0.  1.
<mgrwt>
<rscale>  0 0.10970416E+04</rscale>
<asrwt>0</asrwt>
<pdfrwt beam="1">  1        1 0.11662850E+00 0.10970416E+04</pdfrwt>
<pdfrwt beam="2">  1       -1 0.61059720E-01 0.10970416E+04</pdfrwt>
<totfact> 0.65306066E+01</totfact>
</mgrwt>
</event>
<event>
12    2  0.8147979E-008  0.2215960E+04  0.7818608E-02  0.8511815E-01
         -1   -1    0    0    0  501 -0.00000000000E+00  0.00000000000E+00  0.99292953109E+03  0.99292953109E+03  0.00000000000E+00 0.  1.
          1   -1    0    0  501    0  0.00000000000E+00 -0.00000000000E+00 -0.12363611129E+04  0.12363611129E+04  0.00000000000E+00 0. -1.
         23    2    1    2    0    0  0.22154577052E+03 -0.85724331336E+03  0.15103009076E+03  0.90283220042E+03  0.91363379233E+02 0.  0.
        254    2    1    2    0    0 -0.22154577052E+03  0.85724331336E+03 -0.39446167261E+03  0.13264584436E+04  0.90550724166E+03 0.  0.
         23    2    4    4    0    0 -0.50380607855E+03  0.26904463496E+03 -0.32492788874E+03  0.66333643019E+03  0.90727649331E+02 0.  0.
         23    2    4    4    0    0  0.28226030803E+03  0.58819867839E+03 -0.69533783869E+02  0.66312201341E+03  0.96162834887E+02 0.  0.
          1    1    3    3  502    0  0.20097640230E+03 -0.67313257829E+03  0.14600926247E+03  0.71750796996E+03  0.00000000000E+00 0. -1.
         -1    1    3    3    0  502  0.20569368217E+02 -0.18411073507E+03  0.50208282937E+01  0.18532423045E+03  0.00000000000E+00 0.  1.
         11    1    5    5    0    0 -0.17526791037E+03  0.73965340017E+02 -0.64248539032E+02  0.20079239701E+03  0.00000000000E+00 0.  1.
        -11    1    5    5    0    0 -0.32853816817E+03  0.19507929495E+03 -0.26067934971E+03  0.46254403318E+03  0.00000000000E+00 0. -1.
          4    1    6    6  503    0  0.18235150291E+03  0.31328618221E+03 -0.10851747744E+00  0.36249181281E+03  0.00000000000E+00 0. -1.
         -4    1    6    6    0  503  0.99908805117E+02  0.27491249618E+03 -0.69425266392E+02  0.30063020060E+03  0.00000000000E+00 0.  1.
<mgrwt>
<rscale>  0 0.22159598E+04</rscale>
<asrwt>0</asrwt>
<pdfrwt beam="1">  1        1 0.19020940E+00 0.22159598E+04</pdfrwt>
<pdfrwt beam="2">  1       -1 0.15275839E+00 0.22159598E+04</pdfrwt>
<totfact> 0.30397319E+00</totfact>
</mgrwt>
</event>
<event>
12    2  0.8147979E-008  0.3306614E+04  0.7818608E-02  0.8161214E-01
          2   -1    0    0  501    0  0.00000000000E+00  0.00000000000E+00  0.14995240554E+04  0.14995240554E+04  0.00000000000E+00 0. -1.
         -2   -1    0    0    0  501 -0.00000000000E+00 -0.00000000000E+00 -0.18228610666E+04  0.18228610666E+04  0.00000000000E+00 0.  1.
         23    2    1    2    0    0  0.19718303198E+03  0.11156558701E+04  0.88172466698E+03  0.14384597555E+04  0.90326691097E+02 0.  0.
        254    2    1    2    0    0 -0.19718303198E+03 -0.11156558701E+04 -0.12050616781E+04  0.18839253665E+04  0.90190463459E+03 0.  0.
         23    2    4    4    0    0 -0.20053889562E+03 -0.84657384495E+03 -0.13148495235E+04  0.15792692747E+04  0.91427834382E+02 0.  0.
         23    2    4    4    0    0  0.33558636397E+01 -0.26908202519E+03  0.10978784538E+03  0.30465609184E+03  0.91354065069E+02 0.  0.
          4    1    3    3  502    0  0.17668646649E+03  0.81595421771E+03  0.67801082845E+03  0.10754989895E+04  0.00000000000E+00 0. -1.
         -4    1    3    3    0  502  0.20496565487E+02  0.29970165243E+03  0.20371383853E+03  0.36296076603E+03  0.00000000000E+00 0.  1.
         11    1    5    5    0    0 -0.21216914747E+00 -0.53979927816E+01 -0.30405711783E+02  0.30881882242E+02  0.00000000000E+00 0.  1.
        -11    1    5    5    0    0 -0.20032672647E+03 -0.84117585217E+03 -0.12844438117E+04  0.15483873925E+04  0.00000000000E+00 0. -1.
          3    1    6    6  503    0  0.36397899131E+02 -0.21309519477E+03  0.65108874114E+02  0.22577319279E+03  0.00000000000E+00 0.  1.
         -3    1    6    6    0  503 -0.33042035491E+02 -0.55986830418E+02  0.44678971261E+02  0.78882899050E+02  0.00000000000E+00 0. -1.
<mgrwt>
<rscale>  0 0.33066140E+04</rscale>
<asrwt>0</asrwt>
<pdfrwt beam="1">  1        2 0.23069601E+00 0.33066140E+04</pdfrwt>
<pdfrwt beam="2">  1       -2 0.28044016E+00 0.33066140E+04</pdfrwt>
<totfact> 0.44374167E-01</totfact>
</mgrwt>
</event>
<event>
12    2  0.8147979E-008  0.1997535E+04  0.7818608E-02  0.8607774E-01
         -2   -1    0    0    0  501 -0.00000000000E+00  0.00000000000E+00  0.10474532005E+04  0.10474532005E+04  0.00000000000E+00 0.  1.
          2   -1    0    0  501    0  0.00000000000E+00 -0.00000000000E+00 -0.95234466555E+03  0.95234466555E+03  0.00000000000E+00 0. -1.
         23    2    1    2    0    0 -0.31122331124E+02  0.51677078881E+03 -0.56206645345E+03  0.77184982235E+03  0.10868671725E+03 0.  0.
        254    2    1    2    0    0  0.31122331124E+02 -0.51677078881E+03  0.65717498838E+03  0.12279480437E+04  0.89886416380E+03 0.  0.
         23    2    4    4    0    0 -0.33239673077E+03 -0.50864050494E+03  0.58147108174E+03  0.84603279513E+03  0.91978919532E+02 0.  0.
         23    2    4    4    0    0  0.36351906190E+03 -0.81302838721E+01  0.75703906640E+02  0.38191524855E+03  0.88971713036E+02 0.  0.
          1    1    3    3  502    0 -0.13518008167E+02  0.25279183636E+03 -0.35433414494E+03  0.43547575747E+03  0.00000000000E+00 0. -1.
         -1    1    3    3    0  502 -0.17604322957E+02  0.26397895245E+03 -0.20773230851E+03  0.33637406488E+03  0.00000000000E+00 0.  1.
         11    1    5    5    0    0 -0.60925024782E+02 -0.96686661081E+02  0.16317491713E+03  0.19921401220E+03  0.00000000000E+00 0. -1.
        -11    1    5    5    0    0 -0.27147170599E+03 -0.41195384386E+03  0.41829616461E+03  0.64681878293E+03  0.00000000000E+00 0.  1.
          2    1    6    6  503    0  0.23106519383E+03 -0.24416339090E+02  0.85228442331E+01  0.23250789296E+03  0.00000000000E+00 0. -1.
         -2    1    6    6    0  503  0.13245386807E+03  0.16286055218E+02  0.67181062407E+02  0.14940735560E+03  0.00000000000E+00 0.  1.
<mgrwt>
<rscale>  0 0.19975349E+04</rscale>
<asrwt>0</asrwt>
<pdfrwt beam="1">  1        2 0.14651456E+00 0.19975349E+04</pdfrwt>
<pdfrwt beam="2">  1       -2 0.16114665E+00 0.19975349E+04</pdfrwt>
<totfact> 0.62088135E+00</totfact>
</mgrwt>
</event>
<event>
12    2  0.8147979E-008  0.2573850E+04  0.7818608E-02  0.8377138E-01
          4   -1    0    0  501    0  0.00000000000E+00  0.00000000000E+00  0.20983357976E+04  0.20983357976E+04  0.00000000000E+00 0. -1.
         -4   -1    0    0    0  501 -0.00000000000E+00 -0.00000000000E+00 -0.78928091468E+03  0.78928091468E+03  0.00000000000E+00 0.  1.
         23    2    1    2    0    0  0.62328724333E+03 -0.80405815092E+03  0.11209145355E+04  0.15163585344E+04  0.88866815761E+02 0.  0.
        254    2    1    2    0    0 -0.62328724333E+03  0.80405815092E+03  0.18814034739E+03  0.13712581779E+04  0.89997538993E+03 0.  0.
         23    2    4    4    0    0 -0.36157321921E+03 -0.36284111707E+01 -0.21145699215E+03  0.42851645660E+03  0.90354500878E+02 0.  0.
         23    2    4    4    0    0 -0.26171402412E+03  0.80768656209E+03  0.39959733954E+03  0.94274172134E+03  0.90730956020E+02 0.  0.
          2    1    3    3  502    0  0.33435873277E+03 -0.40601278495E+03  0.64090360112E+03  0.82909563359E+03  0.00000000000E+00 0. -1.
         -2    1    3    3    0  502  0.28892851056E+03 -0.39804536597E+03  0.48001093443E+03  0.68726290076E+03  0.00000000000E+00 0.  1.
         11    1    5    5    0    0 -0.83931160170E+02 -0.25505565764E+02 -0.18362297285E+02  0.89622248878E+02  0.00000000000E+00 0. -1.
        -11    1    5    5    0    0 -0.27764205904E+03  0.21877154593E+02 -0.19309469487E+03  0.33889420772E+03  0.00000000000E+00 0.  1.
          4    1    6    6  503    0 -0.37933273142E+01  0.30936276198E+02  0.34665960668E+02  0.46617285916E+02  0.00000000000E+00 0. -1.
         -4    1    6    6    0  503 -0.25792069680E+03  0.77675028590E+03  0.36493137888E+03  0.89612443543E+03  0.00000000000E+00 0.  1.
<mgrwt>
<rscale>  0 0.25738503E+04</rscale>
<asrwt>0</asrwt>
<pdfrwt beam="1">  1        4 0.32282089E+00 0.25738503E+04</pdfrwt>
<pdfrwt beam="2">  1       -4 0.12142783E+00 0.25738503E+04</pdfrwt>
<totfact> 0.20157399E-02</totfact>
</mgrwt>
</event>
<event>
12    2  0.8147979E-008  0.2074319E+04  0.7818608E-02  0.8572641E-01
          2   -1    0    0  501    0  0.00000000000E+00  0.00000000000E+00  0.97475468772E+03  0.97475468772E+03  0.00000000000E+00 0.  1.
         -2   -1    0    0    0  501 -0.00000000000E+00 -0.00000000000E+00 -0.11035591578E+04  0.11035591578E+04  0.00000000000E+00 0. -1.
         23    2    1    2    0    0 -0.43920050916E+03 -0.52225639628E+03 -0.54193102540E+03  0.87626138788E+03  0.92173493429E+02 0.  0.
        254    2    1    2    0    0  0.43920050916E+03  0.52225639628E+03  0.41312655530E+03  0.12020524577E+04  0.89922618377E+03 0.  0.
         23    2    4    4    0    0  0.38533014645E+03 -0.11162203717E+03 -0.41854506548E+02  0.41455987739E+03  0.95756416398E+02 0.  0.
         23    2    4    4    0    0  0.53870362711E+02  0.63387843345E+03  0.45498106185E+03  0.78749258027E+03  0.91830893332E+02 0.  0.
          1    1    3    3  502    0 -0.11453855567E+03 -0.16592377051E+03 -0.20908426229E+03  0.29045827083E+03  0.00000000000E+00 0. -1.
         -1    1    3    3    0  502 -0.32466195348E+03 -0.35633262577E+03 -0.33284676311E+03  0.58580311705E+03  0.00000000000E+00 0.  1.
         11    1    5    5    0    0  0.77824688162E+02 -0.62610686066E+02 -0.23626158598E+02  0.10264002858E+03  0.00000000000E+00 0.  1.
        -11    1    5    5    0    0  0.30750545829E+03 -0.49011351100E+02 -0.18228347950E+02  0.31191984881E+03  0.00000000000E+00 0. -1.
          1    1    6    6  503    0  0.42357919195E+02  0.35742052803E+03  0.31049295420E+03  0.47534145810E+03  0.00000000000E+00 0. -1.
         -1    1    6    6    0  503  0.11512443515E+02  0.27645790542E+03  0.14448810765E+03  0.31215112217E+03  0.00000000000E+00 0.  1.
<mgrwt>
<rscale>  0 0.20743186E+04</rscale>
<asrwt>0</asrwt>
<pdfrwt beam="1">  1        2 0.14996226E+00 0.20743186E+04</pdfrwt>
<pdfrwt beam="2">  1       -2 0.16977833E+00 0.20743186E+04</pdfrwt>
<totfact> 0.51654483E+00</totfact>
</mgrwt>
</event>
<event>
12    2  0.8147979E-008  0.1314223E+04  0.7818608E-02  0.9018362E-01
          1   -1    0    0  501    0  0.00000000000E+00  0.00000000000E+00  0.25468066606E+04  0.25468066606E+04  0.00000000000E+00 0. -1.
         -1   -1    0    0    0  501 -0.00000000000E+00 -0.00000000000E+00 -0.16954381728E+03  0.16954381728E+03  0.00000000000E+00 0.  1.
         23    2    1    2    0    0  0.64370910700E+02 -0.30072495485E+03  0.33535155515E+03  0.46400203333E+03  0.90874136992E+02 0.  0.
        254    2    1    2    0    0 -0.64370910700E+02  0.30072495485E+03  0.20419112882E+04  0.22523484446E+04  0.89949580007E+03 0.  0.
         23    2    4    4    0    0 -0.34371849333E+02  0.59443299382E+03  0.10164121073E+04  0.11815146173E+04  0.91384960488E+02 0.  0.
         23    2    4    4    0    0 -0.29999061367E+02 -0.29370803897E+03  0.10254991810E+04  0.10708338273E+04  0.88725191769E+02 0.  0.
          2    1    3    3  502    0  0.63145198293E+01 -0.18315752029E+03  0.14927064590E+03  0.23636470999E+03  0.00000000000E+00 0. -1.
         -2    1    3    3    0  502  0.58056390871E+02 -0.11756743456E+03  0.18608090925E+03  0.22763732334E+03  0.00000000000E+00 0.  1.
         11    1    5    5    0    0 -0.37355691330E+02  0.40103988500E+03  0.76231695559E+03  0.86218071065E+03  0.00000000000E+00 0. -1.
        -11    1    5    5    0    0  0.29838419970E+01  0.19339310882E+03  0.25409515167E+03  0.31933390668E+03  0.00000000000E+00 0.  1.
          1    1    6    6  503    0 -0.25738637950E+02 -0.25214289450E+03  0.73788450329E+03  0.78020001084E+03  0.00000000000E+00 0. -1.
         -1    1    6    6    0  503 -0.42604234174E+01 -0.41565144476E+02  0.28761467767E+03  0.29063381643E+03  0.00000000000E+00 0.  1.
<mgrwt>
<rscale>  0 0.13142227E+04</rscale>
<asrwt>0</asrwt>
<pdfrwt beam="1">  1        1 0.39181638E+00 0.13142227E+04</pdfrwt>
<pdfrwt beam="2">  1       -1 0.26083666E-01 0.13142227E+04</pdfrwt>
<totfact> 0.16140187E+01</totfact>
</mgrwt>
</event>
<event>
12    2  0.8147979E-008  0.1260409E+04  0.7818608E-02  0.9061564E-01
          3   -1    0    0  501    0  0.00000000000E+00  0.00000000000E+00  0.61092026252E+03  0.61092026252E+03  0.00000000000E+00 0. -1.
         -3   -1    0    0    0  501 -0.00000000000E+00 -0.00000000000E+00 -0.65009774446E+03  0.65009774446E+03  0.00000000000E+00 0.  1.
         23    2    1    2    0    0  0.30481382067E+02  0.29296633820E+03  0.32595609536E+02  0.31013094058E+03  0.91434876159E+02 0.  0.
        254    2    1    2    0    0 -0.30481382067E+02 -0.29296633820E+03 -0.71773091480E+02  0.95088706639E+03  0.90126380511E+03 0.  0.
         23    2    4    4    0    0  0.38647659153E+03  0.16848177005E+02  0.70972930868E+02  0.40425664550E+03  0.93478669473E+02 0.  0.
         23    2    4    4    0    0 -0.41695797360E+03 -0.30981451520E+03 -0.14274602235E+03  0.54663042089E+03  0.92679040605E+02 0.  0.
          3    1    3    3  502    0  0.41734435639E+02  0.19707569172E+03  0.59234700949E+02  0.20997462033E+03  0.00000000000E+00 0. -1.
         -3    1    3    3    0  502 -0.11253053572E+02  0.95890646473E+02 -0.26639091412E+02  0.10015632025E+03  0.00000000000E+00 0.  1.
         11    1    5    5    0    0  0.14924308308E+03 -0.25179577197E+02  0.60820163183E+02  0.16311530033E+03  0.00000000000E+00 0.  1.
        -11    1    5    5    0    0  0.23723350846E+03  0.42027754201E+02  0.10152767685E+02  0.24114134517E+03  0.00000000000E+00 0. -1.
          1    1    6    6  503    0 -0.11096512564E+03 -0.12758156680E+03 -0.21690169562E+02  0.17047222282E+03  0.00000000000E+00 0. -1.
         -1    1    6    6    0  503 -0.30599284796E+03 -0.18223294840E+03 -0.12105585279E+03  0.37615819807E+03  0.00000000000E+00 0.  1.
<mgrwt>
<rscale>  0 0.12604093E+04</rscale>
<asrwt>0</asrwt>
<pdfrwt beam="1">  1        3 0.93987732E-01 0.12604093E+04</pdfrwt>
<pdfrwt beam="2">  1       -3 0.10001504E+00 0.12604093E+04</pdfrwt>
<totfact> 0.22734220E+00</totfact>
</mgrwt>
</event>
<event>
12    2  0.8147979E-008  0.2745893E+04  0.7818608E-02  0.8320266E-01
         -2   -1    0    0    0  501 -0.00000000000E+00  0.00000000000E+00  0.10982135560E+04  0.10982135560E+04  0.00000000000E+00 0.  1.
          2   -1    0    0  501    0  0.00000000000E+00 -0.00000000000E+00 -0.17164073620E+04  0.17164073620E+04  0.00000000000E+00 0. -1.
         23    2    1    2    0    0 -0.47398541598E+03 -0.10187635970E+04  0.21991191044E+03  0.11488758468E+04  0.94936936601E+02 0.  0.
        254    2    1    2    0    0  0.47398541598E+03  0.10187635970E+04 -0.83810571644E+03  0.16657450712E+04  0.89985777175E+03 0.  0.
         23    2    4    4    0    0  0.51802409611E+03  0.19530756997E+03 -0.13292163710E+03  0.57683639644E+03  0.92617793160E+02 0.  0.
         23    2    4    4    0    0 -0.44038680132E+02  0.82345602700E+03 -0.70518407934E+03  0.10889086748E+04  0.91751199264E+02 0.  0.
          4    1    3    3  502    0 -0.16599500246E+03 -0.34331657522E+03  0.29426557971E+02  0.38247422655E+03  0.00000000000E+00 0. -1.
         -4    1    3    3    0  502 -0.30799041351E+03 -0.67544702175E+03  0.19048535247E+03  0.76640162025E+03  0.00000000000E+00 0.  1.
         11    1    5    5    0    0  0.18004838173E+03  0.65518525201E+02 -0.91841563248E+02  0.21247345634E+03  0.00000000000E+00 0. -1.
        -11    1    5    5    0    0  0.33797571438E+03  0.12978904477E+03 -0.41080073855E+02  0.36436294010E+03  0.00000000000E+00 0.  1.
          3    1    6    6  503    0 -0.51233399773E+02  0.56398019565E+03 -0.43369756166E+03  0.71329664049E+03  0.00000000000E+00 0. -1.
         -3    1    6    6    0  503  0.71947196411E+01  0.25947583135E+03 -0.27148651768E+03  0.37561203432E+03  0.00000000000E+00 0.  1.
<mgrwt>
<rscale>  0 0.27458928E+04</rscale>
<asrwt>0</asrwt>
<pdfrwt beam="1">  1        2 0.26406267E+00 0.27458928E+04</pdfrwt>
<pdfrwt beam="2">  1       -2 0.16895593E+00 0.27458928E+04</pdfrwt>
<totfact> 0.18200678E+00</totfact>
</mgrwt>
</event>
<event>
12    2  0.8147979E-008  0.1615121E+04  0.7818608E-02  0.8811312E-01
         -2   -1    0    0    0  501 -0.00000000000E+00  0.00000000000E+00  0.30851818612E+03  0.30851818612E+03  0.00000000000E+00 0.  1.
          2   -1    0    0  501    0  0.00000000000E+00 -0.00000000000E+00 -0.21138264822E+04  0.21138264822E+04  0.00000000000E+00 0. -1.
         23    2    1    2    0    0  0.49931841479E+03  0.18946779751E+02 -0.27888339958E+03  0.57910470735E+03  0.88929476025E+02 0.  0.
        254    2    1    2    0    0 -0.49931841479E+03 -0.18946779751E+02 -0.15264248965E+04  0.18432399610E+04  0.90436869102E+03 0.  0.
         23    2    4    4    0    0 -0.57013248483E+02  0.39762033141E+03 -0.50555610439E+03  0.65170373189E+03  0.88194903635E+02 0.  0.
         23    2    4    4    0    0 -0.44230516631E+03 -0.41656711116E+03 -0.10208687922E+04  0.11915362291E+04  0.91779498158E+02 0.  0.
          4    1    3    3  502    0  0.81764560823E+02  0.30447102958E+02 -0.71186941693E+02  0.11260572877E+03  0.00000000000E+00 0. -1.
         -4    1    3    3    0  502  0.41755385397E+03 -0.11500323207E+02 -0.20769645788E+03  0.46649897858E+03  0.00000000000E+00 0.  1.
         11    1    5    5    0    0 -0.30126016784E+01  0.29617047675E+03 -0.35644723782E+03  0.46344434447E+03  0.00000000000E+00 0. -1.
        -11    1    5    5    0    0 -0.54000646805E+02  0.10144985466E+03 -0.14910886656E+03  0.18825938743E+03  0.00000000000E+00 0.  1.
          1    1    6    6  503    0 -0.39349402927E+03 -0.36031619865E+03 -0.83046832639E+03  0.98708811928E+03  0.00000000000E+00 0. -1.
         -1    1    6    6    0  503 -0.48811137034E+02 -0.56250912509E+02 -0.19040046577E+03  0.20444810985E+03  0.00000000000E+00 0.  1.
<mgrwt>
<rscale>  0 0.16151209E+04</rscale>
<asrwt>0</asrwt>
<pdfrwt beam="1">  1        2 0.32520407E+00 0.16151209E+04</pdfrwt>
<pdfrwt beam="2">  1       -2 0.47464337E-01 0.16151209E+04</pdfrwt>
<totfact> 0.23267988E+01</totfact>
</mgrwt>
</event>
<event>
12    2  0.8147979E-008  0.2644623E+04  0.7818608E-02  0.8353200E-01
          1   -1    0    0  501    0  0.00000000000E+00  0.00000000000E+00  0.99108918796E+03  0.99108918796E+03  0.00000000000E+00 0. -1.
         -1   -1    0    0    0  501 -0.00000000000E+00 -0.00000000000E+00 -0.17642286117E+04  0.17642286117E+04  0.00000000000E+00 0.  1.
         23    2    1    2    0    0  0.84192320113E+03 -0.52219333791E+03 -0.98490312583E+03  0.13999240313E+04  0.90733496169E+02 0.  0.
        254    2    1    2    0    0 -0.84192320113E+03  0.52219333791E+03  0.21176370211E+03  0.13553937684E+04  0.90040426644E+03 0.  0.
         23    2    4    4    0    0 -0.18265644322E+03 -0.19470235952E+03  0.24939754730E+03  0.37622922397E+03  0.89871615734E+02 0.  0.
         23    2    4    4    0    0 -0.65926675790E+03  0.71689569743E+03 -0.37633845198E+02  0.97916454439E+03  0.93673900422E+02 0.  0.
          3    1    3    3  502    0  0.16455334056E+03 -0.65061163239E+02 -0.19621290498E+03  0.26421631465E+03  0.00000000000E+00 0. -1.
         -3    1    3    3    0  502  0.67736986057E+03 -0.45713217467E+03 -0.78869022085E+03  0.11357077166E+04  0.00000000000E+00 0.  1.
         11    1    5    5    0    0  0.42501343706E+01 -0.10782829451E+02 -0.33132911336E+01  0.12054499213E+02  0.00000000000E+00 0.  1.
        -11    1    5    5    0    0 -0.18690657759E+03 -0.18391953007E+03  0.25271083844E+03  0.36417472476E+03  0.00000000000E+00 0. -1.
          3    1    6    6  503    0 -0.28857118558E+03  0.33198744129E+03 -0.62002413873E+02  0.44422211747E+03  0.00000000000E+00 0. -1.
         -3    1    6    6    0  503 -0.37069557232E+03  0.38490825614E+03  0.24368568674E+02  0.53494242692E+03  0.00000000000E+00 0.  1.
<mgrwt>
<rscale>  0 0.26446232E+04</rscale>
<asrwt>0</asrwt>
<pdfrwt beam="1">  1        1 0.15247526E+00 0.26446232E+04</pdfrwt>
<pdfrwt beam="2">  1       -1 0.27141979E+00 0.26446232E+04</pdfrwt>
<totfact> 0.68237635E-01</totfact>
</mgrwt>
</event>
<event>
12    2  0.8147979E-008  0.1200585E+04  0.7818608E-02  0.9112345E-01
          2   -1    0    0  501    0  0.00000000000E+00  0.00000000000E+00  0.52788455384E+03  0.52788455384E+03  0.00000000000E+00 0. -1.
         -2   -1    0    0    0  501 -0.00000000000E+00 -0.00000000000E+00 -0.68263253074E+03  0.68263253074E+03  0.00000000000E+00 0.  1.
         23    2    1    2    0    0  0.24343728624E+03 -0.16226823053E+02  0.21933384587E+02  0.26146252655E+03  0.91414207390E+02 0.  0.
        254    2    1    2    0    0 -0.24343728624E+03  0.16226823053E+02 -0.17668136148E+03  0.94905455803E+03  0.89997957116E+03 0.  0.
         23    2    4    4    0    0 -0.14441986847E+03 -0.14508194185E+03  0.33070452397E+03  0.39950500069E+03  0.91284692847E+02 0.  0.
         23    2    4    4    0    0 -0.99017417768E+02  0.16130876490E+03 -0.50738588545E+03  0.54954955733E+03  0.93484290436E+02 0.  0.
          3    1    3    3  502    0  0.18431710910E+03  0.21835973386E+02 -0.62496857454E+01  0.18571124095E+03  0.00000000000E+00 0.  1.
         -3    1    3    3    0  502  0.59120177138E+02 -0.38062796439E+02  0.28183070332E+02  0.75751285606E+02  0.00000000000E+00 0. -1.
         11    1    5    5    0    0 -0.13410926986E+02  0.11189736883E+02  0.12170985337E+02  0.21288401965E+02  0.00000000000E+00 0. -1.
        -11    1    5    5    0    0 -0.13100894149E+03 -0.15627167873E+03  0.31853353863E+03  0.37821659873E+03  0.00000000000E+00 0.  1.
          4    1    6    6  503    0  0.32241202322E+00 -0.70280533558E+00 -0.10015073840E+03  0.10015372328E+03  0.00000000000E+00 0. -1.
         -4    1    6    6    0  503 -0.99339829791E+02  0.16201157024E+03 -0.40723514705E+03  0.44939583406E+03  0.00000000000E+00 0.  1.
<mgrwt>
<rscale>  0 0.12005851E+04</rscale>
<asrwt>0</asrwt>
<pdfrwt beam="1">  1        2 0.81213008E-01 0.12005851E+04</pdfrwt>
<pdfrwt beam="2">  1       -2 0.10502039E+00 0.12005851E+04</pdfrwt>
<totfact> 0.41899921E+01</totfact>
</mgrwt>
</event>
<event>
12    2  0.8147979E-008  0.2330615E+04  0.7818608E-02  0.8465947E-01
          2   -1    0    0  501    0  0.00000000000E+00  0.00000000000E+00  0.10795856913E+04  0.10795856913E+04  0.00000000000E+00 0.  1.
         -2   -1    0    0    0  501 -0.00000000000E+00 -0.00000000000E+00 -0.12578356752E+04  0.12578356752E+04  0.00000000000E+00 0. -1.
         23    2    1    2    0    0  0.17369480640E+03 -0.87700677440E+03  0.34904156697E+03  0.96405208421E+03  0.90860538694E+02 0.  0.
        254    2    1    2    0    0 -0.17369480640E+03  0.87700677440E+03 -0.52729155084E+03  0.13733692824E+04  0.89933088350E+03 0.  0.
         23    2    4    4    0    0  0.25155595657E+03 -0.17460421646E+02 -0.16195454160E+03  0.31342109585E+03  0.91750990036E+02 0.  0.
         23    2    4    4    0    0 -0.42525076297E+03  0.89446719604E+03 -0.36533700924E+03  0.10599481865E+04  0.95442399076E+02 0.  0.
          4    1    3    3  502    0  0.71358546045E+02 -0.24270600081E+03  0.62713650836E+02  0.26063623487E+03  0.00000000000E+00 0. -1.
         -4    1    3    3    0  502  0.10233626036E+03 -0.63430077358E+03  0.28632791613E+03  0.70341584935E+03  0.00000000000E+00 0.  1.
         11    1    5    5    0    0  0.19293898055E+01 -0.41040119784E+01 -0.30778958970E+02  0.31111248362E+02  0.00000000000E+00 0. -1.
        -11    1    5    5    0    0  0.24962656676E+03 -0.13356409667E+02 -0.13117558263E+03  0.28230984749E+03  0.00000000000E+00 0.  1.
          3    1    6    6  503    0 -0.28924426352E+02  0.26997768727E+02 -0.28583967955E+01  0.39669539804E+02  0.00000000000E+00 0. -1.
         -3    1    6    6    0  503 -0.39632633662E+03  0.86746942731E+03 -0.36247861244E+03  0.10202786467E+04  0.00000000000E+00 0.  1.
<mgrwt>
<rscale>  0 0.23306149E+04</rscale>
<asrwt>0</asrwt>
<pdfrwt beam="1">  1        2 0.16609011E+00 0.23306149E+04</pdfrwt>
<pdfrwt beam="2">  1       -2 0.19351318E+00 0.23306149E+04</pdfrwt>
<totfact> 0.29780739E+00</totfact>
</mgrwt>
</event>
<event>
12    2  0.8147979E-008  0.2584231E+04  0.7818608E-02  0.8373577E-01
         -2   -1    0    0    0  501 -0.00000000000E+00  0.00000000000E+00  0.90692872395E+03  0.90692872395E+03  0.00000000000E+00 0. -1.
          2   -1    0    0  501    0  0.00000000000E+00 -0.00000000000E+00 -0.18408968104E+04  0.18408968104E+04  0.00000000000E+00 0.  1.
         23    2    1    2    0    0 -0.89010229665E+03 -0.16461856233E+03  0.31523020346E+03  0.96231248186E+03  0.85404109924E+02 0.  0.
        254    2    1    2    0    0  0.89010229665E+03  0.16461856233E+03 -0.12491982899E+04  0.17855130524E+04  0.89898783277E+03 0.  0.
         23    2    4    4    0    0 -0.85247685539E+02 -0.11441492265E+02 -0.56240469637E+03  0.57616778946E+03  0.90951654593E+02 0.  0.
         23    2    4    4    0    0  0.97534998219E+03  0.17606005459E+03 -0.68679359350E+03  0.12093452630E+04  0.92335228709E+02 0.  0.
          2    1    3    3  502    0 -0.67340808883E+03 -0.15980535807E+03  0.25151588898E+03  0.73639422117E+03  0.00000000000E+00 0. -1.
         -2    1    3    3    0  502 -0.21669420782E+03 -0.48132042534E+01  0.63714314484E+02  0.22591826068E+03  0.00000000000E+00 0.  1.
         11    1    5    5    0    0 -0.16881825090E+02  0.37416513157E+02 -0.19568306895E+03  0.19994212900E+03  0.00000000000E+00 0.  1.
        -11    1    5    5    0    0 -0.68365860449E+02 -0.48858005422E+02 -0.36672162742E+03  0.37622566046E+03  0.00000000000E+00 0. -1.
          3    1    6    6  503    0  0.85323300346E+03  0.17233329445E+03 -0.57110747547E+03  0.10410903280E+04  0.00000000000E+00 0. -1.
         -3    1    6    6    0  503  0.12211697873E+03  0.37267601469E+01 -0.11568611803E+03  0.16825493496E+03  0.00000000000E+00 0.  1.
<mgrwt>
<rscale>  0 0.25842308E+04</rscale>
<asrwt>0</asrwt>
<pdfrwt beam="1">  1        2 0.28321489E+00 0.25842308E+04</pdfrwt>
<pdfrwt beam="2">  1       -2 0.13952750E+00 0.25842308E+04</pdfrwt>
<totfact> 0.26284251E+00</totfact>
</mgrwt>
</event>
<event>
12    2  0.8147979E-008  0.1436587E+04  0.7818608E-02  0.8927753E-01
         -2   -1    0    0    0  501 -0.00000000000E+00  0.00000000000E+00  0.94976351430E+03  0.94976351430E+03  0.00000000000E+00 0.  1.
          2   -1    0    0  501    0  0.00000000000E+00 -0.00000000000E+00 -0.54323584154E+03  0.54323584154E+03  0.00000000000E+00 0. -1.
         23    2    1    2    0    0 -0.42122048927E+03 -0.18841467638E+02  0.20312399501E+03  0.47648243833E+03  0.89411717373E+02 0.  0.
        254    2    1    2    0    0  0.42122048927E+03  0.18841467638E+02  0.20340367775E+03  0.10165169175E+04  0.90230365509E+03 0.  0.
         23    2    4    4    0    0  0.14635895640E+03  0.42320856003E+03 -0.47927176366E+02  0.45892328637E+03  0.88244768313E+02 0.  0.
         23    2    4    4    0    0  0.27486153287E+03 -0.40436709240E+03  0.25133085412E+03  0.55759363114E+03  0.93176454071E+02 0.  0.
          4    1    3    3  502    0 -0.57485266350E+02 -0.32894415390E+02  0.21168229726E+02  0.69531952086E+02  0.00000000000E+00 0. -1.
         -4    1    3    3    0  502 -0.36373522291E+03  0.14052947752E+02  0.18195576529E+03  0.40695048624E+03  0.00000000000E+00 0.  1.
         11    1    5    5    0    0  0.26135687609E+02  0.15717506292E+03  0.15789093968E+02  0.16011361609E+03  0.00000000000E+00 0.  1.
        -11    1    5    5    0    0  0.12022326879E+03  0.26603349712E+03 -0.63716270334E+02  0.29880967028E+03  0.00000000000E+00 0. -1.
          3    1    6    6  503    0  0.44986291124E+00 -0.32178344544E+02  0.33460335770E+02  0.46424587280E+02  0.00000000000E+00 0. -1.
         -3    1    6    6    0  503  0.27441166996E+03 -0.37218874785E+03  0.21787051834E+03  0.51116904386E+03  0.00000000000E+00 0.  1.
<mgrwt>
<rscale>  0 0.14365870E+04</rscale>
<asrwt>0</asrwt>
<pdfrwt beam="1">  1        2 0.83574745E-01 0.14365870E+04</pdfrwt>
<pdfrwt beam="2">  1       -2 0.14611746E+00 0.14365870E+04</pdfrwt>
<totfact> 0.17401362E+01</totfact>
</mgrwt>
</event>
<event>
12    2  0.8147979E-008  0.1674857E+04  0.7818608E-02  0.8775836E-01
         -2   -1    0    0    0  501 -0.00000000000E+00  0.00000000000E+00  0.56460718651E+03  0.56460718651E+03  0.00000000000E+00 0.  1.
          2   -1    0    0  501    0  0.00000000000E+00 -0.00000000000E+00 -0.12420789571E+04  0.12420789571E+04  0.00000000000E+00 0. -1.
         23    2    1    2    0    0  0.37028722939E+03  0.21771777954E+02 -0.73939334370E+03  0.83229386342E+03  0.91781892635E+02 0.  0.
        254    2    1    2    0    0 -0.37028722939E+03 -0.21771777954E+02  0.61921573094E+02  0.97439228021E+03  0.89889898874E+03 0.  0.
         23    2    4    4    0    0 -0.19194491043E+03  0.13721806027E+02  0.47143748481E+03  0.51723717083E+03  0.90828697008E+02 0.  0.
         23    2    4    4    0    0 -0.17834231896E+03 -0.35493583981E+02 -0.40951591172E+03  0.45715510939E+03  0.90673782622E+02 0.  0.
          4    1    3    3  502    0  0.15533371457E+03 -0.27018984844E+02 -0.36905135907E+03  0.40131969059E+03  0.00000000000E+00 0. -1.
         -4    1    3    3    0  502  0.21495351481E+03  0.48790762798E+02 -0.37034198463E+03  0.43097417283E+03  0.00000000000E+00 0.  1.
         11    1    5    5    0    0 -0.10542901415E+03 -0.32658599626E+02  0.19757865864E+03  0.22631656480E+03  0.00000000000E+00 0. -1.
        -11    1    5    5    0    0 -0.86515896275E+02  0.46380405652E+02  0.27385882617E+03  0.29092060602E+03  0.00000000000E+00 0.  1.
          1    1    6    6  503    0 -0.10473243081E+03  0.21798093642E+02 -0.25700863131E+03  0.27838368400E+03  0.00000000000E+00 0. -1.
         -1    1    6    6    0  503 -0.73609888146E+02 -0.57291677623E+02 -0.15250728041E+03  0.17877142539E+03  0.00000000000E+00 0.  1.
<mgrwt>
<rscale>  0 0.16748573E+04</rscale>
<asrwt>0</asrwt>
<pdfrwt beam="1">  1        2 0.19108907E+00 0.16748573E+04</pdfrwt>
<pdfrwt beam="2">  1       -2 0.86862644E-01 0.16748573E+04</pdfrwt>
<totfact> 0.19549580E+01</totfact>
</mgrwt>
</event>
<event>
12    2  0.8147979E-008  0.1437616E+04  0.7818608E-02  0.8927031E-01
         -2   -1    0    0    0  501 -0.00000000000E+00  0.00000000000E+00  0.20330545902E+03  0.20330545902E+03  0.00000000000E+00 0.  1.
          2   -1    0    0  501    0  0.00000000000E+00 -0.00000000000E+00 -0.25414225918E+04  0.25414225918E+04  0.00000000000E+00 0. -1.
         23    2    1    2    0    0 -0.36192579958E+03  0.22796827112E+03 -0.81771618673E+03  0.92732614550E+03  0.91182240827E+02 0.  0.
        254    2    1    2    0    0  0.36192579958E+03 -0.22796827112E+03 -0.15204009461E+04  0.18174019053E+04  0.89909445091E+03 0.  0.
         23    2    4    4    0    0  0.20393865210E+03 -0.36267164748E+03 -0.18901408516E+03  0.46682090543E+03  0.95256158087E+02 0.  0.
         23    2    4    4    0    0  0.15798714748E+03  0.13470337636E+03 -0.13313868609E+04  0.13505809999E+04  0.91504784123E+02 0.  0.
          2    1    3    3  502    0 -0.76780517946E+02  0.28801092873E+02 -0.23266778580E+03  0.24669626960E+03  0.00000000000E+00 0. -1.
         -2    1    3    3    0  502 -0.28514528164E+03  0.19916717825E+03 -0.58504840093E+03  0.68062987590E+03  0.00000000000E+00 0.  1.
         11    1    5    5    0    0  0.42762863583E+02 -0.11485399723E+03 -0.99745277751E+02  0.15801652956E+03  0.00000000000E+00 0.  1.
        -11    1    5    5    0    0  0.16117578852E+03 -0.24781765025E+03 -0.89268807408E+02  0.30880437587E+03  0.00000000000E+00 0. -1.
          4    1    6    6  503    0  0.60816027697E+02  0.30001425706E+01 -0.45323829666E+03  0.45731011758E+03  0.00000000000E+00 0. -1.
         -4    1    6    6    0  503  0.97171119785E+02  0.13170323379E+03 -0.87814856424E+03  0.89327088232E+03  0.00000000000E+00 0.  1.
<mgrwt>
<rscale>  0 0.14376162E+04</rscale>
<asrwt>0</asrwt>
<pdfrwt beam="1">  1        2 0.39098812E+00 0.14376162E+04</pdfrwt>
<pdfrwt beam="2">  1       -2 0.31277761E-01 0.14376162E+04</pdfrwt>
<totfact> 0.30425671E+01</totfact>
</mgrwt>
</event>
<event>
12    2  0.8147979E-008  0.2374244E+04  0.7818608E-02  0.8449210E-01
          2   -1    0    0  501    0  0.00000000000E+00  0.00000000000E+00  0.34847287366E+04  0.34847287366E+04  0.00000000000E+00 0.  1.
         -2   -1    0    0    0  501 -0.00000000000E+00 -0.00000000000E+00 -0.40440986238E+03  0.40440986238E+03  0.00000000000E+00 0. -1.
         23    2    1    2    0    0  0.38230670560E+03  0.93368380716E+03  0.14917679580E+04  0.18032911469E+04  0.92538916523E+02 0.  0.
        254    2    1    2    0    0 -0.38230670560E+03 -0.93368380716E+03  0.15885509161E+04  0.20858474520E+04  0.89963420954E+03 0.  0.
         23    2    4    4    0    0 -0.59312230241E+03 -0.90853187089E+03  0.14559171565E+04  0.18175433387E+04  0.80899909276E+02 0.  0.
         23    2    4    4    0    0  0.21081559681E+03 -0.25151936269E+02  0.13263375959E+03  0.26830411330E+03  0.96537802290E+02 0.  0.
          3    1    3    3  502    0  0.18103513302E+01  0.54605698871E+02  0.66921144967E+02  0.86391546837E+02  0.00000000000E+00 0. -1.
         -3    1    3    3    0  502  0.38049635427E+03  0.87907810829E+03  0.14248468131E+04  0.17168996001E+04  0.00000000000E+00 0.  1.
         11    1    5    5    0    0 -0.27700665444E+03 -0.49820248711E+03  0.76436855660E+03  0.95351858665E+03  0.00000000000E+00 0.  1.
        -11    1    5    5    0    0 -0.31611564797E+03 -0.41032938378E+03  0.69154859994E+03  0.86402475206E+03  0.00000000000E+00 0. -1.
          2    1    6    6  503    0  0.86234450101E+02 -0.56617973695E+02  0.43691176759E+02  0.11203077370E+03  0.00000000000E+00 0. -1.
         -2    1    6    6    0  503  0.12458114671E+03  0.31466037426E+02  0.88942582835E+02  0.15627333959E+03  0.00000000000E+00 0.  1.
<mgrwt>
<rscale>  0 0.23742440E+04</rscale>
<asrwt>0</asrwt>
<pdfrwt beam="1">  1        2 0.53611209E+00 0.23742440E+04</pdfrwt>
<pdfrwt beam="2">  1       -2 0.62216904E-01 0.23742440E+04</pdfrwt>
<totfact> 0.18040692E+00</totfact>
</mgrwt>
</event>
<event>
12    2  0.8147979E-008  0.2316442E+04  0.7818608E-02  0.8471466E-01
          1   -1    0    0  501    0  0.00000000000E+00  0.00000000000E+00  0.75467300003E+03  0.75467300003E+03  0.00000000000E+00 0. -1.
         -1   -1    0    0    0  501 -0.00000000000E+00 -0.00000000000E+00 -0.17775587810E+04  0.17775587810E+04  0.00000000000E+00 0.  1.
         23    2    1    2    0    0 -0.56302602619E+03  0.54595988250E+03  0.20875460964E+03  0.81707068684E+03  0.94633613398E+02 0.  0.
        254    2    1    2    0    0  0.56302602619E+03 -0.54595988250E+03 -0.12316403906E+04  0.17151610942E+04  0.89987167292E+03 0.  0.
         23    2    4    4    0    0 -0.12935102513E+03  0.37356599471E+02  0.24277640542E+02  0.16437101527E+03  0.91111050936E+02 0.  0.
         23    2    4    4    0    0  0.69237705132E+03 -0.58331648197E+03 -0.12559180311E+04  0.15507900789E+04  0.89306598526E+02 0.  0.
          2    1    3    3  502    0 -0.27193827481E+03  0.21281264738E+03  0.12210030248E+03  0.36626238144E+03  0.00000000000E+00 0. -1.
         -2    1    3    3    0  502 -0.29108775138E+03  0.33314723512E+03  0.86654307158E+02  0.45080830541E+03  0.00000000000E+00 0.  1.
         11    1    5    5    0    0 -0.42100574293E+01 -0.23077063095E+02  0.59282786550E+01  0.24195452309E+02  0.00000000000E+00 0. -1.
        -11    1    5    5    0    0 -0.12514096770E+03  0.60433662566E+02  0.18349361887E+02  0.14017556296E+03  0.00000000000E+00 0.  1.
          1    1    6    6  503    0  0.23187667950E+03 -0.22958394790E+03 -0.51076659411E+03  0.60610073196E+03  0.00000000000E+00 0. -1.
         -1    1    6    6    0  503  0.46050037182E+03 -0.35373253408E+03 -0.74515143703E+03  0.94468934694E+03  0.00000000000E+00 0.  1.
<mgrwt>
<rscale>  0 0.23164418E+04</rscale>
<asrwt>0</asrwt>
<pdfrwt beam="1">  1        1 0.11610354E+00 0.23164418E+04</pdfrwt>
<pdfrwt beam="2">  1       -1 0.27347058E+00 0.23164418E+04</pdfrwt>
<totfact> 0.10741245E+00</totfact>
</mgrwt>
</event>
<event>
12    2  0.8147979E-008  0.1845105E+04  0.7818608E-02  0.8682674E-01
          2   -1    0    0  501    0  0.00000000000E+00  0.00000000000E+00  0.16116502603E+04  0.16116502603E+04  0.00000000000E+00 0. -1.
         -2   -1    0    0    0  501 -0.00000000000E+00 -0.00000000000E+00 -0.52809443340E+03  0.52809443340E+03  0.00000000000E+00 0.  1.
         23    2    1    2    0    0 -0.62731681665E+03  0.57944955709E+02  0.76468846015E+03  0.99490708031E+03  0.90596087188E+02 0.  0.
        254    2    1    2    0    0  0.62731681665E+03 -0.57944955709E+02  0.31886736675E+03  0.11448376134E+04  0.90116189284E+03 0.  0.
         23    2    4    4    0    0 -0.67978278422E+02  0.44475759553E+02  0.41205949348E+03  0.43006750550E+03  0.92552112861E+02 0.  0.
         23    2    4    4    0    0  0.69529509508E+03 -0.10242071526E+03 -0.93192126737E+02  0.71477010789E+03  0.91028910183E+02 0.  0.
          1    1    3    3  502    0 -0.57451345524E+03  0.29746911436E+02  0.71014475445E+03  0.91392349859E+03  0.00000000000E+00 0. -1.
         -1    1    3    3    0  502 -0.52803361412E+02  0.28198044273E+02  0.54543705696E+02  0.80983581721E+02  0.00000000000E+00 0.  1.
         11    1    5    5    0    0 -0.26548068871E+02  0.47266179410E+02  0.35706608978E+03  0.36115797672E+03  0.00000000000E+00 0.  1.
        -11    1    5    5    0    0 -0.41430209551E+02 -0.27904198571E+01  0.54993403702E+02  0.68909528783E+02  0.00000000000E+00 0. -1.
          1    1    6    6  503    0  0.48975114518E+03 -0.10811068766E+03 -0.44863424403E+02  0.50354426999E+03  0.00000000000E+00 0. -1.
         -1    1    6    6    0  503  0.20554394990E+03  0.56899724002E+01 -0.48328702334E+02  0.21122583790E+03  0.00000000000E+00 0.  1.
<mgrwt>
<rscale>  0 0.18451055E+04</rscale>
<asrwt>0</asrwt>
<pdfrwt beam="1">  1        2 0.24794619E+00 0.18451055E+04</pdfrwt>
<pdfrwt beam="2">  1       -2 0.81245298E-01 0.18451055E+04</pdfrwt>
<totfact> 0.13795047E+01</totfact>
</mgrwt>
</event>
<event>
12    2  0.8147979E-008  0.1348762E+04  0.7818608E-02  0.8991766E-01
          1   -1    0    0  501    0  0.00000000000E+00  0.00000000000E+00  0.21100487698E+04  0.21100487698E+04  0.00000000000E+00 0. -1.
         -1   -1    0    0    0  501 -0.00000000000E+00 -0.00000000000E+00 -0.21553516816E+03  0.21553516816E+03  0.00000000000E+00 0.  1.
         23    2    1    2    0    0 -0.10895271109E+03 -0.22628347827E+03  0.71222100873E+02  0.27656845030E+03  0.91337912484E+02 0.  0.
        254    2    1    2    0    0  0.10895271109E+03  0.22628347827E+03  0.18232915008E+04  0.20490154876E+04  0.90055408837E+03 0.  0.
         23    2    4    4    0    0  0.35016597102E+03 -0.21634257067E+03  0.77572438967E+03  0.88286600003E+03  0.91014999537E+02 0.  0.
         23    2    4    4    0    0 -0.24121325993E+03  0.44262604894E+03  0.10475671111E+04  0.11661494876E+04  0.91684891161E+02 0.  0.
          1    1    3    3  502    0 -0.50312528121E+01 -0.52493267532E+02  0.50508860585E+02  0.73020556275E+02  0.00000000000E+00 0. -1.
         -1    1    3    3    0  502 -0.10392145828E+03 -0.17379021074E+03  0.20713240287E+02  0.20354789402E+03  0.00000000000E+00 0.  1.
         11    1    5    5    0    0  0.26092380571E+01 -0.98968539901E+00  0.48523205937E+02  0.48603385837E+02  0.00000000000E+00 0.  1.
        -11    1    5    5    0    0  0.34755673296E+03 -0.21535288527E+03  0.72720118374E+03  0.83426261420E+03  0.00000000000E+00 0. -1.
          4    1    6    6  503    0 -0.10636584104E+02  0.75574771349E+02  0.11868055856E+03  0.14110194175E+03  0.00000000000E+00 0.  1.
         -4    1    6    6    0  503 -0.23057667582E+03  0.36705127759E+03  0.92888655252E+03  0.10250475459E+04  0.00000000000E+00 0. -1.
<mgrwt>
<rscale>  0 0.13487620E+04</rscale>
<asrwt>0</asrwt>
<pdfrwt beam="1">  1        1 0.32462287E+00 0.13487620E+04</pdfrwt>
<pdfrwt beam="2">  1       -1 0.33159258E-01 0.13487620E+04</pdfrwt>
<totfact> 0.21023006E+01</totfact>
</mgrwt>
</event>
<event>
12    2  0.8147979E-008  0.2499649E+04  0.7818608E-02  0.8403110E-01
         -1   -1    0    0    0  501 -0.00000000000E+00  0.00000000000E+00  0.44345358963E+03  0.44345358963E+03  0.00000000000E+00 0.  1.
          1   -1    0    0  501    0  0.00000000000E+00 -0.00000000000E+00 -0.35224922372E+04  0.35224922372E+04  0.00000000000E+00 0. -1.
         23    2    1    2    0    0  0.69079492351E+03 -0.50360209069E+03 -0.27959977782E+03  0.90469727066E+03  0.97408540088E+02 0.  0.
        254    2    1    2    0    0 -0.69079492351E+03  0.50360209069E+03 -0.27994388698E+04  0.30612485562E+04  0.89642180092E+03 0.  0.
         23    2    4    4    0    0 -0.16166200854E+03  0.25456479924E+03 -0.21853079554E+04  0.22081396663E+04  0.96809523731E+02 0.  0.
         23    2    4    4    0    0 -0.52913291497E+03  0.24903729145E+03 -0.61413091433E+03  0.85310888987E+03  0.92934298328E+02 0.  0.
          2    1    3    3  502    0  0.46038733324E+03 -0.38399504238E+03 -0.17212815870E+03  0.62372813965E+03  0.00000000000E+00 0. -1.
         -2    1    3    3    0  502  0.23040759027E+03 -0.11960704831E+03 -0.10747161913E+03  0.28096913101E+03  0.00000000000E+00 0.  1.
         11    1    5    5    0    0 -0.16663608050E+03  0.25939504453E+03 -0.21602700021E+04  0.21821594476E+04  0.00000000000E+00 0. -1.
        -11    1    5    5    0    0  0.49740719603E+01 -0.48302452959E+01 -0.25037953296E+02  0.25980218759E+02  0.00000000000E+00 0.  1.
          1    1    6    6  503    0 -0.29617366807E+03  0.18591664750E+03 -0.33762688845E+03  0.48608204789E+03  0.00000000000E+00 0. -1.
         -1    1    6    6    0  503 -0.23295924690E+03  0.63120643954E+02 -0.27650402587E+03  0.36702684198E+03  0.00000000000E+00 0.  1.
<mgrwt>
<rscale>  0 0.24996494E+04</rscale>
<asrwt>0</asrwt>
<pdfrwt beam="1">  1        1 0.54192190E+00 0.24996494E+04</pdfrwt>
<pdfrwt beam="2">  1       -1 0.68223627E-01 0.24996494E+04</pdfrwt>
<totfact> 0.46394614E-01</totfact>
</mgrwt>
</event>
<event>
12    2  0.8147979E-008  0.3267637E+04  0.7818608E-02  0.8171179E-01
          3   -1    0    0  501    0  0.00000000000E+00  0.00000000000E+00  0.22234045621E+04  0.22234045621E+04  0.00000000000E+00 0. -1.
         -3   -1    0    0    0  501 -0.00000000000E+00 -0.00000000000E+00 -0.12005745143E+04  0.12005745143E+04  0.00000000000E+00 0.  1.
         23    2    1    2    0    0 -0.77928506320E+03  0.12877868852E+04  0.37561703195E+03  0.15542885643E+04  0.95102655815E+02 0.  0.
        254    2    1    2    0    0  0.77928506320E+03 -0.12877868852E+04  0.64721301579E+03  0.18696905120E+04  0.90065401329E+03 0.  0.
         23    2    4    4    0    0  0.24258311814E+03 -0.69449162923E+03  0.75450166798E+03  0.10576748686E+04  0.90764356807E+02 0.  0.
         23    2    4    4    0    0  0.53670194507E+03 -0.59329525595E+03 -0.10728865219E+03  0.81201564341E+03  0.88375967842E+02 0.  0.
          3    1    3    3  502    0 -0.46057532255E+03  0.67038819680E+03  0.19597408125E+03  0.83663361316E+03  0.00000000000E+00 0. -1.
         -3    1    3    3    0  502 -0.31870974065E+03  0.61739868837E+03  0.17964295070E+03  0.71765495116E+03  0.00000000000E+00 0.  1.
         11    1    5    5    0    0  0.92861146329E+02 -0.32416419199E+03  0.28736113909E+03  0.44303728976E+03  0.00000000000E+00 0. -1.
        -11    1    5    5    0    0  0.14972197181E+03 -0.37032743724E+03  0.46714052890E+03  0.61463757886E+03  0.00000000000E+00 0.  1.
          1    1    6    6  503    0  0.51489372000E+03 -0.58256506999E+03 -0.11619724473E+03  0.78612938080E+03  0.00000000000E+00 0. -1.
         -1    1    6    6    0  503  0.21808225064E+02 -0.10730185951E+02  0.89085925381E+01  0.25886262611E+02  0.00000000000E+00 0.  1.
<mgrwt>
<rscale>  0 0.32676370E+04</rscale>
<asrwt>0</asrwt>
<pdfrwt beam="1">  1        3 0.34206224E+00 0.32676370E+04</pdfrwt>
<pdfrwt beam="2">  1       -3 0.18470377E+00 0.32676370E+04</pdfrwt>
<totfact> 0.90807596E-03</totfact>
</mgrwt>
</event>
<event>
12    2  0.8147979E-008  0.2707531E+04  0.7818608E-02  0.8332566E-01
         -1   -1    0    0    0  501 -0.00000000000E+00  0.00000000000E+00  0.11344550340E+04  0.11344550340E+04  0.00000000000E+00 0.  1.
          1   -1    0    0  501    0  0.00000000000E+00 -0.00000000000E+00 -0.16154725466E+04  0.16154725466E+04  0.00000000000E+00 0. -1.
         23    2    1    2    0    0  0.11953382240E+04 -0.85153124948E+02 -0.31600597846E+03  0.12426056771E+04  0.90136373470E+02 0.  0.
        254    2    1    2    0    0 -0.11953382240E+04  0.85153124948E+02 -0.16501153415E+03  0.15073219034E+04  0.89928081796E+03 0.  0.
         23    2    4    4    0    0 -0.99489695931E+03 -0.28695152017E+03 -0.24341533526E+03  0.10676024331E+04  0.91448319092E+02 0.  0.
         23    2    4    4    0    0 -0.20044126474E+03  0.37210464512E+03  0.78403801110E+02  0.43971947035E+03  0.92560731706E+02 0.  0.
          4    1    3    3  502    0  0.59541242660E+03  0.24364766299E+01 -0.15096706605E+03  0.61425804773E+03  0.00000000000E+00 0. -1.
         -4    1    3    3    0  502  0.59992579745E+03 -0.87589601578E+02 -0.16503891241E+03  0.62834762939E+03  0.00000000000E+00 0.  1.
         11    1    5    5    0    0 -0.54581070776E+02  0.41611948365E+01 -0.63194803387E+01  0.55103036770E+02  0.00000000000E+00 0. -1.
        -11    1    5    5    0    0 -0.94031588854E+03 -0.29111271500E+03 -0.23709585492E+03  0.10124993963E+04  0.00000000000E+00 0.  1.
          4    1    6    6  503    0 -0.20958150995E+02  0.11906207664E+03  0.38811641125E+02  0.12696994004E+03  0.00000000000E+00 0. -1.
         -4    1    6    6    0  503 -0.17948311374E+03  0.25304256847E+03  0.39592159985E+02  0.31274953031E+03  0.00000000000E+00 0.  1.
<mgrwt>
<rscale>  0 0.27075310E+04</rscale>
<asrwt>0</asrwt>
<pdfrwt beam="1">  1        1 0.24853424E+00 0.27075310E+04</pdfrwt>
<pdfrwt beam="2">  1       -1 0.17453154E+00 0.27075310E+04</pdfrwt>
<totfact> 0.10832511E+00</totfact>
</mgrwt>
</event>
<event>
12    2  0.8147979E-008  0.1576769E+04  0.7818608E-02  0.8834948E-01
         -3   -1    0    0    0  501 -0.00000000000E+00  0.00000000000E+00  0.95110970270E+03  0.95110970270E+03  0.00000000000E+00 0.  1.
          3   -1    0    0  501    0  0.00000000000E+00 -0.00000000000E+00 -0.65350010285E+03  0.65350010285E+03  0.00000000000E+00 0. -1.
         23    2    1    2    0    0  0.18208003899E+02  0.51339621870E+03 -0.34164084870E+01  0.52168922111E+03  0.90778647236E+02 0.  0.
        254    2    1    2    0    0 -0.18208003899E+02 -0.51339621870E+03  0.30102600834E+03  0.10829205844E+04  0.90454028418E+03 0.  0.
         23    2    4    4    0    0 -0.31005289806E+03 -0.22421848862E+03  0.48323246857E+03  0.62321617135E+03  0.92076312423E+02 0.  0.
         23    2    4    4    0    0  0.29184489416E+03 -0.28917773008E+03 -0.18220646024E+03  0.45970441308E+03  0.96600990869E+02 0.  0.
          4    1    3    3  502    0 -0.22242471907E+02  0.17093685796E+03 -0.33270552300E+02  0.17555929658E+03  0.00000000000E+00 0. -1.
         -4    1    3    3    0  502  0.40450475806E+02  0.34245936075E+03  0.29854143813E+02  0.34612992454E+03  0.00000000000E+00 0.  1.
         11    1    5    5    0    0 -0.14212928497E+03 -0.49646316161E+02  0.20447325803E+03  0.25391889178E+03  0.00000000000E+00 0. -1.
        -11    1    5    5    0    0 -0.16792361309E+03 -0.17457217246E+03  0.27875921054E+03  0.36929727956E+03  0.00000000000E+00 0.  1.
          1    1    6    6  503    0  0.15645244978E+03 -0.17919348766E+03 -0.55954213467E+02  0.24437378965E+03  0.00000000000E+00 0. -1.
         -1    1    6    6    0  503  0.13539244438E+03 -0.10998424242E+03 -0.12625224677E+03  0.21533062344E+03  0.00000000000E+00 0.  1.
<mgrwt>
<rscale>  0 0.15767692E+04</rscale>
<asrwt>0</asrwt>
<pdfrwt beam="1">  1        3 0.10053848E+00 0.15767692E+04</pdfrwt>
<pdfrwt beam="2">  1       -3 0.14632457E+00 0.15767692E+04</pdfrwt>
<totfact> 0.74734418E-01</totfact>
</mgrwt>
</event>
<event>
12    2  0.8147979E-008  0.1086271E+04  0.7818608E-02  0.9218677E-01
          2   -1    0    0  501    0  0.00000000000E+00  0.00000000000E+00  0.29714186397E+04  0.29714186397E+04  0.00000000000E+00 0. -1.
         -2   -1    0    0    0  501 -0.00000000000E+00 -0.00000000000E+00 -0.99277868998E+02  0.99277868998E+02  0.00000000000E+00 0.  1.
         23    2    1    2    0    0  0.11313029390E+03  0.85409981083E+02  0.46629109630E+03  0.49548036958E+03  0.89331304086E+02 0.  0.
        254    2    1    2    0    0 -0.11313029390E+03 -0.85409981083E+02  0.24058496744E+04  0.25752161391E+04  0.90748673767E+03 0.  0.
         23    2    4    4    0    0  0.49169964430E+02  0.38015002881E+03  0.78449571973E+03  0.87797382640E+03  0.92047681922E+02 0.  0.
         23    2    4    4    0    0 -0.16230025833E+03 -0.46556000989E+03  0.16213539547E+04  0.16972423127E+04  0.93569894162E+02 0.  0.
          1    1    3    3  502    0  0.34344087414E+02 -0.10391440164E+02  0.53204125060E+02  0.64173026206E+02  0.00000000000E+00 0.  1.
         -1    1    3    3    0  502  0.78786206486E+02  0.95801421247E+02  0.41308697124E+03  0.43130734338E+03  0.00000000000E+00 0. -1.
         11    1    5    5    0    0  0.59224692379E+02  0.36378701799E+03  0.69762197956E+03  0.78900252535E+03  0.00000000000E+00 0.  1.
        -11    1    5    5    0    0 -0.10054727949E+02  0.16363010815E+02  0.86873740180E+02  0.88971301046E+02  0.00000000000E+00 0. -1.
          1    1    6    6  503    0 -0.66250892614E+01  0.19418718429E+01  0.94203278339E+01  0.11679265836E+02  0.00000000000E+00 0. -1.
         -1    1    6    6    0  503 -0.15567516907E+03 -0.46750188174E+03  0.16119336268E+04  0.16855630469E+04  0.00000000000E+00 0.  1.
<mgrwt>
<rscale>  0 0.10862709E+04</rscale>
<asrwt>0</asrwt>
<pdfrwt beam="1">  1        2 0.45714126E+00 0.10862709E+04</pdfrwt>
<pdfrwt beam="2">  1       -2 0.15273521E-01 0.10862709E+04</pdfrwt>
<totfact> 0.62558905E+01</totfact>
</mgrwt>
</event>
<event>
12    2  0.8147979E-008  0.2075558E+04  0.7818608E-02  0.8572087E-01
         -1   -1    0    0    0  501 -0.00000000000E+00  0.00000000000E+00  0.56843516536E+03  0.56843516536E+03  0.00000000000E+00 0.  1.
          1   -1    0    0  501    0  0.00000000000E+00 -0.00000000000E+00 -0.18946488425E+04  0.18946488425E+04  0.00000000000E+00 0. -1.
         23    2    1    2    0    0 -0.42151175978E+02 -0.83841534296E+03 -0.55279134694E+03  0.10097110960E+04  0.96027158979E+02 0.  0.
        254    2    1    2    0    0  0.42151175978E+02  0.83841534296E+03 -0.77342233021E+03  0.14533729118E+04  0.89966310975E+03 0.  0.
         23    2    4    4    0    0 -0.13122043780E+03  0.39999079442E+03  0.11246639013E+03  0.44506198010E+03  0.90664426884E+02 0.  0.
         23    2    4    4    0    0  0.17337161377E+03  0.43842454854E+03 -0.88588872034E+03  0.10083109317E+04  0.98072977965E+02 0.  0.
          1    1    3    3  502    0 -0.21917483694E+02 -0.71465176574E+03 -0.50571415117E+03  0.87575928488E+03  0.00000000000E+00 0. -1.
         -1    1    3    3    0  502 -0.20233692283E+02 -0.12376357723E+03 -0.47077195773E+02  0.13395181116E+03  0.00000000000E+00 0.  1.
         11    1    5    5    0    0 -0.11714224899E+03  0.36990631584E+03  0.75362286018E+02  0.39526252434E+03  0.00000000000E+00 0. -1.
        -11    1    5    5    0    0 -0.14078188807E+02  0.30084478587E+02  0.37104104112E+02  0.49799455759E+02  0.00000000000E+00 0.  1.
          2    1    6    6  503    0  0.17066443493E+03  0.38719520732E+03 -0.83477369097E+03  0.93589187039E+03  0.00000000000E+00 0. -1.
         -2    1    6    6    0  503  0.27071788409E+01  0.51229341219E+02 -0.51115029373E+02  0.72419061349E+02  0.00000000000E+00 0.  1.
<mgrwt>
<rscale>  0 0.20755578E+04</rscale>
<asrwt>0</asrwt>
<pdfrwt beam="1">  1        1 0.29148443E+00 0.20755578E+04</pdfrwt>
<pdfrwt beam="2">  1       -1 0.87451565E-01 0.20755578E+04</pdfrwt>
<totfact> 0.41660040E+00</totfact>
</mgrwt>
</event>
<event>
12    2  0.8147979E-008  0.3980647E+04  0.7818608E-02  0.8008462E-01
          1   -1    0    0  501    0  0.00000000000E+00  0.00000000000E+00  0.21462223857E+04  0.21462223857E+04  0.00000000000E+00 0. -1.
         -1   -1    0    0    0  501 -0.00000000000E+00 -0.00000000000E+00 -0.18457490866E+04  0.18457490866E+04  0.00000000000E+00 0.  1.
         23    2    1    2    0    0 -0.88401371876E+03 -0.15130314270E+04 -0.56032652728E+03  0.18417642732E+04  0.85938739084E+02 0.  0.
        254    2    1    2    0    0  0.88401371876E+03  0.15130314270E+04  0.86079982636E+03  0.21502071990E+04  0.90092746871E+03 0.  0.
         23    2    4    4    0    0  0.26057599262E+03  0.10810498717E+04  0.18671382990E+03  0.11313013957E+04  0.91717613613E+02 0.  0.
         23    2    4    4    0    0  0.62343772614E+03  0.43198155528E+03  0.67408599646E+03  0.10189058034E+04  0.92165302607E+02 0.  0.
          4    1    3    3  502    0 -0.33906681562E+03 -0.52576124442E+03 -0.16790525987E+03  0.64775255143E+03  0.00000000000E+00 0. -1.
         -4    1    3    3    0  502 -0.54494690314E+03 -0.98727018254E+03 -0.39242126740E+03  0.11940117218E+04  0.00000000000E+00 0.  1.
         11    1    5    5    0    0  0.16247802304E+03  0.79926857142E+03  0.10808831424E+03  0.82274688751E+03  0.00000000000E+00 0. -1.
        -11    1    5    5    0    0  0.98097969581E+02  0.28178130026E+03  0.78625515659E+02  0.30855450819E+03  0.00000000000E+00 0.  1.
          2    1    6    6  503    0  0.54565586293E+03  0.40450130662E+03  0.62427374652E+03  0.92253961346E+03  0.00000000000E+00 0. -1.
         -2    1    6    6    0  503  0.77781863205E+02  0.27480248661E+02  0.49812249946E+02  0.96366189894E+02  0.00000000000E+00 0.  1.
<mgrwt>
<rscale>  0 0.39806472E+04</rscale>
<asrwt>0</asrwt>
<pdfrwt beam="1">  1        1 0.33018806E+00 0.39806472E+04</pdfrwt>
<pdfrwt beam="2">  1       -1 0.28396140E+00 0.39806472E+04</pdfrwt>
<totfact> 0.77960676E-02</totfact>
</mgrwt>
</event>
<event>
12    2  0.8147979E-008  0.1685872E+04  0.7818608E-02  0.8769463E-01
          1   -1    0    0  501    0  0.00000000000E+00  0.00000000000E+00  0.25076341235E+04  0.25076341235E+04  0.00000000000E+00 0. -1.
         -1   -1    0    0    0  501 -0.00000000000E+00 -0.00000000000E+00 -0.28335133270E+03  0.28335133270E+03  0.00000000000E+00 0.  1.
         23    2    1    2    0    0  0.14849325222E+03 -0.17548928587E+03  0.17159750058E+04  0.17336544671E+04  0.90226687965E+02 0.  0.
        254    2    1    2    0    0 -0.14849325222E+03  0.17548928587E+03  0.50830778492E+03  0.10573309891E+04  0.89817886905E+03 0.  0.
         23    2    4    4    0    0 -0.30228968119E+03  0.46139697811E+03  0.44457948205E+03  0.71448068502E+03  0.92550043987E+02 0.  0.
         23    2    4    4    0    0  0.15379642897E+03 -0.28590769224E+03  0.63728302868E+02  0.34285030404E+03  0.89936001411E+02 0.  0.
          3    1    3    3  502    0  0.80488173993E+02 -0.72881930675E+02  0.11103059112E+04  0.11156026795E+04  0.00000000000E+00 0. -1.
         -3    1    3    3    0  502  0.68005078228E+02 -0.10260735519E+03  0.60566909464E+03  0.61805178764E+03  0.00000000000E+00 0.  1.
         11    1    5    5    0    0 -0.31323451008E+02  0.90099973886E+02  0.11204643486E+03  0.14715151186E+03  0.00000000000E+00 0. -1.
        -11    1    5    5    0    0 -0.27096623018E+03  0.37129700422E+03  0.33253304719E+03  0.56732917316E+03  0.00000000000E+00 0.  1.
          2    1    6    6  503    0  0.39678778257E+02 -0.67452995282E+02  0.56059991694E+02  0.96265438685E+02  0.00000000000E+00 0. -1.
         -2    1    6    6    0  503  0.11411765071E+03 -0.21845469696E+03  0.76683111747E+01  0.24658486536E+03  0.00000000000E+00 0.  1.
<mgrwt>
<rscale>  0 0.16858724E+04</rscale>
<asrwt>0</asrwt>
<pdfrwt beam="1">  1        1 0.38578985E+00 0.16858724E+04</pdfrwt>
<pdfrwt beam="2">  1       -1 0.43592514E-01 0.16858724E+04</pdfrwt>
<totfact> 0.66365475E+00</totfact>
</mgrwt>
</event>
<event>
12    2  0.8147979E-008  0.1149156E+04  0.7818608E-02  0.9158562E-01
         -1   -1    0    0    0  501 -0.00000000000E+00  0.00000000000E+00  0.12400101244E+03  0.12400101244E+03  0.00000000000E+00 0.  1.
          1   -1    0    0  501    0  0.00000000000E+00 -0.00000000000E+00 -0.26623987091E+04  0.26623987091E+04  0.00000000000E+00 0. -1.
         23    2    1    2    0    0  0.20183232770E+03  0.30194091807E+02 -0.40252696479E+03  0.46041845162E+03  0.91154931470E+02 0.  0.
        254    2    1    2    0    0 -0.20183232770E+03 -0.30194091807E+02 -0.21358707319E+04  0.23259812699E+04  0.89810751754E+03 0.  0.
         23    2    4    4    0    0 -0.16918308770E+03 -0.43369584329E+03 -0.83813336138E+03  0.96319125140E+03  0.92492451997E+02 0.  0.
         23    2    4    4    0    0 -0.32649240002E+02  0.40350175148E+03 -0.12977373705E+04  0.13627900185E+04  0.95889079007E+02 0.  0.
          4    1    3    3  502    0  0.42502878564E+02  0.35480542690E+02 -0.16760816835E+03  0.17651589644E+03  0.00000000000E+00 0. -1.
         -4    1    3    3    0  502  0.15932944914E+03 -0.52864508829E+01 -0.23491879643E+03  0.28390255519E+03  0.00000000000E+00 0.  1.
         11    1    5    5    0    0 -0.89770236846E+02 -0.22377991250E+03 -0.33983597483E+03  0.41668289436E+03  0.00000000000E+00 0. -1.
        -11    1    5    5    0    0 -0.79412850851E+02 -0.20991593078E+03 -0.49829738655E+03  0.54650835704E+03  0.00000000000E+00 0.  1.
          1    1    6    6  503    0  0.22843677376E+02  0.22452708849E+03 -0.78892305962E+03  0.82056921772E+03  0.00000000000E+00 0. -1.
         -1    1    6    6    0  503 -0.55492917378E+02  0.17897466299E+03 -0.50881431087E+03  0.54222080080E+03  0.00000000000E+00 0.  1.
<mgrwt>
<rscale>  0 0.11491564E+04</rscale>
<asrwt>0</asrwt>
<pdfrwt beam="1">  1        1 0.40959976E+00 0.11491564E+04</pdfrwt>
<pdfrwt beam="2">  1       -1 0.19077081E-01 0.11491564E+04</pdfrwt>
<totfact> 0.23159702E+01</totfact>
</mgrwt>
</event>
<event>
12    2  0.8147979E-008  0.1548672E+04  0.7818608E-02  0.8852716E-01
         -2   -1    0    0    0  501 -0.00000000000E+00  0.00000000000E+00  0.55070061423E+03  0.55070061423E+03  0.00000000000E+00 0.  1.
          2   -1    0    0  501    0  0.00000000000E+00 -0.00000000000E+00 -0.10887881461E+04  0.10887881461E+04  0.00000000000E+00 0. -1.
         23    2    1    2    0    0 -0.20930570090E+03  0.45588933692E+03 -0.99090260569E+02  0.52034705832E+03  0.96427264885E+02 0.  0.
        254    2    1    2    0    0  0.20930570090E+03 -0.45588933692E+03 -0.43899727135E+03  0.11191417021E+04  0.89895249100E+03 0.  0.
         23    2    4    4    0    0 -0.13527527052E+03 -0.59414346530E+02  0.21479451520E+03  0.27548472685E+03  0.89026330846E+02 0.  0.
         23    2    4    4    0    0  0.34458097142E+03 -0.39647499039E+03 -0.65379178655E+03  0.84365697520E+03  0.91569251221E+02 0.  0.
          3    1    3    3  502    0 -0.48495050475E+02  0.88911761931E+02 -0.60153455916E+02  0.11779435296E+03  0.00000000000E+00 0. -1.
         -3    1    3    3    0  502 -0.16081065043E+03  0.36697757499E+03 -0.38936804653E+02  0.40255270536E+03  0.00000000000E+00 0.  1.
         11    1    5    5    0    0 -0.12672943143E+03 -0.35343283671E+02  0.12265950466E+03  0.17987454120E+03  0.00000000000E+00 0. -1.
        -11    1    5    5    0    0 -0.85458390898E+01 -0.24071062860E+02  0.92135010541E+02  0.95610185652E+02  0.00000000000E+00 0.  1.
          3    1    6    6  503    0  0.21152691254E+03 -0.21349393723E+03 -0.30722003613E+03  0.42977604234E+03  0.00000000000E+00 0. -1.
         -3    1    6    6    0  503  0.13305405887E+03 -0.18298105317E+03 -0.34657175042E+03  0.41388093286E+03  0.00000000000E+00 0.  1.
<mgrwt>
<rscale>  0 0.15486721E+04</rscale>
<asrwt>0</asrwt>
<pdfrwt beam="1">  1        2 0.16750587E+00 0.15486721E+04</pdfrwt>
<pdfrwt beam="2">  1       -2 0.84723172E-01 0.15486721E+04</pdfrwt>
<totfact> 0.25874457E+01</totfact>
</mgrwt>
</event>
<event>
12    2  0.8147979E-008  0.2016242E+04  0.7818608E-02  0.8599064E-01
         -1   -1    0    0    0  501 -0.00000000000E+00  0.00000000000E+00  0.46650745501E+03  0.46650745501E+03  0.00000000000E+00 0.  1.
          1   -1    0    0  501    0  0.00000000000E+00 -0.00000000000E+00 -0.21785459472E+04  0.21785459472E+04  0.00000000000E+00 0. -1.
         23    2    1    2    0    0  0.75217075106E+02  0.72659752607E+03 -0.24460357346E+03  0.77566782352E+03  0.90708825467E+02 0.  0.
        254    2    1    2    0    0 -0.75217075106E+02 -0.72659752607E+03 -0.14674349187E+04  0.18693855787E+04  0.89868549995E+03 0.  0.
         23    2    4    4    0    0 -0.22052658313E+03  0.57759060335E+02 -0.65101856350E+02  0.25341570150E+03  0.89516384791E+02 0.  0.
         23    2    4    4    0    0  0.14530950803E+03 -0.78435658640E+03 -0.14023330623E+04  0.16159698772E+04  0.92144008986E+02 0.  0.
          4    1    3    3  502    0  0.67348639194E+01  0.68887037184E+02 -0.53077371425E+02  0.87223790570E+02  0.00000000000E+00 0. -1.
         -4    1    3    3    0  502  0.68482211187E+02  0.65771048888E+03 -0.19152620203E+03  0.68844403295E+03  0.00000000000E+00 0.  1.
         11    1    5    5    0    0 -0.22128851641E+03  0.40123214756E+02 -0.69184124199E+02  0.23529751996E+03  0.00000000000E+00 0.  1.
        -11    1    5    5    0    0  0.76193327422E+00  0.17635845579E+02  0.40822678484E+01  0.18118181542E+02  0.00000000000E+00 0. -1.
          1    1    6    6  503    0 -0.92322212959E+01 -0.14018875718E+03 -0.23743740463E+03  0.27588882302E+03  0.00000000000E+00 0. -1.
         -1    1    6    6    0  503  0.15454172932E+03 -0.64416782922E+03 -0.11648956577E+04  0.13400810541E+04  0.00000000000E+00 0.  1.
<mgrwt>
<rscale>  0 0.20162420E+04</rscale>
<asrwt>0</asrwt>
<pdfrwt beam="1">  1        1 0.33516091E+00 0.20162420E+04</pdfrwt>
<pdfrwt beam="2">  1       -1 0.71770378E-01 0.20162420E+04</pdfrwt>
<totfact> 0.40902019E+00</totfact>
</mgrwt>
</event>
<event>
12    2  0.8147979E-008  0.1452789E+04  0.7818608E-02  0.8916469E-01
          2   -1    0    0  501    0  0.00000000000E+00  0.00000000000E+00  0.16134574137E+04  0.16134574137E+04  0.00000000000E+00 0. -1.
         -2   -1    0    0    0  501 -0.00000000000E+00 -0.00000000000E+00 -0.32703012645E+03  0.32703012645E+03  0.00000000000E+00 0.  1.
         23    2    1    2    0    0 -0.31232835251E+02  0.74448207155E+02  0.96313363396E+03  0.97080704975E+03  0.91224478274E+02 0.  0.
        254    2    1    2    0    0  0.31232835251E+02 -0.74448207155E+02  0.32329365327E+03  0.96968049038E+03  0.91062804791E+03 0.  0.
         23    2    4    4    0    0 -0.13566972001E+02 -0.15151735466E+03 -0.29210681924E+03  0.34110707838E+03  0.88803567399E+02 0.  0.
         23    2    4    4    0    0  0.44799807253E+02  0.77069147507E+02  0.61540047250E+03  0.62857341200E+03  0.91870106623E+02 0.  0.
          3    1    3    3  502    0 -0.26818177623E+02  0.25389515048E+02  0.78837135377E+03  0.78923585421E+03  0.00000000000E+00 0. -1.
         -3    1    3    3    0  502 -0.44146576282E+01  0.49058692107E+02  0.17476228019E+03  0.18157119554E+03  0.00000000000E+00 0.  1.
         11    1    5    5    0    0  0.12093201864E+02 -0.14215858734E+03 -0.27214864341E+03  0.30727869043E+03  0.00000000000E+00 0.  1.
        -11    1    5    5    0    0 -0.25660173866E+02 -0.93587673196E+01 -0.19958175832E+02  0.33828387947E+02  0.00000000000E+00 0. -1.
          1    1    6    6  503    0  0.20207429242E+01  0.63529923825E+02  0.18050391623E+03  0.19136822724E+03  0.00000000000E+00 0. -1.
         -1    1    6    6    0  503  0.42779064328E+02  0.13539223682E+02  0.43489655628E+03  0.43720518476E+03  0.00000000000E+00 0.  1.
<mgrwt>
<rscale>  0 0.14527893E+04</rscale>
<asrwt>0</asrwt>
<pdfrwt beam="1">  1        2 0.24822421E+00 0.14527893E+04</pdfrwt>
<pdfrwt beam="2">  1       -2 0.50312328E-01 0.14527893E+04</pdfrwt>
<totfact> 0.39698570E+01</totfact>
</mgrwt>
</event>
<event>
12    2  0.8147979E-008  0.2682993E+04  0.7818608E-02  0.8340544E-01
         -1   -1    0    0    0  501 -0.00000000000E+00  0.00000000000E+00  0.15626225787E+04  0.15626225787E+04  0.00000000000E+00 0.  1.
          1   -1    0    0  501    0  0.00000000000E+00 -0.00000000000E+00 -0.11516622080E+04  0.11516622080E+04  0.00000000000E+00 0. -1.
         23    2    1    2    0    0  0.10992724734E+04  0.39145777127E+03 -0.46915347871E+02  0.11713682914E+04  0.90903612871E+02 0.  0.
        254    2    1    2    0    0 -0.10992724734E+04 -0.39145777127E+03  0.45787571865E+03  0.15429164953E+04  0.89961212760E+03 0.  0.
         23    2    4    4    0    0 -0.11374349023E+04 -0.14867114794E+03  0.18620514894E+03  0.11661797471E+04  0.97167781871E+02 0.  0.
         23    2    4    4    0    0  0.38162428866E+02 -0.24278662333E+03  0.27167056970E+03  0.37673674819E+03  0.87886082801E+02 0.  0.
          1    1    3    3  502    0  0.92046513801E+03  0.34755952610E+03 -0.66904156898E+02  0.98616928602E+03  0.00000000000E+00 0. -1.
         -1    1    3    3    0  502  0.17880733539E+03  0.43898245168E+02  0.19988809027E+02  0.18519900541E+03  0.00000000000E+00 0.  1.
         11    1    5    5    0    0 -0.35332149368E+03 -0.91249598489E+02  0.52233395913E+02  0.36863382207E+03  0.00000000000E+00 0. -1.
        -11    1    5    5    0    0 -0.78411340859E+03 -0.57421549451E+02  0.13397175303E+03  0.79754592500E+03  0.00000000000E+00 0.  1.
          4    1    6    6  503    0 -0.17288399973E+02 -0.12603231081E+03  0.16978394086E+03  0.21215470468E+03  0.00000000000E+00 0. -1.
         -4    1    6    6    0  503  0.55450828839E+02 -0.11675431252E+03  0.10188662884E+03  0.16458204351E+03  0.00000000000E+00 0.  1.
<mgrwt>
<rscale>  0 0.26829934E+04</rscale>
<asrwt>0</asrwt>
<pdfrwt beam="1">  1        1 0.17717880E+00 0.26829934E+04</pdfrwt>
<pdfrwt beam="2">  1       -1 0.24040347E+00 0.26829934E+04</pdfrwt>
<totfact> 0.81727850E-01</totfact>
</mgrwt>
</event>
<event>
12    2  0.8147979E-008  0.3005729E+04  0.7818608E-02  0.8242097E-01
         -1   -1    0    0    0  501 -0.00000000000E+00  0.00000000000E+00  0.10426060426E+04  0.10426060426E+04  0.00000000000E+00 0.  1.
          1   -1    0    0  501    0  0.00000000000E+00 -0.00000000000E+00 -0.21663046525E+04  0.21663046525E+04  0.00000000000E+00 0. -1.
         23    2    1    2    0    0  0.74294080441E+03  0.54801915163E+03 -0.15872089078E+04  0.18387024737E+04  0.96481296159E+02 0.  0.
        254    2    1    2    0    0 -0.74294080441E+03 -0.54801915163E+03  0.46351029789E+03  0.13702082214E+04  0.90019039339E+03 0.  0.
         23    2    4    4    0    0 -0.70501558254E+03 -0.57404002518E+03  0.18184356633E+02  0.91382463029E+03  0.90420473100E+02 0.  0.
         23    2    4    4    0    0 -0.37925221873E+02  0.26020873552E+02  0.44532594125E+03  0.45638359112E+03  0.88630581481E+02 0.  0.
          4    1    3    3  502    0  0.58753008092E+03  0.38378630462E+03 -0.12215421986E+04  0.14087756622E+04  0.00000000000E+00 0. -1.
         -4    1    3    3    0  502  0.15541072349E+03  0.16423284701E+03 -0.36566670920E+03  0.42992681148E+03  0.00000000000E+00 0.  1.
         11    1    5    5    0    0 -0.15199200388E+03 -0.16281403404E+03 -0.19848986215E+02  0.22361565504E+03  0.00000000000E+00 0.  1.
        -11    1    5    5    0    0 -0.55302357866E+03 -0.41122599114E+03  0.38033342848E+02  0.69020897525E+03  0.00000000000E+00 0. -1.
          4    1    6    6  503    0  0.19078033003E+02  0.10788411804E+02  0.27977762956E+03  0.28063478610E+03  0.00000000000E+00 0. -1.
         -4    1    6    6    0  503 -0.57003254876E+02  0.15232461748E+02  0.16554831170E+03  0.17574880501E+03  0.00000000000E+00 0.  1.
<mgrwt>
<rscale>  0 0.30057294E+04</rscale>
<asrwt>0</asrwt>
<pdfrwt beam="1">  1        1 0.33327763E+00 0.30057294E+04</pdfrwt>
<pdfrwt beam="2">  1       -1 0.16040093E+00 0.30057294E+04</pdfrwt>
<totfact> 0.56693789E-01</totfact>
</mgrwt>
</event>
<event>
12    2  0.8147979E-008  0.1827865E+04  0.7818608E-02  0.8691620E-01
         -1   -1    0    0    0  501 -0.00000000000E+00  0.00000000000E+00  0.44106038583E+03  0.44106038583E+03  0.00000000000E+00 0. -1.
          1   -1    0    0  501    0  0.00000000000E+00 -0.00000000000E+00 -0.18937836581E+04  0.18937836581E+04  0.00000000000E+00 0.  1.
         23    2    1    2    0    0 -0.14305864617E+03  0.38184219799E+03  0.15724677699E+03  0.44527557711E+03  0.85290974259E+02 0.  0.
        254    2    1    2    0    0  0.14305864617E+03 -0.38184219799E+03 -0.16099700493E+04  0.18895684668E+04  0.90121928011E+03 0.  0.
         23    2    4    4    0    0 -0.31173357357E+02 -0.61561984732E+03 -0.73984073737E+03  0.96735458263E+03  0.91929305702E+02 0.  0.
         23    2    4    4    0    0  0.17423200353E+03  0.23377764933E+03 -0.87012931189E+03  0.92221388418E+03  0.91349046992E+02 0.  0.
          2    1    3    3  502    0 -0.68035521603E+01  0.31222976389E+02 -0.10174609339E+02  0.33536327345E+02  0.00000000000E+00 0.  1.
         -2    1    3    3    0  502 -0.13625509401E+03  0.35061922160E+03  0.16742138633E+03  0.41173924977E+03  0.00000000000E+00 0. -1.
         11    1    5    5    0    0  0.27764894329E+02 -0.34642716829E+03 -0.40325473542E+03  0.53235049913E+03  0.00000000000E+00 0.  1.
        -11    1    5    5    0    0 -0.58938251686E+02 -0.26919267903E+03 -0.33658600195E+03  0.43500408350E+03  0.00000000000E+00 0. -1.
          3    1    6    6  503    0  0.18469902237E+03  0.21512457737E+03 -0.79259177812E+03  0.84178027976E+03  0.00000000000E+00 0. -1.
         -3    1    6    6    0  503 -0.10467018836E+02  0.18653071953E+02 -0.77537533772E+02  0.80433604421E+02  0.00000000000E+00 0.  1.
<mgrwt>
<rscale>  0 0.18278654E+04</rscale>
<asrwt>0</asrwt>
<pdfrwt beam="1">  1        1 0.29135133E+00 0.18278654E+04</pdfrwt>
<pdfrwt beam="2">  1       -1 0.67855445E-01 0.18278654E+04</pdfrwt>
<totfact> 0.72829415E+00</totfact>
</mgrwt>
</event>
<event>
12    2  0.8147979E-008  0.1905234E+04  0.7818608E-02  0.8652256E-01
          2   -1    0    0  501    0  0.00000000000E+00  0.00000000000E+00  0.22521612444E+04  0.22521612444E+04  0.00000000000E+00 0.  1.
         -2   -1    0    0    0  501 -0.00000000000E+00 -0.00000000000E+00 -0.40293696202E+03  0.40293696202E+03  0.00000000000E+00 0. -1.
         23    2    1    2    0    0  0.48145342017E+03 -0.55514187811E+03  0.79479460232E+03  0.10862947777E+04  0.91422007897E+02 0.  0.
        254    2    1    2    0    0 -0.48145342017E+03  0.55514187811E+03  0.10544296800E+04  0.15688034287E+04  0.89963456312E+03 0.  0.
         23    2    4    4    0    0  0.13563763953E+03  0.46128600969E+03  0.67155164366E+03  0.83081025713E+03  0.89898394076E+02 0.  0.
         23    2    4    4    0    0 -0.61709105970E+03  0.93855868414E+02  0.38287803638E+03  0.73799317158E+03  0.91804305751E+02 0.  0.
          3    1    3    3  502    0  0.48761198299E+02 -0.66030495251E+02  0.51593552712E+02  0.96951407643E+02  0.00000000000E+00 0. -1.
         -3    1    3    3    0  502  0.43269222188E+03 -0.48911138286E+03  0.74320104961E+03  0.98934337005E+03  0.00000000000E+00 0.  1.
         11    1    5    5    0    0  0.71485098124E+02  0.20824418674E+03  0.23395031748E+03  0.32126081556E+03  0.00000000000E+00 0. -1.
        -11    1    5    5    0    0  0.64152541406E+02  0.25304182295E+03  0.43760132618E+03  0.50954944157E+03  0.00000000000E+00 0.  1.
          4    1    6    6  503    0 -0.46350538595E+03  0.46737160492E+02  0.24534677756E+03  0.52651367146E+03  0.00000000000E+00 0. -1.
         -4    1    6    6    0  503 -0.15358567376E+03  0.47118707922E+02  0.13753125882E+03  0.21147950012E+03  0.00000000000E+00 0.  1.
<mgrwt>
<rscale>  0 0.19052339E+04</rscale>
<asrwt>0</asrwt>
<pdfrwt beam="1">  1        2 0.34648634E+00 0.19052339E+04</pdfrwt>
<pdfrwt beam="2">  1       -2 0.61990303E-01 0.19052339E+04</pdfrwt>
<totfact> 0.10918882E+01</totfact>
</mgrwt>
</event>
<event>
12    2  0.8147979E-008  0.1763229E+04  0.7818608E-02  0.8726102E-01
         -2   -1    0    0    0  501 -0.00000000000E+00  0.00000000000E+00  0.34860040335E+03  0.34860040335E+03  0.00000000000E+00 0.  1.
          2   -1    0    0  501    0  0.00000000000E+00 -0.00000000000E+00 -0.22296130168E+04  0.22296130168E+04  0.00000000000E+00 0. -1.
         23    2    1    2    0    0 -0.30529355163E+03  0.23726857162E+03  0.62028212579E+02  0.40146964447E+03  0.88486431355E+02 0.  0.
        254    2    1    2    0    0  0.30529355163E+03 -0.23726857162E+03 -0.19430408260E+04  0.21767437757E+04  0.90183440032E+03 0.  0.
         23    2    4    4    0    0 -0.13644110008E+03  0.16485180606E+03 -0.11842754671E+04  0.12068512815E+04  0.90494982450E+02 0.  0.
         23    2    4    4    0    0  0.44173465171E+03 -0.40212037768E+03 -0.75876535890E+03  0.96989249418E+03  0.90201328946E+02 0.  0.
          3    1    3    3  502    0 -0.11386877161E+03  0.13318201942E+03  0.11361554875E+01  0.17522796094E+03  0.00000000000E+00 0. -1.
         -3    1    3    3    0  502 -0.19142478001E+03  0.10408655220E+03  0.60892057092E+02  0.22624168354E+03  0.00000000000E+00 0.  1.
         11    1    5    5    0    0 -0.12162051822E+03  0.10298576479E+03 -0.98079276158E+03  0.99365590592E+03  0.00000000000E+00 0. -1.
        -11    1    5    5    0    0 -0.14820581862E+02  0.61866041269E+02 -0.20348270556E+03  0.21319537558E+03  0.00000000000E+00 0.  1.
          2    1    6    6  503    0 -0.17762640132E+01 -0.15913566795E+02 -0.19009385707E+02  0.24854646788E+02  0.00000000000E+00 0.  1.
         -2    1    6    6    0  503  0.44351091572E+03 -0.38620681089E+03 -0.73975597319E+03  0.94503784739E+03  0.00000000000E+00 0. -1.
<mgrwt>
<rscale>  0 0.17632289E+04</rscale>
<asrwt>0</asrwt>
<pdfrwt beam="1">  1        2 0.34301737E+00 0.17632289E+04</pdfrwt>
<pdfrwt beam="2">  1       -2 0.53630834E-01 0.17632289E+04</pdfrwt>
<totfact> 0.15420392E+01</totfact>
</mgrwt>
</event>
<event>
12    2  0.8147979E-008  0.1777741E+04  0.7818608E-02  0.8718227E-01
         -1   -1    0    0    0  501 -0.00000000000E+00  0.00000000000E+00  0.18062116514E+04  0.18062116514E+04  0.00000000000E+00 0.  1.
          1   -1    0    0  501    0  0.00000000000E+00 -0.00000000000E+00 -0.43742999998E+03  0.43742999998E+03  0.00000000000E+00 0. -1.
         23    2    1    2    0    0 -0.45523881951E+03 -0.60931171309E+01 -0.87747198192E+02  0.47224447670E+03  0.89642434800E+02 0.  0.
        254    2    1    2    0    0  0.45523881951E+03  0.60931171309E+01  0.14565288496E+04  0.17713971747E+04  0.89949549852E+03 0.  0.
         23    2    4    4    0    0  0.57646768641E+03 -0.29149526057E+03  0.77820405366E+03  0.10154427299E+04  0.90762923128E+02 0.  0.
         23    2    4    4    0    0 -0.12122886690E+03  0.29758837770E+03  0.67832479594E+03  0.75595444475E+03  0.89929489258E+02 0.  0.
          1    1    3    3  502    0 -0.81092994256E+02 -0.16403187714E+02 -0.48503829431E+02  0.95904951666E+02  0.00000000000E+00 0. -1.
         -1    1    3    3    0  502 -0.37414582525E+03  0.10310070583E+02 -0.39243368761E+02  0.37633952503E+03  0.00000000000E+00 0.  1.
         11    1    5    5    0    0  0.47414507609E+02 -0.77118293103E+01  0.91219796834E+02  0.10309538873E+03  0.00000000000E+00 0.  1.
        -11    1    5    5    0    0  0.52905317880E+03 -0.28378343126E+03  0.68698425683E+03  0.91234734119E+03  0.00000000000E+00 0. -1.
          1    1    6    6  503    0 -0.11265049624E+03  0.25637927896E+03  0.64176302817E+03  0.70020015232E+03  0.00000000000E+00 0. -1.
         -1    1    6    6    0  503 -0.85783706617E+01  0.41209098738E+02  0.36561767776E+02  0.55754292435E+02  0.00000000000E+00 0.  1.
<mgrwt>
<rscale>  0 0.17777414E+04</rscale>
<asrwt>0</asrwt>
<pdfrwt beam="1">  1        1 0.67296924E-01 0.17777414E+04</pdfrwt>
<pdfrwt beam="2">  1       -1 0.27787871E+00 0.17777414E+04</pdfrwt>
<totfact> 0.23122292E+00</totfact>
</mgrwt>
</event>
<event>
12    2  0.8147979E-008  0.1264299E+04  0.7818608E-02  0.9058366E-01
          1   -1    0    0  501    0  0.00000000000E+00  0.00000000000E+00  0.24525399532E+04  0.24525399532E+04  0.00000000000E+00 0. -1.
         -1   -1    0    0    0  501 -0.00000000000E+00 -0.00000000000E+00 -0.16293831604E+03  0.16293831604E+03  0.00000000000E+00 0.  1.
         23    2    1    2    0    0 -0.28284066544E+03 -0.82334101428E+02  0.81102521163E+03  0.86703817096E+03  0.84944391939E+02 0.  0.
        254    2    1    2    0    0  0.28284066544E+03  0.82334101428E+02  0.14785764255E+04  0.17484400983E+04  0.88548110363E+03 0.  0.
         23    2    4    4    0    0  0.36631275118E+03 -0.16556297713E+03  0.23584392554E+03  0.47525196775E+03  0.92983571435E+02 0.  0.
         23    2    4    4    0    0 -0.83472085745E+02  0.24789707856E+03  0.12427325000E+04  0.12731881305E+04  0.90572614903E+02 0.  0.
          4    1    3    3  502    0 -0.19784570686E+03 -0.83984898121E+02  0.65491089232E+03  0.68927836446E+03  0.00000000000E+00 0. -1.
         -4    1    3    3    0  502 -0.84994958575E+02  0.16507966936E+01  0.15611431930E+03  0.17775980649E+03  0.00000000000E+00 0.  1.
         11    1    5    5    0    0  0.18353581101E+03 -0.84934507020E+02  0.17211786539E+03  0.26556322033E+03  0.00000000000E+00 0.  1.
        -11    1    5    5    0    0  0.18277694017E+03 -0.80628470108E+02  0.63726060156E+02  0.20968874742E+03  0.00000000000E+00 0. -1.
          3    1    6    6  503    0 -0.91746343045E+02  0.22982750200E+03  0.12087473584E+04  0.12338185638E+04  0.00000000000E+00 0. -1.
         -3    1    6    6    0  503  0.82742573001E+01  0.18069576552E+02  0.33985141630E+02  0.39369566701E+02  0.00000000000E+00 0.  1.
<mgrwt>
<rscale>  0 0.12642986E+04</rscale>
<asrwt>0</asrwt>
<pdfrwt beam="1">  1        1 0.37731381E+00 0.12642986E+04</pdfrwt>
<pdfrwt beam="2">  1       -1 0.25067435E-01 0.12642986E+04</pdfrwt>
<totfact> 0.20166408E+01</totfact>
</mgrwt>
</event>
<event>
12    2  0.8147979E-008  0.1596582E+04  0.7818608E-02  0.8822650E-01
         -2   -1    0    0    0  501 -0.00000000000E+00  0.00000000000E+00  0.85285239453E+03  0.85285239453E+03  0.00000000000E+00 0.  1.
          2   -1    0    0  501    0  0.00000000000E+00 -0.00000000000E+00 -0.74722055995E+03  0.74722055995E+03  0.00000000000E+00 0. -1.
         23    2    1    2    0    0 -0.24018480288E+03 -0.30397735007E+03  0.41114079590E+03  0.57217458877E+03  0.90862737619E+02 0.  0.
        254    2    1    2    0    0  0.24018480288E+03  0.30397735007E+03 -0.30550896133E+03  0.10278983657E+04  0.90174739028E+03 0.  0.
         23    2    4    4    0    0  0.68262374573E+02  0.39569640906E+02  0.30916235711E+03  0.33153746997E+03  0.90056774759E+02 0.  0.
         23    2    4    4    0    0  0.17192242831E+03  0.26440770917E+03 -0.61467131843E+03  0.69636089574E+03  0.87343628163E+02 0.  0.
          2    1    3    3  502    0 -0.97525453664E+02 -0.12825096333E+03  0.10846397645E+03  0.19422656331E+03  0.00000000000E+00 0. -1.
         -2    1    3    3    0  502 -0.14265934922E+03 -0.17572638674E+03  0.30267681945E+03  0.37794802546E+03  0.00000000000E+00 0.  1.
         11    1    5    5    0    0  0.83067056885E+02  0.52729896446E+02  0.27468929123E+03  0.29177865693E+03  0.00000000000E+00 0.  1.
        -11    1    5    5    0    0 -0.14804682312E+02 -0.13160255539E+02  0.34473065874E+02  0.39758813048E+02  0.00000000000E+00 0. -1.
          4    1    6    6  503    0  0.62437021081E+02  0.72859182079E+02 -0.27561773749E+03  0.29184238766E+03  0.00000000000E+00 0. -1.
         -4    1    6    6    0  503  0.10948540723E+03  0.19154852709E+03 -0.33905358094E+03  0.40451850807E+03  0.00000000000E+00 0.  1.
<mgrwt>
<rscale>  0 0.15965824E+04</rscale>
<asrwt>0</asrwt>
<pdfrwt beam="1">  1        2 0.11495701E+00 0.15965824E+04</pdfrwt>
<pdfrwt beam="2">  1       -2 0.13120806E+00 0.15965824E+04</pdfrwt>
<totfact> 0.15328933E+01</totfact>
</mgrwt>
</event>
<event>
12    2  0.8147979E-008  0.3091564E+04  0.7818608E-02  0.8218057E-01
         -1   -1    0    0    0  501 -0.00000000000E+00  0.00000000000E+00  0.20916163369E+04  0.20916163369E+04  0.00000000000E+00 0.  1.
          1   -1    0    0  501    0  0.00000000000E+00 -0.00000000000E+00 -0.11423898556E+04  0.11423898556E+04  0.00000000000E+00 0. -1.
         23    2    1    2    0    0 -0.15322361581E+03  0.69744610466E+03  0.17111513004E+04  0.18563393874E+04  0.89714006723E+02 0.  0.
        254    2    1    2    0    0  0.15322361581E+03 -0.69744610466E+03 -0.76192481906E+03  0.13776668052E+04  0.89862553429E+03 0.  0.
         23    2    4    4    0    0 -0.99827013676E+02 -0.59998592921E+03 -0.87554408782E+03  0.10700917710E+04  0.92576459340E+02 0.  0.
         23    2    4    4    0    0  0.25305062948E+03 -0.97460175446E+02  0.11361926875E+03  0.30757503415E+03  0.90332477670E+02 0.  0.
          3    1    3    3  502    0 -0.14761128479E+03  0.55995558338E+03  0.14451079706E+04  0.15568161078E+04  0.00000000000E+00 0. -1.
         -3    1    3    3    0  502 -0.56123310116E+01  0.13749052128E+03  0.26604332978E+03  0.29952327960E+03  0.00000000000E+00 0.  1.
         11    1    5    5    0    0 -0.78499997923E+02 -0.57886278706E+03 -0.84503508659E+03  0.10272919125E+04  0.00000000000E+00 0. -1.
        -11    1    5    5    0    0 -0.21327015753E+02 -0.21123142156E+02 -0.30509001226E+02  0.42799858543E+02  0.00000000000E+00 0.  1.
          4    1    6    6  503    0  0.17952647990E+03 -0.97270366792E+02  0.11439623689E+03  0.23404653438E+03  0.00000000000E+00 0. -1.
         -4    1    6    6    0  503  0.73524149583E+02 -0.18980865325E+00 -0.77696813447E+00  0.73528499772E+02  0.00000000000E+00 0.  1.
<mgrwt>
<rscale>  0 0.30915635E+04</rscale>
<asrwt>0</asrwt>
<pdfrwt beam="1">  1        1 0.17575229E+00 0.30915635E+04</pdfrwt>
<pdfrwt beam="2">  1       -1 0.32178713E+00 0.30915635E+04</pdfrwt>
<totfact> 0.23705649E-01</totfact>
</mgrwt>
</event>
<event>
12    2  0.8147979E-008  0.1544559E+04  0.7818608E-02  0.8855351E-01
         -2   -1    0    0    0  501 -0.00000000000E+00  0.00000000000E+00  0.39710614915E+03  0.39710614915E+03  0.00000000000E+00 0.  1.
          2   -1    0    0  501    0  0.00000000000E+00 -0.00000000000E+00 -0.15019045413E+04  0.15019045413E+04  0.00000000000E+00 0. -1.
         23    2    1    2    0    0 -0.17580811671E+03 -0.26305869156E+03  0.11817703519E+03  0.34900232415E+03  0.87911555038E+02 0.  0.
        254    2    1    2    0    0  0.17580811671E+03  0.26305869156E+03 -0.12229754273E+04  0.15500083663E+04  0.89819188965E+03 0.  0.
         23    2    4    4    0    0 -0.20031815310E+03  0.42876000965E+03 -0.89549746565E+03  0.10169109459E+04  0.90717433074E+02 0.  0.
         23    2    4    4    0    0  0.37612626981E+03 -0.16570131810E+03 -0.32747796166E+03  0.53309742033E+03  0.89572018701E+02 0.  0.
          1    1    3    3  502    0 -0.14500421238E+03 -0.23859486514E+03  0.71988599062E+02  0.28833329616E+03  0.00000000000E+00 0. -1.
         -1    1    3    3    0  502 -0.30803904330E+02 -0.24463826416E+02  0.46188436130E+02  0.60669027988E+02  0.00000000000E+00 0.  1.
         11    1    5    5    0    0 -0.67628733324E+02  0.89741704642E+02 -0.15159446674E+03  0.18870109027E+03  0.00000000000E+00 0. -1.
        -11    1    5    5    0    0 -0.13268941978E+03  0.33901830501E+03 -0.74390299891E+03  0.82820985568E+03  0.00000000000E+00 0.  1.
          3    1    6    6  503    0  0.14146020717E+03 -0.41330418452E+02 -0.16727024401E+03  0.22293166718E+03  0.00000000000E+00 0. -1.
         -3    1    6    6    0  503  0.23466606264E+03 -0.12437089965E+03 -0.16020771765E+03  0.31016575315E+03  0.00000000000E+00 0.  1.
<mgrwt>
<rscale>  0 0.15445589E+04</rscale>
<asrwt>0</asrwt>
<pdfrwt beam="1">  1        2 0.23106224E+00 0.15445589E+04</pdfrwt>
<pdfrwt beam="2">  1       -2 0.61093254E-01 0.15445589E+04</pdfrwt>
<totfact> 0.30389983E+01</totfact>
</mgrwt>
</event>
<event>
12    2  0.8147979E-008  0.2754193E+04  0.7818608E-02  0.8317632E-01
         -1   -1    0    0    0  501 -0.00000000000E+00  0.00000000000E+00  0.12377504490E+04  0.12377504490E+04  0.00000000000E+00 0.  1.
          1   -1    0    0  501    0  0.00000000000E+00 -0.00000000000E+00 -0.15321304734E+04  0.15321304734E+04  0.00000000000E+00 0. -1.
         23    2    1    2    0    0 -0.36111215084E+03 -0.11683234760E+04 -0.24320187839E+03  0.12501828975E+04  0.91806282142E+02 0.  0.
        254    2    1    2    0    0  0.36111215084E+03  0.11683234760E+04 -0.51178145923E+02  0.15196980249E+04  0.90082248767E+03 0.  0.
         23    2    4    4    0    0  0.21159410079E+03  0.23696602721E+02 -0.25543203358E+03  0.34405986587E+03  0.88306710137E+02 0.  0.
         23    2    4    4    0    0  0.14951805005E+03  0.11446268733E+04  0.20425388766E+03  0.11756381591E+04  0.88764317603E+02 0.  0.
          1    1    3    3  502    0 -0.19662152866E+03 -0.70420639257E+03 -0.18629373743E+03  0.75450117659E+03  0.00000000000E+00 0. -1.
         -1    1    3    3    0  502 -0.16449062218E+03 -0.46411708343E+03 -0.56908140955E+02  0.49568172089E+03  0.00000000000E+00 0.  1.
         11    1    5    5    0    0 -0.68201732388E+01  0.21002391010E+01  0.19379851143E+00  0.71388602138E+01  0.00000000000E+00 0.  1.
        -11    1    5    5    0    0  0.21841427403E+03  0.21596363620E+02 -0.25562583209E+03  0.33692100566E+03  0.00000000000E+00 0. -1.
          4    1    6    6  503    0  0.21673993675E+02  0.12596221954E+03 -0.48458458826E+01  0.12790514053E+03  0.00000000000E+00 0.  1.
         -4    1    6    6    0  503  0.12784405637E+03  0.10186646537E+04  0.20909973354E+03  0.10477330185E+04  0.00000000000E+00 0. -1.
<mgrwt>
<rscale>  0 0.27541933E+04</rscale>
<asrwt>0</asrwt>
<pdfrwt beam="1">  1        1 0.23571238E+00 0.27541933E+04</pdfrwt>
<pdfrwt beam="2">  1       -1 0.19042315E+00 0.27541933E+04</pdfrwt>
<totfact> 0.94797405E-01</totfact>
</mgrwt>
</event>
<event>
12    2  0.8147979E-008  0.2671988E+04  0.7818608E-02  0.8344152E-01
         -1   -1    0    0    0  501 -0.00000000000E+00  0.00000000000E+00  0.14102190437E+04  0.14102190437E+04  0.00000000000E+00 0.  1.
          1   -1    0    0  501    0  0.00000000000E+00 -0.00000000000E+00 -0.12656754118E+04  0.12656754118E+04  0.00000000000E+00 0. -1.
         23    2    1    2    0    0  0.16279177274E+02  0.10878023013E+04  0.52412811126E+03  0.12111857437E+04  0.93176017766E+02 0.  0.
        254    2    1    2    0    0 -0.16279177274E+02 -0.10878023013E+04 -0.37958447944E+03  0.14647087118E+04  0.90427229038E+03 0.  0.
         23    2    4    4    0    0  0.30097828609E+03 -0.83529084923E+03 -0.51142008514E+03  0.10283271945E+04  0.87221465103E+02 0.  0.
         23    2    4    4    0    0 -0.31725746336E+03 -0.25251145207E+03  0.13183560569E+03  0.43638151732E+03  0.92918621653E+02 0.  0.
          1    1    3    3  502    0 -0.25214353691E+02  0.85527501391E+03  0.41594691936E+03  0.95139001087E+03  0.00000000000E+00 0. -1.
         -1    1    3    3    0  502  0.41493530965E+02  0.23252728739E+03  0.10818119190E+03  0.25979573279E+03  0.00000000000E+00 0.  1.
         11    1    5    5    0    0  0.40184676906E+02 -0.19663266612E+03 -0.90128496434E+02  0.22000536246E+03  0.00000000000E+00 0. -1.
        -11    1    5    5    0    0  0.26079360918E+03 -0.63865818311E+03 -0.42129158870E+03  0.80832183204E+03  0.00000000000E+00 0.  1.
          1    1    6    6  503    0 -0.56773342771E+02 -0.25597463147E+02  0.53617128127E+02  0.82178093173E+02  0.00000000000E+00 0. -1.
         -1    1    6    6    0  503 -0.26048412059E+03 -0.22691398892E+03  0.78218477567E+02  0.35420342415E+03  0.00000000000E+00 0.  1.
<mgrwt>
<rscale>  0 0.26719877E+04</rscale>
<asrwt>0</asrwt>
<pdfrwt beam="1">  1        1 0.19471929E+00 0.26719877E+04</pdfrwt>
<pdfrwt beam="2">  1       -1 0.21695678E+00 0.26719877E+04</pdfrwt>
<totfact> 0.96666201E-01</totfact>
</mgrwt>
</event>
<event>
12    2  0.8147979E-008  0.1497026E+04  0.7818608E-02  0.8886433E-01
         -1   -1    0    0    0  501 -0.00000000000E+00  0.00000000000E+00  0.23181503801E+03  0.23181503801E+03  0.00000000000E+00 0.  1.
          1   -1    0    0  501    0  0.00000000000E+00 -0.00000000000E+00 -0.24168898282E+04  0.24168898282E+04  0.00000000000E+00 0. -1.
         23    2    1    2    0    0  0.46968228707E+03 -0.41091674462E+02 -0.69723798169E+03  0.84664415942E+03  0.91518047797E+02 0.  0.
        254    2    1    2    0    0 -0.46968228707E+03  0.41091674462E+02 -0.14878368085E+04  0.18020607068E+04  0.90081876410E+03 0.  0.
         23    2    4    4    0    0 -0.89117217631E+01 -0.36428287590E+03 -0.75020965183E+03  0.83837537753E+03  0.85307206551E+02 0.  0.
         23    2    4    4    0    0 -0.46077056531E+03  0.40537455036E+03 -0.73762715668E+03  0.96368532928E+03  0.89205110065E+02 0.  0.
          1    1    3    3  502    0  0.41542391212E+03 -0.12864716068E+02 -0.56965973030E+03  0.70516291451E+03  0.00000000000E+00 0. -1.
         -1    1    3    3    0  502  0.54258374950E+02 -0.28226958394E+02 -0.12757825140E+03  0.14148124491E+03  0.00000000000E+00 0.  1.
         11    1    5    5    0    0  0.23186665786E+02 -0.62608012206E+02 -0.92587753593E+02  0.11414848566E+03  0.00000000000E+00 0. -1.
        -11    1    5    5    0    0 -0.32098387549E+02 -0.30167486369E+03 -0.65762189824E+03  0.72422689187E+03  0.00000000000E+00 0.  1.
          1    1    6    6  503    0 -0.16872425834E+03  0.10179180500E+03 -0.27058563344E+03  0.33473277691E+03  0.00000000000E+00 0. -1.
         -1    1    6    6    0  503 -0.29204630697E+03  0.30358274536E+03 -0.46704152324E+03  0.62895255236E+03  0.00000000000E+00 0.  1.
<mgrwt>
<rscale>  0 0.14970256E+04</rscale>
<asrwt>0</asrwt>
<pdfrwt beam="1">  1        1 0.37182919E+00 0.14970256E+04</pdfrwt>
<pdfrwt beam="2">  1       -1 0.35663853E-01 0.14970256E+04</pdfrwt>
<totfact> 0.11251901E+01</totfact>
</mgrwt>
</event>
<event>
12    2  0.8147979E-008  0.2271657E+04  0.7818608E-02  0.8489181E-01
          2   -1    0    0  501    0  0.00000000000E+00  0.00000000000E+00  0.34858088220E+04  0.34858088220E+04  0.00000000000E+00 0. -1.
         -2   -1    0    0    0  501 -0.00000000000E+00 -0.00000000000E+00 -0.37010255723E+03  0.37010255723E+03  0.00000000000E+00 0.  1.
         23    2    1    2    0    0 -0.64031131249E+03 -0.27474271157E+03  0.24288518821E+04  0.25285265444E+04  0.92967125269E+02 0.  0.
        254    2    1    2    0    0  0.64031131249E+03  0.27474271157E+03  0.68685438272E+03  0.13273848348E+04  0.89705040113E+03 0.  0.
         23    2    4    4    0    0  0.43148228014E+03  0.23001180257E+03  0.88980110454E+03  0.10195121213E+04  0.92609785415E+02 0.  0.
         23    2    4    4    0    0  0.20882903236E+03  0.44730908998E+02 -0.20294672182E+03  0.30787271356E+03  0.89374587436E+02 0.  0.
          1    1    3    3  502    0 -0.61734594119E+03 -0.24278105737E+03  0.23065366219E+04  0.24000353833E+04  0.00000000000E+00 0. -1.
         -1    1    3    3    0  502 -0.22965371304E+02 -0.31961654193E+02  0.12231526012E+03  0.12849116108E+03  0.00000000000E+00 0.  1.
         11    1    5    5    0    0  0.68158133131E+02  0.49162104600E+02  0.23013494479E+03  0.24499905399E+03  0.00000000000E+00 0. -1.
        -11    1    5    5    0    0  0.36332414700E+03  0.18084969797E+03  0.65966615975E+03  0.77451306727E+03  0.00000000000E+00 0.  1.
          4    1    6    6  503    0  0.14870862809E+03  0.72319753815E+02 -0.14568083369E+03  0.22037991779E+03  0.00000000000E+00 0. -1.
         -4    1    6    6    0  503  0.60120404268E+02 -0.27588844817E+02 -0.57265888129E+02  0.87492795766E+02  0.00000000000E+00 0.  1.
<mgrwt>
<rscale>  0 0.22716573E+04</rscale>
<asrwt>0</asrwt>
<pdfrwt beam="1">  1        2 0.53627826E+00 0.22716573E+04</pdfrwt>
<pdfrwt beam="2">  1       -2 0.56938857E-01 0.22716573E+04</pdfrwt>
<totfact> 0.21920449E+00</totfact>
</mgrwt>
</event>
<event>
12    2  0.8147979E-008  0.1471426E+04  0.7818608E-02  0.8903680E-01
         -1   -1    0    0    0  501 -0.00000000000E+00  0.00000000000E+00  0.62402759710E+03  0.62402759710E+03  0.00000000000E+00 0.  1.
          1   -1    0    0  501    0  0.00000000000E+00 -0.00000000000E+00 -0.86738782872E+03  0.86738782872E+03  0.00000000000E+00 0. -1.
         23    2    1    2    0    0  0.88249374710E+02  0.42350958997E+03 -0.21180356123E+03  0.49029117893E+03  0.91522492637E+02 0.  0.
        254    2    1    2    0    0 -0.88249374710E+02 -0.42350958997E+03 -0.31556670390E+02  0.10011242469E+04  0.90227801111E+03 0.  0.
         23    2    4    4    0    0 -0.35164270234E+03 -0.44415349718E+03  0.23071751573E+03  0.61869419003E+03  0.92881696514E+02 0.  0.
         23    2    4    4    0    0  0.26339332763E+03  0.20643907206E+02 -0.26227418612E+03  0.38243005686E+03  0.87537327718E+02 0.  0.
          2    1    3    3  502    0 -0.17620578704E+02  0.92694866904E+02 -0.54786951329E+02  0.10910743870E+03  0.00000000000E+00 0.  1.
         -2    1    3    3    0  502  0.10586995341E+03  0.33081472307E+03 -0.15701660990E+03  0.38118374023E+03  0.00000000000E+00 0. -1.
         11    1    5    5    0    0 -0.29487760901E+03 -0.31045109655E+03  0.18484377107E+03  0.46636885332E+03  0.00000000000E+00 0. -1.
        -11    1    5    5    0    0 -0.56765093334E+02 -0.13370240063E+03  0.45873744653E+02  0.15232533671E+03  0.00000000000E+00 0.  1.
          2    1    6    6  503    0  0.29267397133E+02 -0.22293090473E+02 -0.16619316611E+02  0.40370336912E+02  0.00000000000E+00 0. -1.
         -2    1    6    6    0  503  0.23412593050E+03  0.42936997679E+02 -0.24565486950E+03  0.34205971995E+03  0.00000000000E+00 0.  1.
<mgrwt>
<rscale>  0 0.14714264E+04</rscale>
<asrwt>0</asrwt>
<pdfrwt beam="1">  1        1 0.13344428E+00 0.14714264E+04</pdfrwt>
<pdfrwt beam="2">  1       -1 0.96004246E-01 0.14714264E+04</pdfrwt>
<totfact> 0.19640397E+01</totfact>
</mgrwt>
</event>
<event>
12    2  0.8147979E-008  0.1151713E+04  0.7818608E-02  0.9156205E-01
         -1   -1    0    0    0  501 -0.00000000000E+00  0.00000000000E+00  0.14365406774E+03  0.14365406774E+03  0.00000000000E+00 0.  1.
          1   -1    0    0  501    0  0.00000000000E+00 -0.00000000000E+00 -0.23083983183E+04  0.23083983183E+04  0.00000000000E+00 0. -1.
         23    2    1    2    0    0  0.20450052014E+03 -0.36229998110E+02 -0.42278507340E+03  0.47978109962E+03  0.91157060964E+02 0.  0.
        254    2    1    2    0    0 -0.20450052014E+03  0.36229998110E+02 -0.17419591771E+04  0.19722712864E+04  0.90127641531E+03 0.  0.
         23    2    4    4    0    0 -0.28398081462E+03 -0.32989544506E+03 -0.48657415146E+03  0.65903591100E+03  0.89987884603E+02 0.  0.
         23    2    4    4    0    0  0.79480294479E+02  0.36612544317E+03 -0.12553850257E+04  0.13132353754E+04  0.90722825822E+02 0.  0.
          3    1    3    3  502    0  0.13186954586E+03 -0.59753664359E+02 -0.22267070389E+03  0.26559804197E+03  0.00000000000E+00 0.  1.
         -3    1    3    3    0  502  0.72630974281E+02  0.23523666249E+02 -0.20011436951E+03  0.21418305765E+03  0.00000000000E+00 0. -1.
         11    1    5    5    0    0 -0.19330667555E+03 -0.23711680261E+03 -0.27779013260E+03  0.41323021025E+03  0.00000000000E+00 0. -1.
        -11    1    5    5    0    0 -0.90674139069E+02 -0.92778642449E+02 -0.20878401886E+03  0.24580570075E+03  0.00000000000E+00 0.  1.
          2    1    6    6  503    0  0.81263405854E+02  0.35492867148E+03 -0.12471682565E+04  0.12992331442E+04  0.00000000000E+00 0. -1.
         -2    1    6    6    0  503 -0.17831113752E+01  0.11196771689E+02 -0.82167691758E+01  0.14002231184E+02  0.00000000000E+00 0.  1.
<mgrwt>
<rscale>  0 0.11517132E+04</rscale>
<asrwt>0</asrwt>
<pdfrwt beam="1">  1        1 0.35513818E+00 0.11517132E+04</pdfrwt>
<pdfrwt beam="2">  1       -1 0.22100627E-01 0.11517132E+04</pdfrwt>
<totfact> 0.31691720E+01</totfact>
</mgrwt>
</event>
<event>
12    2  0.8147979E-008  0.1586451E+04  0.7818608E-02  0.8828915E-01
         -1   -1    0    0    0  501 -0.00000000000E+00  0.00000000000E+00  0.40687250529E+03  0.40687250529E+03  0.00000000000E+00 0.  1.
          1   -1    0    0  501    0  0.00000000000E+00 -0.00000000000E+00 -0.15464461566E+04  0.15464461566E+04  0.00000000000E+00 0. -1.
         23    2    1    2    0    0  0.51870876250E+03 -0.11400032256E+03 -0.43002586291E+03  0.68942670334E+03  0.91280242506E+02 0.  0.
        254    2    1    2    0    0 -0.51870876250E+03  0.11400032256E+03 -0.70954778844E+03  0.12638919586E+04  0.90106046692E+03 0.  0.
         23    2    4    4    0    0 -0.40892785476E+03 -0.24889547173E+03 -0.72588508361E+03  0.87433699857E+03  0.91570116367E+02 0.  0.
         23    2    4    4    0    0 -0.10978090774E+03  0.36289579429E+03  0.16337295166E+02  0.38955496002E+03  0.87982693997E+02 0.  0.
          2    1    3    3  502    0  0.26516592988E+03 -0.72177877240E+02 -0.16632514354E+03  0.32122681972E+03  0.00000000000E+00 0.  1.
         -2    1    3    3    0  502  0.25354283262E+03 -0.41822445321E+02 -0.26370071937E+03  0.36819988362E+03  0.00000000000E+00 0. -1.
         11    1    5    5    0    0 -0.66533929165E+02 -0.79010603251E+02 -0.18750491813E+03  0.21407366368E+03  0.00000000000E+00 0.  1.
        -11    1    5    5    0    0 -0.34239392559E+03 -0.16988486848E+03 -0.53838016548E+03  0.66026333489E+03  0.00000000000E+00 0. -1.
          1    1    6    6  503    0 -0.11423301465E+03  0.35415376727E+03  0.29329237976E+02  0.37327506842E+03  0.00000000000E+00 0. -1.
         -1    1    6    6    0  503  0.44521069068E+01  0.87420270219E+01 -0.12991942810E+02  0.16279891595E+02  0.00000000000E+00 0.  1.
<mgrwt>
<rscale>  0 0.15864507E+04</rscale>
<asrwt>0</asrwt>
<pdfrwt beam="1">  1        1 0.23791480E+00 0.15864507E+04</pdfrwt>
<pdfrwt beam="2">  1       -1 0.62595769E-01 0.15864507E+04</pdfrwt>
<totfact> 0.15105246E+01</totfact>
</mgrwt>
</event>
<event>
12    2  0.8147979E-008  0.1401587E+04  0.7818608E-02  0.8952670E-01
         -3   -1    0    0    0  501 -0.00000000000E+00  0.00000000000E+00  0.70762282965E+03  0.70762282965E+03  0.00000000000E+00 0.  1.
          3   -1    0    0  501    0  0.00000000000E+00 -0.00000000000E+00 -0.69403040488E+03  0.69403040488E+03  0.00000000000E+00 0. -1.
         23    2    1    2    0    0  0.23807356422E+03  0.30460163070E+03 -0.11393113088E+03  0.41377949399E+03  0.93658911233E+02 0.  0.
        254    2    1    2    0    0 -0.23807356422E+03 -0.30460163070E+03  0.12752355566E+03  0.98787374055E+03  0.90009504754E+03 0.  0.
         23    2    4    4    0    0 -0.30671883282E+03 -0.31712581732E+03  0.45545730429E+03  0.64023022423E+03  0.88363779747E+02 0.  0.
         23    2    4    4    0    0  0.68645268598E+02  0.12524186622E+02 -0.32793374863E+03  0.34764351632E+03  0.91904530864E+02 0.  0.
          4    1    3    3  502    0  0.11568687634E+03  0.76281100270E+02 -0.34135442300E+02  0.14271470855E+03  0.00000000000E+00 0. -1.
         -4    1    3    3    0  502  0.12238668788E+03  0.22832053043E+03 -0.79795688581E+02  0.27106478543E+03  0.00000000000E+00 0.  1.
         11    1    5    5    0    0 -0.10184598195E+03 -0.14856925702E+03  0.22950427866E+03  0.29174927951E+03  0.00000000000E+00 0. -1.
        -11    1    5    5    0    0 -0.20487285087E+03 -0.16855656031E+03  0.22595302563E+03  0.34848094472E+03  0.00000000000E+00 0.  1.
          2    1    6    6  503    0 -0.14448684587E+02  0.15902909731E+02 -0.14638929321E+03  0.14795773785E+03  0.00000000000E+00 0. -1.
         -2    1    6    6    0  503  0.83093953185E+02 -0.33787231088E+01 -0.18154445543E+03  0.19968577847E+03  0.00000000000E+00 0.  1.
<mgrwt>
<rscale>  0 0.14015873E+04</rscale>
<asrwt>0</asrwt>
<pdfrwt beam="1">  1        3 0.10677391E+00 0.14015873E+04</pdfrwt>
<pdfrwt beam="2">  1       -3 0.10886505E+00 0.14015873E+04</pdfrwt>
<totfact> 0.13662175E+00</totfact>
</mgrwt>
</event>
<event>
12    2  0.8147979E-008  0.2451600E+04  0.7818608E-02  0.8420434E-01
          2   -1    0    0  501    0  0.00000000000E+00  0.00000000000E+00  0.96418774728E+03  0.96418774728E+03  0.00000000000E+00 0. -1.
         -2   -1    0    0    0  501 -0.00000000000E+00 -0.00000000000E+00 -0.15583951514E+04  0.15583951514E+04  0.00000000000E+00 0.  1.
         23    2    1    2    0    0 -0.68475859346E+02 -0.99274001612E+03  0.11122280058E+03  0.10054812340E+04  0.91653246993E+02 0.  0.
        254    2    1    2    0    0  0.68475859346E+02  0.99274001612E+03 -0.70543020473E+03  0.15171016647E+04  0.90207760440E+03 0.  0.
         23    2    4    4    0    0  0.29739923746E+03  0.15035108618E+03 -0.51334884181E+03  0.61870519566E+03  0.90649490838E+02 0.  0.
         23    2    4    4    0    0 -0.22892337811E+03  0.84238892994E+03 -0.19208136292E+03  0.89839646903E+03  0.90531449030E+02 0.  0.
          1    1    3    3  502    0 -0.12033674106E+02 -0.40937899830E+03  0.88192465634E+02  0.41894377255E+03  0.00000000000E+00 0. -1.
         -1    1    3    3    0  502 -0.56442185240E+02 -0.58336101782E+03  0.23030334947E+02  0.58653746147E+03  0.00000000000E+00 0.  1.
         11    1    5    5    0    0  0.14656008983E+03  0.12432694337E+03 -0.27850461467E+03  0.33838124825E+03  0.00000000000E+00 0.  1.
        -11    1    5    5    0    0  0.15083914763E+03  0.26024142814E+02 -0.23484422714E+03  0.28032394740E+03  0.00000000000E+00 0. -1.
          1    1    6    6  503    0 -0.98708791293E+02  0.28584492464E+03 -0.10560650964E+03  0.32031778174E+03  0.00000000000E+00 0. -1.
         -1    1    6    6    0  503 -0.13021458682E+03  0.55654400530E+03 -0.86474853282E+02  0.57807868730E+03  0.00000000000E+00 0.  1.
<mgrwt>
<rscale>  0 0.24515999E+04</rscale>
<asrwt>0</asrwt>
<pdfrwt beam="1">  1        2 0.14833658E+00 0.24515999E+04</pdfrwt>
<pdfrwt beam="2">  1       -2 0.23975310E+00 0.24515999E+04</pdfrwt>
<totfact> 0.17685308E+00</totfact>
</mgrwt>
</event>
<event>
12    2  0.8147979E-008  0.1839310E+04  0.7818608E-02  0.8685670E-01
         -2   -1    0    0    0  501 -0.00000000000E+00  0.00000000000E+00  0.39757378800E+03  0.39757378800E+03  0.00000000000E+00 0. -1.
          2   -1    0    0  501    0  0.00000000000E+00 -0.00000000000E+00 -0.21273167366E+04  0.21273167366E+04  0.00000000000E+00 0.  1.
         23    2    1    2    0    0  0.66495032794E+03  0.15199725580E+03 -0.84335069747E+03  0.10881914421E+04  0.87510636198E+02 0.  0.
        254    2    1    2    0    0 -0.66495032794E+03 -0.15199725580E+03 -0.88639225114E+03  0.14366990825E+04  0.90174881550E+03 0.  0.
         23    2    4    4    0    0 -0.42440463051E+03 -0.51572742255E+03 -0.62921842332E+03  0.92217319026E+03  0.91616067511E+02 0.  0.
         23    2    4    4    0    0 -0.24054569743E+03  0.36373016675E+03 -0.25717382783E+03  0.51452589220E+03  0.91851234453E+02 0.  0.
          4    1    3    3  502    0  0.25324672107E+03  0.15169841977E+02 -0.30041359379E+03  0.39320777354E+03  0.00000000000E+00 0. -1.
         -4    1    3    3    0  502  0.41170360687E+03  0.13682741382E+03 -0.54293710368E+03  0.69498366861E+03  0.00000000000E+00 0.  1.
         11    1    5    5    0    0 -0.14102407928E+03 -0.15495629431E+03 -0.25575145877E+03  0.33061768366E+03  0.00000000000E+00 0. -1.
        -11    1    5    5    0    0 -0.28338055123E+03 -0.36077112823E+03 -0.37346696454E+03  0.59155550660E+03  0.00000000000E+00 0.  1.
          3    1    6    6  503    0 -0.23857802890E+03  0.33576031543E+03 -0.21706303018E+03  0.46558653799E+03  0.00000000000E+00 0. -1.
         -3    1    6    6    0  503 -0.19676685300E+01  0.27969851320E+02 -0.40110797646E+02  0.48939354206E+02  0.00000000000E+00 0.  1.
<mgrwt>
<rscale>  0 0.18393101E+04</rscale>
<asrwt>0</asrwt>
<pdfrwt beam="1">  1        2 0.32727950E+00 0.18393101E+04</pdfrwt>
<pdfrwt beam="2">  1       -2 0.61165198E-01 0.18393101E+04</pdfrwt>
<totfact> 0.13275038E+01</totfact>
</mgrwt>
</event>
<event>
12    2  0.8147979E-008  0.1820409E+04  0.7818608E-02  0.8695521E-01
         -1   -1    0    0    0  501 -0.00000000000E+00  0.00000000000E+00  0.34629501684E+03  0.34629501684E+03  0.00000000000E+00 0.  1.
          1   -1    0    0  501    0  0.00000000000E+00 -0.00000000000E+00 -0.23923874733E+04  0.23923874733E+04  0.00000000000E+00 0. -1.
         23    2    1    2    0    0  0.33384311951E+03 -0.88651920031E+02 -0.16598001197E+04  0.16978704339E+04  0.92288578869E+02 0.  0.
        254    2    1    2    0    0 -0.33384311951E+03  0.88651920031E+02 -0.38629233678E+03  0.10408120562E+04  0.90263922777E+03 0.  0.
         23    2    4    4    0    0  0.14242410737E+03 -0.29087504774E+03 -0.22078194107E+03  0.40316393743E+03  0.94358757877E+02 0.  0.
         23    2    4    4    0    0 -0.47626722688E+03  0.37952696777E+03 -0.16551039572E+03  0.63764811877E+03  0.91270157332E+02 0.  0.
          2    1    3    3  502    0  0.18164554336E+03 -0.63534109125E+00 -0.82689544026E+03  0.84661182144E+03  0.00000000000E+00 0.  1.
         -2    1    3    3    0  502  0.15219757614E+03 -0.88016578939E+02 -0.83290467941E+03  0.85125861249E+03  0.00000000000E+00 0. -1.
         11    1    5    5    0    0  0.12997452656E+03 -0.18722904967E+03 -0.18246963123E+03  0.29196448571E+03  0.00000000000E+00 0.  1.
        -11    1    5    5    0    0  0.12449580810E+02 -0.10364599807E+03 -0.38312309831E+02  0.11119945172E+03  0.00000000000E+00 0. -1.
          4    1    6    6  503    0 -0.12218685707E+03  0.14568344637E+03 -0.70672151543E+02  0.20284932238E+03  0.00000000000E+00 0. -1.
         -4    1    6    6    0  503 -0.35408036981E+03  0.23384352140E+03 -0.94838244175E+02  0.43479879639E+03  0.00000000000E+00 0.  1.
<mgrwt>
<rscale>  0 0.18204086E+04</rscale>
<asrwt>0</asrwt>
<pdfrwt beam="1">  1        1 0.36805961E+00 0.18204086E+04</pdfrwt>
<pdfrwt beam="2">  1       -1 0.53276156E-01 0.18204086E+04</pdfrwt>
<totfact> 0.53866907E+00</totfact>
</mgrwt>
</event>
<event>
12    2  0.8147979E-008  0.2299133E+04  0.7818608E-02  0.8478263E-01
          2   -1    0    0  501    0  0.00000000000E+00  0.00000000000E+00  0.30961065196E+04  0.30961065196E+04  0.00000000000E+00 0. -1.
         -2   -1    0    0    0  501 -0.00000000000E+00 -0.00000000000E+00 -0.42682725770E+03  0.42682725770E+03  0.00000000000E+00 0.  1.
         23    2    1    2    0    0  0.18797944354E+03  0.20369674973E+03  0.25582197849E+04  0.25748500500E+04  0.92388717176E+02 0.  0.
        254    2    1    2    0    0 -0.18797944354E+03 -0.20369674973E+03  0.11105947699E+03  0.94808372729E+03  0.89983326760E+03 0.  0.
         23    2    4    4    0    0 -0.36691858106E+03 -0.22032806107E+03  0.40141830016E+03  0.59399140875E+03  0.92279154456E+02 0.  0.
         23    2    4    4    0    0  0.17893913751E+03  0.16631311337E+02 -0.29035882317E+03  0.35409231854E+03  0.93687290540E+02 0.  0.
          1    1    3    3  502    0  0.11815581889E+03  0.11047505318E+03  0.18561161414E+04  0.18631512728E+04  0.00000000000E+00 0. -1.
         -1    1    3    3    0  502  0.69823624655E+02  0.93221696549E+02  0.70210364350E+03  0.71169877721E+03  0.00000000000E+00 0.  1.
         11    1    5    5    0    0 -0.13585776146E+03 -0.74552257053E+02  0.87990101722E+02  0.17820670128E+03  0.00000000000E+00 0.  1.
        -11    1    5    5    0    0 -0.23106081960E+03 -0.14577580401E+03  0.31342819844E+03  0.41578470747E+03  0.00000000000E+00 0. -1.
          1    1    6    6  503    0  0.81529785057E+02  0.17348582708E+02 -0.21605353701E+03  0.23157549531E+03  0.00000000000E+00 0. -1.
         -1    1    6    6    0  503  0.97409352454E+02 -0.71727137134E+00 -0.74305286157E+02  0.12251682323E+03  0.00000000000E+00 0.  1.
<mgrwt>
<rscale>  0 0.22991326E+04</rscale>
<asrwt>0</asrwt>
<pdfrwt beam="1">  1        2 0.47632407E+00 0.22991326E+04</pdfrwt>
<pdfrwt beam="2">  1       -2 0.65665734E-01 0.22991326E+04</pdfrwt>
<totfact> 0.29339779E+00</totfact>
</mgrwt>
</event>
<event>
12    2  0.8147979E-008  0.1493654E+04  0.7818608E-02  0.8888684E-01
         -1   -1    0    0    0  501 -0.00000000000E+00  0.00000000000E+00  0.31470423382E+03  0.31470423382E+03  0.00000000000E+00 0.  1.
          1   -1    0    0  501    0  0.00000000000E+00 -0.00000000000E+00 -0.17722998050E+04  0.17722998050E+04  0.00000000000E+00 0. -1.
         23    2    1    2    0    0 -0.23734495425E+03 -0.26549884828E+03 -0.89420462655E+03  0.96689336861E+03  0.91970682136E+02 0.  0.
        254    2    1    2    0    0  0.23734495425E+03  0.26549884828E+03 -0.56339094464E+03  0.11201106702E+04  0.90023124322E+03 0.  0.
         23    2    4    4    0    0  0.45414876615E+03  0.98020767890E+02  0.13511802239E+02  0.47400822713E+03  0.92962669178E+02 0.  0.
         23    2    4    4    0    0 -0.21680381190E+03  0.16747808039E+03 -0.57690274687E+03  0.64610244308E+03  0.97871279405E+02 0.  0.
          3    1    3    3  502    0 -0.19754166056E+03 -0.18034611042E+03 -0.73308628853E+03  0.78036077146E+03  0.00000000000E+00 0. -1.
         -3    1    3    3    0  502 -0.39803293684E+02 -0.85152737862E+02 -0.16111833802E+03  0.18653259715E+03  0.00000000000E+00 0.  1.
         11    1    5    5    0    0  0.12298436152E+03 -0.86697160636E+01  0.25400201354E+02  0.12587885995E+03  0.00000000000E+00 0. -1.
        -11    1    5    5    0    0  0.33116440463E+03  0.10669048395E+03 -0.11888399115E+02  0.34812936718E+03  0.00000000000E+00 0.  1.
          2    1    6    6  503    0 -0.30273526456E+02  0.38711029606E+02 -0.40163993789E+02  0.63467917993E+02  0.00000000000E+00 0. -1.
         -2    1    6    6    0  503 -0.18653028544E+03  0.12876705079E+03 -0.53673875309E+03  0.58263452508E+03  0.00000000000E+00 0.  1.
<mgrwt>
<rscale>  0 0.14936536E+04</rscale>
<asrwt>0</asrwt>
<pdfrwt beam="1">  1        1 0.27266151E+00 0.14936536E+04</pdfrwt>
<pdfrwt beam="2">  1       -1 0.48416036E-01 0.14936536E+04</pdfrwt>
<totfact> 0.17574838E+01</totfact>
</mgrwt>
</event>
<event>
12    2  0.8147979E-008  0.2244381E+04  0.7818608E-02  0.8500180E-01
          2   -1    0    0  501    0  0.00000000000E+00  0.00000000000E+00  0.39608272095E+04  0.39608272095E+04  0.00000000000E+00 0.  1.
         -2   -1    0    0    0  501 -0.00000000000E+00 -0.00000000000E+00 -0.31794153967E+03  0.31794153967E+03  0.00000000000E+00 0. -1.
         23    2    1    2    0    0 -0.46515180548E+03 -0.69599781868E+03  0.71958476217E+03  0.11076235829E+04  0.90821834543E+02 0.  0.
        254    2    1    2    0    0  0.46515180548E+03  0.69599781868E+03  0.29233009076E+04  0.31711451663E+04  0.89983015248E+03 0.  0.
         23    2    4    4    0    0  0.70410929461E+02  0.64557097747E+03  0.24926375300E+04  0.25773962526E+04  0.89498611051E+02 0.  0.
         23    2    4    4    0    0  0.39474087602E+03  0.50426841208E+02  0.43066337767E+03  0.59374891365E+03  0.93293097682E+02 0.  0.
          3    1    3    3  502    0 -0.13328787243E+02 -0.57733811910E+02  0.63524518189E+02  0.86868947375E+02  0.00000000000E+00 0. -1.
         -3    1    3    3    0  502 -0.45182301823E+03 -0.63826400677E+03  0.65606024398E+03  0.10207546355E+04  0.00000000000E+00 0.  1.
         11    1    5    5    0    0  0.70131807626E+02  0.64779530366E+03  0.24904037772E+04  0.25742315746E+04  0.00000000000E+00 0.  1.
        -11    1    5    5    0    0  0.27912183530E+00 -0.22243261894E+01  0.22337527485E+01  0.31646780780E+01  0.00000000000E+00 0. -1.
          1    1    6    6  503    0  0.52757154369E+02  0.26797797018E+01  0.18300667489E+02  0.55905393182E+02  0.00000000000E+00 0. -1.
         -1    1    6    6    0  503  0.34198372165E+03  0.47747061506E+02  0.41236271018E+03  0.53784352046E+03  0.00000000000E+00 0.  1.
<mgrwt>
<rscale>  0 0.22443810E+04</rscale>
<asrwt>0</asrwt>
<pdfrwt beam="1">  1        2 0.60935800E+00 0.22443810E+04</pdfrwt>
<pdfrwt beam="2">  1       -2 0.48914086E-01 0.22443810E+04</pdfrwt>
<totfact> 0.13342478E+00</totfact>
</mgrwt>
</event>
<event>
12    2  0.8147979E-008  0.3502140E+04  0.7818608E-02  0.8113283E-01
         -1   -1    0    0    0  501 -0.00000000000E+00  0.00000000000E+00  0.21434673201E+04  0.21434673201E+04  0.00000000000E+00 0.  1.
          1   -1    0    0  501    0  0.00000000000E+00 -0.00000000000E+00 -0.14305074390E+04  0.14305074390E+04  0.00000000000E+00 0. -1.
         23    2    1    2    0    0  0.97273034811E+03  0.72683334325E+03 -0.78397743789E+03  0.14482593800E+04  0.91343141767E+02 0.  0.
        254    2    1    2    0    0 -0.97273034811E+03 -0.72683334325E+03  0.14969373190E+04  0.21257153791E+04  0.89629989230E+03 0.  0.
         23    2    4    4    0    0 -0.89031016274E+03 -0.59149695498E+03  0.15910033810E+04  0.19187837378E+04  0.88985618445E+02 0.  0.
         23    2    4    4    0    0 -0.82420185365E+02 -0.13533638827E+03 -0.94066061966E+02  0.20693164137E+03  0.94144863060E+02 0.  0.
          4    1    3    3  502    0  0.65745461262E+03  0.50858692235E+03 -0.58349858219E+03  0.10155677332E+04  0.00000000000E+00 0. -1.
         -4    1    3    3    0  502  0.31527573548E+03  0.21824642090E+03 -0.20047885570E+03  0.43269164679E+03  0.00000000000E+00 0.  1.
         11    1    5    5    0    0 -0.38803195124E+03 -0.22107957337E+03  0.72037190462E+03  0.84757339146E+03  0.00000000000E+00 0.  1.
        -11    1    5    5    0    0 -0.50227821150E+03 -0.37041738161E+03  0.87063147638E+03  0.10712103463E+04  0.00000000000E+00 0. -1.
          2    1    6    6  503    0 -0.80982974497E+02 -0.12033401238E+03 -0.11218178639E+03  0.18336649064E+03  0.00000000000E+00 0. -1.
         -2    1    6    6    0  503 -0.14372108682E+01 -0.15002375889E+02  0.18115724422E+02  0.23565150725E+02  0.00000000000E+00 0.  1.
<mgrwt>
<rscale>  0 0.35021399E+04</rscale>
<asrwt>0</asrwt>
<pdfrwt beam="1">  1        1 0.22007807E+00 0.35021399E+04</pdfrwt>
<pdfrwt beam="2">  1       -1 0.32976420E+00 0.35021399E+04</pdfrwt>
<totfact> 0.12599110E-01</totfact>
</mgrwt>
</event>
<event>
12    2  0.8147979E-008  0.3074443E+04  0.7818608E-02  0.8222787E-01
         -2   -1    0    0    0  501 -0.00000000000E+00  0.00000000000E+00  0.77423608519E+03  0.77423608519E+03  0.00000000000E+00 0.  1.
          2   -1    0    0  501    0  0.00000000000E+00 -0.00000000000E+00 -0.30521053664E+04  0.30521053664E+04  0.00000000000E+00 0. -1.
         23    2    1    2    0    0 -0.50676869823E+03 -0.12967974929E+04 -0.81623076758E+03  0.16165380828E+04  0.92002478214E+02 0.  0.
        254    2    1    2    0    0  0.50676869823E+03  0.12967974929E+04 -0.14616385136E+04  0.22098033688E+04  0.89908038194E+03 0.  0.
         23    2    4    4    0    0  0.22130941190E+03  0.44442513491E+03 -0.16477190133E+02  0.50546289265E+03  0.93432765767E+02 0.  0.
         23    2    4    4    0    0  0.28545928633E+03  0.85237235799E+03 -0.14451613235E+04  0.17043404761E+04  0.90882159718E+02 0.  0.
          1    1    3    3  502    0 -0.89811201757E+02 -0.23678146084E+03 -0.19065529899E+03  0.31698731077E+03  0.00000000000E+00 0. -1.
         -1    1    3    3    0  502 -0.41695749647E+03 -0.10600160321E+04 -0.62557546859E+03  0.12995507720E+04  0.00000000000E+00 0.  1.
         11    1    5    5    0    0  0.18214388736E+03  0.34843315524E+03  0.24621302709E+02  0.39393942164E+03  0.00000000000E+00 0. -1.
        -11    1    5    5    0    0  0.39165524542E+02  0.95991979663E+02 -0.41098492841E+02  0.11152347101E+03  0.00000000000E+00 0.  1.
          4    1    6    6  503    0  0.28598088762E+03  0.77719114689E+03 -0.13156642720E+04  0.15546007923E+04  0.00000000000E+00 0. -1.
         -4    1    6    6    0  503 -0.52160128954E+00  0.75181211096E+02 -0.12949705146E+03  0.14973968381E+03  0.00000000000E+00 0.  1.
<mgrwt>
<rscale>  0 0.30744431E+04</rscale>
<asrwt>0</asrwt>
<pdfrwt beam="1">  1        2 0.46955467E+00 0.30744431E+04</pdfrwt>
<pdfrwt beam="2">  1       -2 0.11911325E+00 0.30744431E+04</pdfrwt>
<totfact> 0.74236670E-01</totfact>
</mgrwt>
</event>
<event>
12    2  0.8147979E-008  0.1255946E+04  0.7818608E-02  0.9065249E-01
          2   -1    0    0  501    0  0.00000000000E+00  0.00000000000E+00  0.13109057155E+04  0.13109057155E+04  0.00000000000E+00 0. -1.
         -2   -1    0    0    0  501 -0.00000000000E+00 -0.00000000000E+00 -0.30082246757E+03  0.30082246757E+03  0.00000000000E+00 0.  1.
         23    2    1    2    0    0  0.14969384246E+03 -0.88997858960E+02 -0.57027694426E+02  0.20423620562E+03  0.90174300029E+02 0.  0.
        254    2    1    2    0    0 -0.14969384246E+03  0.88997858960E+02  0.10671109423E+04  0.14074919774E+04  0.90109879475E+03 0.  0.
         23    2    4    4    0    0  0.33473708992E+03 -0.13981585464E+03  0.49011779627E+03  0.61492666779E+03  0.79510753696E+02 0.  0.
         23    2    4    4    0    0 -0.48443093239E+03  0.22881371360E+03  0.57699314607E+03  0.79256530964E+03  0.90607039734E+02 0.  0.
          2    1    3    3  502    0  0.89387571326E+02 -0.44247802591E+02  0.14185652223E+02  0.10074342991E+03  0.00000000000E+00 0. -1.
         -2    1    3    3    0  502  0.60306271136E+02 -0.44750056369E+02 -0.71213346650E+02  0.10349277571E+03  0.00000000000E+00 0.  1.
         11    1    5    5    0    0  0.30781363865E+03 -0.12375661811E+03  0.40095410868E+03  0.52041246520E+03  0.00000000000E+00 0. -1.
        -11    1    5    5    0    0  0.26923451274E+02 -0.16059236531E+02  0.89163687584E+02  0.94514202584E+02  0.00000000000E+00 0.  1.
          1    1    6    6  503    0 -0.45916292959E+03  0.19520186431E+03  0.50998465566E+03  0.71345547356E+03  0.00000000000E+00 0. -1.
         -1    1    6    6    0  503 -0.25268002794E+02  0.33611849294E+02  0.67008490405E+02  0.79109836080E+02  0.00000000000E+00 0.  1.
<mgrwt>
<rscale>  0 0.12559457E+04</rscale>
<asrwt>0</asrwt>
<pdfrwt beam="1">  1        2 0.20167780E+00 0.12559457E+04</pdfrwt>
<pdfrwt beam="2">  1       -2 0.46280380E-01 0.12559457E+04</pdfrwt>
<totfact> 0.70868210E+01</totfact>
</mgrwt>
</event>
<event>
12    2  0.8147979E-008  0.1497589E+04  0.7818608E-02  0.8886058E-01
          1   -1    0    0  501    0  0.00000000000E+00  0.00000000000E+00  0.18456038270E+04  0.18456038270E+04  0.00000000000E+00 0.  1.
         -1   -1    0    0    0  501 -0.00000000000E+00 -0.00000000000E+00 -0.30379924150E+03  0.30379924150E+03  0.00000000000E+00 0. -1.
         23    2    1    2    0    0  0.32067612350E+03  0.25443529795E+03  0.83271163403E+03  0.93251642419E+03  0.92777793270E+02 0.  0.
        254    2    1    2    0    0 -0.32067612350E+03 -0.25443529795E+03  0.70909295147E+03  0.12168866443E+04  0.90023874291E+03 0.  0.
         23    2    4    4    0    0  0.91498593928E+02 -0.47704853774E+03  0.24147870301E+03  0.54966014404E+03  0.88696166130E+02 0.  0.
         23    2    4    4    0    0 -0.41217471743E+03  0.22261323979E+03  0.46761424846E+03  0.66722650027E+03  0.84163323850E+02 0.  0.
          2    1    3    3  502    0  0.29043412762E+03  0.23932299672E+03  0.69106955399E+03  0.78689555069E+03  0.00000000000E+00 0. -1.
         -2    1    3    3    0  502  0.30241995884E+02  0.15112301231E+02  0.14164208003E+03  0.14562087350E+03  0.00000000000E+00 0.  1.
         11    1    5    5    0    0 -0.22638412041E+01 -0.11121923714E+02  0.24913703527E+02  0.27377267715E+02  0.00000000000E+00 0.  1.
        -11    1    5    5    0    0  0.93762435132E+02 -0.46592661402E+03  0.21656499949E+03  0.52228287632E+03  0.00000000000E+00 0. -1.
          4    1    6    6  503    0 -0.35262755647E+03  0.17171655322E+03  0.34858046641E+03  0.52472955871E+03  0.00000000000E+00 0. -1.
         -4    1    6    6    0  503 -0.59547160964E+02  0.50896686573E+02  0.11903378205E+03  0.14249694155E+03  0.00000000000E+00 0.  1.
<mgrwt>
<rscale>  0 0.14975888E+04</rscale>
<asrwt>0</asrwt>
<pdfrwt beam="1">  1        1 0.28393904E+00 0.14975888E+04</pdfrwt>
<pdfrwt beam="2">  1       -1 0.46738346E-01 0.14975888E+04</pdfrwt>
<totfact> 0.16745456E+01</totfact>
</mgrwt>
</event>
<event>
12    2  0.8147979E-008  0.1368005E+04  0.7818608E-02  0.8977310E-01
         -1   -1    0    0    0  501 -0.00000000000E+00  0.00000000000E+00  0.33103635797E+03  0.33103635797E+03  0.00000000000E+00 0.  1.
          1   -1    0    0  501    0  0.00000000000E+00 -0.00000000000E+00 -0.14133163999E+04  0.14133163999E+04  0.00000000000E+00 0. -1.
         23    2    1    2    0    0 -0.17511164113E+03  0.53259288028E+02  0.11655819055E+03  0.23449078541E+03  0.88879007854E+02 0.  0.
        254    2    1    2    0    0  0.17511164113E+03 -0.53259288028E+02 -0.11988382325E+04  0.15098619725E+04  0.89942727866E+03 0.  0.
         23    2    4    4    0    0 -0.19827040069E+03 -0.31656151565E+03 -0.26554387094E+03  0.46663252101E+03  0.87806704156E+02 0.  0.
         23    2    4    4    0    0  0.37338204181E+03  0.26330222762E+03 -0.93329436156E+03  0.10432294515E+04  0.92450586052E+02 0.  0.
          3    1    3    3  502    0 -0.15440827790E+02  0.19959119284E+02 -0.10902032528E+02  0.27488905374E+02  0.00000000000E+00 0. -1.
         -3    1    3    3    0  502 -0.15967081334E+03  0.33300168744E+02  0.12746022308E+03  0.20700188003E+03  0.00000000000E+00 0.  1.
         11    1    5    5    0    0 -0.16522176546E+03 -0.23147682050E+03 -0.23924376626E+03  0.37164139961E+03  0.00000000000E+00 0. -1.
        -11    1    5    5    0    0 -0.33048635231E+02 -0.85084695144E+02 -0.26300104674E+02  0.94991121397E+02  0.00000000000E+00 0.  1.
          1    1    6    6  503    0  0.29782000043E+03  0.18873907414E+03 -0.63086782667E+03  0.72271253310E+03  0.00000000000E+00 0. -1.
         -1    1    6    6    0  503  0.75562041380E+02  0.74563153476E+02 -0.30242653489E+03  0.32051691837E+03  0.00000000000E+00 0.  1.
<mgrwt>
<rscale>  0 0.13680046E+04</rscale>
<asrwt>0</asrwt>
<pdfrwt beam="1">  1        1 0.21743329E+00 0.13680046E+04</pdfrwt>
<pdfrwt beam="2">  1       -1 0.50928670E-01 0.13680046E+04</pdfrwt>
<totfact> 0.28478451E+01</totfact>
</mgrwt>
</event>
<event>
12    2  0.8147979E-008  0.3166071E+04  0.7818608E-02  0.8197836E-01
         -2   -1    0    0    0  501 -0.00000000000E+00  0.00000000000E+00  0.16293009924E+04  0.16293009924E+04  0.00000000000E+00 0.  1.
          2   -1    0    0  501    0  0.00000000000E+00 -0.00000000000E+00 -0.15380842205E+04  0.15380842205E+04  0.00000000000E+00 0. -1.
         23    2    1    2    0    0 -0.10542855125E+04  0.71213995992E+03  0.74569478252E+03  0.14775768124E+04  0.92256509565E+02 0.  0.
        254    2    1    2    0    0  0.10542855125E+04 -0.71213995992E+03 -0.65447801061E+03  0.16898084005E+04  0.89913830947E+03 0.  0.
         23    2    4    4    0    0  0.33538306062E+03 -0.24379981460E+03  0.20493347847E+03  0.47193039075E+03  0.93810533318E+02 0.  0.
         23    2    4    4    0    0  0.71890245188E+03 -0.46834014532E+03 -0.85941148908E+03  0.12178780097E+04  0.92062543852E+02 0.  0.
          1    1    3    3  502    0 -0.67444381033E+03  0.49926139371E+03  0.46230530610E+03  0.95805145404E+03  0.00000000000E+00 0. -1.
         -1    1    3    3    0  502 -0.37984170217E+03  0.21287856621E+03  0.28338947642E+03  0.51952535838E+03  0.00000000000E+00 0.  1.
         11    1    5    5    0    0  0.15882159134E+02  0.64364108744E+01 -0.33518063449E+00  0.17140090716E+02  0.00000000000E+00 0. -1.
        -11    1    5    5    0    0  0.31950090149E+03 -0.25023622548E+03  0.20526865910E+03  0.45479030003E+03  0.00000000000E+00 0.  1.
          2    1    6    6  503    0  0.66402287698E+03 -0.41012701557E+03 -0.75072433316E+03  0.10829208533E+04  0.00000000000E+00 0.  1.
         -2    1    6    6    0  503  0.54879574895E+02 -0.58213129757E+02 -0.10868715592E+03  0.13495715646E+03  0.00000000000E+00 0. -1.
<mgrwt>
<rscale>  0 0.31660715E+04</rscale>
<asrwt>0</asrwt>
<pdfrwt beam="1">  1        2 0.23662834E+00 0.31660715E+04</pdfrwt>
<pdfrwt beam="2">  1       -2 0.25066169E+00 0.31660715E+04</pdfrwt>
<totfact> 0.64946811E-01</totfact>
</mgrwt>
</event>
<event>
12    2  0.8147979E-008  0.2889681E+04  0.7818608E-02  0.8275954E-01
          2   -1    0    0  501    0  0.00000000000E+00  0.00000000000E+00  0.25393687925E+04  0.25393687925E+04  0.00000000000E+00 0. -1.
         -2   -1    0    0    0  501 -0.00000000000E+00 -0.00000000000E+00 -0.82207968934E+03  0.82207968934E+03  0.00000000000E+00 0.  1.
         23    2    1    2    0    0 -0.68101255564E+03  0.10581438801E+04  0.39464856669E+03  0.13218482558E+04  0.89937468905E+02 0.  0.
        254    2    1    2    0    0  0.68101255564E+03 -0.10581438801E+04  0.13226405365E+04  0.20396002261E+04  0.90947486030E+03 0.  0.
         23    2    4    4    0    0 -0.11174951682E+03  0.37980096766E+02  0.31848145971E+03  0.35232306535E+03  0.93651801552E+02 0.  0.
         23    2    4    4    0    0  0.79276207246E+03 -0.10961239768E+04  0.10041590768E+04  0.16872771607E+04  0.92786256945E+02 0.  0.
          3    1    3    3  502    0 -0.63217574235E+03  0.94973179466E+03  0.37743470999E+03  0.12017044609E+04  0.00000000000E+00 0. -1.
         -3    1    3    3    0  502 -0.48836813282E+02  0.10841208540E+03  0.17213856700E+02  0.12014379491E+03  0.00000000000E+00 0.  1.
         11    1    5    5    0    0 -0.39152328177E+02 -0.27560426620E+02  0.15061401256E+03  0.15804133224E+03  0.00000000000E+00 0. -1.
        -11    1    5    5    0    0 -0.72597188644E+02  0.65540523386E+02  0.16786744716E+03  0.19428173311E+03  0.00000000000E+00 0.  1.
          1    1    6    6  503    0  0.41735988686E+03 -0.56097137076E+03  0.46240076390E+03  0.83826763055E+03  0.00000000000E+00 0. -1.
         -1    1    6    6    0  503  0.37540218560E+03 -0.53515260607E+03  0.54175831288E+03  0.84900953017E+03  0.00000000000E+00 0.  1.
<mgrwt>
<rscale>  0 0.28896806E+04</rscale>
<asrwt>0</asrwt>
<pdfrwt beam="1">  1        2 0.39067212E+00 0.28896806E+04</pdfrwt>
<pdfrwt beam="2">  1       -2 0.12647380E+00 0.28896806E+04</pdfrwt>
<totfact> 0.13276734E+00</totfact>
</mgrwt>
</event>
<event>
12    2  0.8147979E-008  0.2234883E+04  0.7818608E-02  0.8504048E-01
          2   -1    0    0  501    0  0.00000000000E+00  0.00000000000E+00  0.66150383692E+03  0.66150383692E+03  0.00000000000E+00 0. -1.
         -2   -1    0    0    0  501 -0.00000000000E+00 -0.00000000000E+00 -0.18876321579E+04  0.18876321579E+04  0.00000000000E+00 0.  1.
         23    2    1    2    0    0 -0.47654247111E+03 -0.79389646678E+03 -0.52219109869E+03  0.10670561768E+04  0.92525748238E+02 0.  0.
        254    2    1    2    0    0  0.47654247111E+03  0.79389646678E+03 -0.70393722228E+03  0.14820798180E+04  0.91851436973E+03 0.  0.
         23    2    4    4    0    0  0.10325084413E+03  0.28325419710E+03 -0.77698823708E+03  0.83859709108E+03  0.92955277537E+02 0.  0.
         23    2    4    4    0    0  0.37329162698E+03  0.51064226968E+03  0.73051014797E+02  0.64348272696E+03  0.92905343109E+02 0.  0.
          2    1    3    3  502    0 -0.31015462950E+03 -0.59705335024E+03 -0.37718195164E+03  0.77132018116E+03  0.00000000000E+00 0. -1.
         -2    1    3    3    0  502 -0.16638784161E+03 -0.19684311655E+03 -0.14500914705E+03  0.29573599561E+03  0.00000000000E+00 0.  1.
         11    1    5    5    0    0  0.94165297492E+02  0.24237476957E+03 -0.55760478462E+03  0.61525257253E+03  0.00000000000E+00 0.  1.
        -11    1    5    5    0    0  0.90855466398E+01  0.40879427526E+02 -0.21938345246E+03  0.22334451855E+03  0.00000000000E+00 0. -1.
          3    1    6    6  503    0  0.37397570454E+03  0.48361943159E+03  0.76951263382E+02  0.61617130664E+03  0.00000000000E+00 0. -1.
         -3    1    6    6    0  503 -0.68407756095E+00  0.27022838097E+02 -0.39002485848E+01  0.27311420321E+02  0.00000000000E+00 0.  1.
<mgrwt>
<rscale>  0 0.22348834E+04</rscale>
<asrwt>0</asrwt>
<pdfrwt beam="1">  1        2 0.10176982E+00 0.22348834E+04</pdfrwt>
<pdfrwt beam="2">  1       -2 0.29040494E+00 0.22348834E+04</pdfrwt>
<totfact> 0.14592722E+00</totfact>
</mgrwt>
</event>
<event>
12    2  0.8147979E-008  0.3564288E+04  0.7818608E-02  0.8098721E-01
          2   -1    0    0  501    0  0.00000000000E+00  0.00000000000E+00  0.63022787448E+03  0.63022787448E+03  0.00000000000E+00 0. -1.
         -2   -1    0    0    0  501 -0.00000000000E+00 -0.00000000000E+00 -0.50395059350E+04  0.50395059350E+04  0.00000000000E+00 0.  1.
         23    2    1    2    0    0 -0.10933175372E+04 -0.11236432350E+04 -0.11640698464E+04  0.19547651759E+04  0.90171662400E+02 0.  0.
        254    2    1    2    0    0  0.10933175372E+04  0.11236432350E+04 -0.32452082140E+04  0.37149686335E+04  0.90094297203E+03 0.  0.
         23    2    4    4    0    0  0.59169730597E+03  0.61774787593E+02 -0.14248606350E+04  0.15467716555E+04  0.91394194564E+02 0.  0.
         23    2    4    4    0    0  0.50162023126E+03  0.10618684474E+04 -0.18203475790E+04  0.21681969780E+04  0.90693831047E+02 0.  0.
          3    1    3    3  502    0 -0.63860692631E+03 -0.66824001634E+03 -0.63169337373E+03  0.11195535021E+04  0.00000000000E+00 0. -1.
         -3    1    3    3    0  502 -0.45471061092E+03 -0.45540321869E+03 -0.53237647272E+03  0.83521167376E+03  0.00000000000E+00 0.  1.
         11    1    5    5    0    0  0.58170457198E+03  0.46396309964E+02 -0.13810083579E+04  0.14992387773E+04  0.00000000000E+00 0. -1.
        -11    1    5    5    0    0  0.99927339829E+01  0.15378477628E+02 -0.43852277131E+02  0.47532878266E+02  0.00000000000E+00 0.  1.
          2    1    6    6  503    0  0.36562321508E+03  0.69788866914E+03 -0.11674992710E+04  0.14084684866E+04  0.00000000000E+00 0. -1.
         -2    1    6    6    0  503  0.13599701618E+03  0.36397977829E+03 -0.65284830794E+03  0.75972849137E+03  0.00000000000E+00 0.  1.
<mgrwt>
<rscale>  0 0.35642879E+04</rscale>
<asrwt>0</asrwt>
<pdfrwt beam="1">  1        2 0.96958134E-01 0.35642879E+04</pdfrwt>
<pdfrwt beam="2">  1       -2 0.77530861E+00 0.35642879E+04</pdfrwt>
<totfact> 0.41209072E-03</totfact>
</mgrwt>
</event>
<event>
12    2  0.8147979E-008  0.2251196E+04  0.7818608E-02  0.8497416E-01
          2   -1    0    0  501    0  0.00000000000E+00  0.00000000000E+00  0.34196224227E+04  0.34196224227E+04  0.00000000000E+00 0.  1.
         -2   -1    0    0    0  501 -0.00000000000E+00 -0.00000000000E+00 -0.37050019225E+03  0.37050019225E+03  0.00000000000E+00 0. -1.
         23    2    1    2    0    0  0.67203435723E+03  0.43525910962E+03  0.44476865357E+03  0.92054212091E+03  0.92184442090E+02 0.  0.
        254    2    1    2    0    0 -0.67203435723E+03 -0.43525910962E+03  0.26043535769E+04  0.28695804941E+04  0.90041878510E+03 0.  0.
         23    2    4    4    0    0 -0.87845231241E+03 -0.41375697679E+03  0.21891888776E+04  0.23966054205E+04  0.91084020074E+02 0.  0.
         23    2    4    4    0    0  0.20641795518E+03 -0.21502132827E+02  0.41516469935E+03  0.47297507361E+03  0.90955916440E+02 0.  0.
          1    1    3    3  502    0  0.59233351662E+02  0.23977602445E+02  0.62536372322E+02  0.89410923445E+02  0.00000000000E+00 0. -1.
         -1    1    3    3    0  502  0.61280100557E+03  0.41128150717E+03  0.38223228125E+03  0.83113119746E+03  0.00000000000E+00 0.  1.
         11    1    5    5    0    0 -0.32244436093E+03 -0.11737071376E+03  0.69873180447E+03  0.77844228105E+03  0.00000000000E+00 0. -1.
        -11    1    5    5    0    0 -0.55600795148E+03 -0.29638626303E+03  0.14904570731E+04  0.16181631394E+04  0.00000000000E+00 0.  1.
          3    1    6    6  503    0  0.46676061121E+02 -0.28403832988E+02  0.18370954494E+03  0.19166280107E+03  0.00000000000E+00 0. -1.
         -3    1    6    6    0  503  0.15974189406E+03  0.69017001614E+01  0.23145515441E+03  0.28131227254E+03  0.00000000000E+00 0.  1.
<mgrwt>
<rscale>  0 0.22511959E+04</rscale>
<asrwt>0</asrwt>
<pdfrwt beam="1">  1        2 0.52609573E+00 0.22511959E+04</pdfrwt>
<pdfrwt beam="2">  1       -2 0.57000032E-01 0.22511959E+04</pdfrwt>
<totfact> 0.24341366E+00</totfact>
</mgrwt>
</event>
<event>
12    2  0.8147979E-008  0.2201832E+04  0.7818608E-02  0.8517666E-01
         -1   -1    0    0    0  501 -0.00000000000E+00  0.00000000000E+00  0.61152016054E+03  0.61152016054E+03  0.00000000000E+00 0.  1.
          1   -1    0    0  501    0  0.00000000000E+00 -0.00000000000E+00 -0.19819716933E+04  0.19819716933E+04  0.00000000000E+00 0. -1.
         23    2    1    2    0    0  0.33047707726E+03 -0.82594384999E+03 -0.32355498279E+03  0.95113340812E+03  0.92566685211E+02 0.  0.
        254    2    1    2    0    0 -0.33047707726E+03  0.82594384999E+03 -0.10468965499E+04  0.16423584457E+04  0.89997251954E+03 0.  0.
         23    2    4    4    0    0 -0.37698259628E+03  0.92982991717E+03 -0.60183028155E+03  0.11738993702E+04  0.95605914376E+02 0.  0.
         23    2    4    4    0    0  0.46505519022E+02 -0.10388606718E+03 -0.44506626840E+03  0.46845907547E+03  0.91732458105E+02 0.  0.
          2    1    3    3  502    0  0.23673028429E+03 -0.68057427191E+03 -0.27722861529E+03  0.77206105473E+03  0.00000000000E+00 0. -1.
         -2    1    3    3    0  502  0.93746792962E+02 -0.14536957808E+03 -0.46326367500E+02  0.17907235339E+03  0.00000000000E+00 0.  1.
         11    1    5    5    0    0 -0.12460568173E+03  0.43339741656E+03 -0.26456646469E+03  0.52283392281E+03  0.00000000000E+00 0.  1.
        -11    1    5    5    0    0 -0.25237691455E+03  0.49643250062E+03 -0.33726381686E+03  0.65106544742E+03  0.00000000000E+00 0. -1.
          3    1    6    6  503    0  0.56442844867E+02 -0.11553253630E+03 -0.41837780618E+03  0.43769115868E+03  0.00000000000E+00 0. -1.
         -3    1    6    6    0  503 -0.99373258450E+01  0.11646469125E+02 -0.26688462216E+02  0.30767916789E+02  0.00000000000E+00 0.  1.
<mgrwt>
<rscale>  0 0.22018316E+04</rscale>
<asrwt>0</asrwt>
<pdfrwt beam="1">  1        1 0.30491872E+00 0.22018316E+04</pdfrwt>
<pdfrwt beam="2">  1       -1 0.94080025E-01 0.22018316E+04</pdfrwt>
<totfact> 0.30574222E+00</totfact>
</mgrwt>
</event>
<event>
12    2  0.8147979E-008  0.2236619E+04  0.7818608E-02  0.8503339E-01
          2   -1    0    0  501    0  0.00000000000E+00  0.00000000000E+00  0.14896426281E+04  0.14896426281E+04  0.00000000000E+00 0. -1.
         -2   -1    0    0    0  501 -0.00000000000E+00 -0.00000000000E+00 -0.83954113287E+03  0.83954113287E+03  0.00000000000E+00 0.  1.
         23    2    1    2    0    0  0.93378908578E+02 -0.75907542972E+03  0.83363309660E+03  0.11343809255E+04  0.83431503624E+02 0.  0.
        254    2    1    2    0    0 -0.93378908578E+02  0.75907542972E+03 -0.18353160140E+03  0.11948028355E+04  0.89941916720E+03 0.  0.
         23    2    4    4    0    0  0.15501440744E+03 -0.14927692089E+03 -0.19463928774E+02  0.23469173913E+03  0.91587675312E+02 0.  0.
         23    2    4    4    0    0 -0.24839331602E+03  0.90835235061E+03 -0.16406767263E+03  0.96011109632E+03  0.89954898530E+02 0.  0.
          4    1    3    3  502    0  0.48645950694E+02 -0.27392277931E+03  0.35915950335E+03  0.45430789822E+03  0.00000000000E+00 0. -1.
         -4    1    3    3    0  502  0.44732957884E+02 -0.48515265041E+03  0.47447359325E+03  0.68007302726E+03  0.00000000000E+00 0.  1.
         11    1    5    5    0    0  0.88377833620E+02 -0.27268234543E+02  0.85294247927E+01  0.92881371533E+02  0.00000000000E+00 0. -1.
        -11    1    5    5    0    0  0.66636573820E+02 -0.12200868635E+03 -0.27993353566E+02  0.14181036760E+03  0.00000000000E+00 0.  1.
          2    1    6    6  503    0 -0.73422092199E+02  0.43510094847E+03 -0.67316572639E+02  0.44635765921E+03  0.00000000000E+00 0.  1.
         -2    1    6    6    0  503 -0.17497122382E+03  0.47325140214E+03 -0.96751099991E+02  0.51375343711E+03  0.00000000000E+00 0. -1.
<mgrwt>
<rscale>  0 0.22366191E+04</rscale>
<asrwt>0</asrwt>
<pdfrwt beam="1">  1        2 0.22917579E+00 0.22366191E+04</pdfrwt>
<pdfrwt beam="2">  1       -2 0.12916017E+00 0.22366191E+04</pdfrwt>
<totfact> 0.51774024E+00</totfact>
</mgrwt>
</event>
<event>
12    2  0.8147979E-008  0.1364087E+04  0.7818608E-02  0.8980232E-01
          2   -1    0    0  501    0  0.00000000000E+00  0.00000000000E+00  0.16952916322E+04  0.16952916322E+04  0.00000000000E+00 0. -1.
         -2   -1    0    0    0  501 -0.00000000000E+00 -0.00000000000E+00 -0.27439734556E+03  0.27439734556E+03  0.00000000000E+00 0.  1.
         23    2    1    2    0    0 -0.15061198570E+02  0.37475724812E+03  0.46740357285E+03  0.60639425106E+03  0.92617779516E+02 0.  0.
        254    2    1    2    0    0  0.15061198570E+02 -0.37475724812E+03  0.95349071380E+03  0.13632947267E+04  0.89930981083E+03 0.  0.
         23    2    4    4    0    0 -0.11995382918E+03  0.10635681432E+03  0.81712645946E+03  0.83747151599E+03  0.89231139523E+02 0.  0.
         23    2    4    4    0    0  0.13501502775E+03 -0.48111406244E+03  0.13636425434E+03  0.52582321072E+03  0.90526461727E+02 0.  0.
          2    1    3    3  502    0  0.26956320814E+02  0.75632556499E+02  0.13643501586E+03  0.15830805534E+03  0.00000000000E+00 0. -1.
         -2    1    3    3    0  502 -0.42017519385E+02  0.29912469162E+03  0.33096855699E+03  0.44808619571E+03  0.00000000000E+00 0.  1.
         11    1    5    5    0    0 -0.23114107771E+02  0.23391581442E+02  0.39848047599E+03  0.39983511327E+03  0.00000000000E+00 0.  1.
        -11    1    5    5    0    0 -0.96839721411E+02  0.82965232881E+02  0.41864598347E+03  0.43763640272E+03  0.00000000000E+00 0. -1.
          4    1    6    6  503    0  0.61842003192E+02 -0.36310762751E+03  0.11077515374E+03  0.38463322426E+03  0.00000000000E+00 0.  1.
         -4    1    6    6    0  503  0.73173024560E+02 -0.11800643493E+03  0.25589100598E+02  0.14118998647E+03  0.00000000000E+00 0. -1.
<mgrwt>
<rscale>  0 0.13640873E+04</rscale>
<asrwt>0</asrwt>
<pdfrwt beam="1">  1        2 0.26081409E+00 0.13640873E+04</pdfrwt>
<pdfrwt beam="2">  1       -2 0.42214977E-01 0.13640873E+04</pdfrwt>
<totfact> 0.51196943E+01</totfact>
</mgrwt>
</event>
<event>
12    2  0.8147979E-008  0.5897882E+04  0.7818608E-02  0.7703194E-01
          1   -1    0    0  501    0  0.00000000000E+00  0.00000000000E+00  0.39508792419E+04  0.39508792419E+04  0.00000000000E+00 0. -1.
         -1   -1    0    0    0  501 -0.00000000000E+00 -0.00000000000E+00 -0.22010932625E+04  0.22010932625E+04  0.00000000000E+00 0.  1.
         23    2    1    2    0    0  0.24935195064E+04 -0.13329393274E+04  0.14213059746E+04  0.31658930125E+04  0.91657591493E+02 0.  0.
        254    2    1    2    0    0 -0.24935195064E+04  0.13329393274E+04  0.32848000474E+03  0.29860794918E+04  0.90244381466E+03 0.  0.
         23    2    4    4    0    0 -0.17465784640E+03  0.42173228696E+03  0.13874936922E+03  0.48581090591E+03  0.91637130414E+02 0.  0.
         23    2    4    4    0    0 -0.23188616600E+04  0.91120704040E+03  0.18973063552E+03  0.25002685859E+04  0.89037176593E+02 0.  0.
          3    1    3    3  502    0  0.19002471521E+04 -0.97323907948E+03  0.10861920006E+04  0.23954011370E+04  0.00000000000E+00 0. -1.
         -3    1    3    3    0  502  0.59327235428E+03 -0.35970024789E+03  0.33511397408E+03  0.77049187556E+03  0.00000000000E+00 0.  1.
         11    1    5    5    0    0 -0.10382507276E+03  0.24417749871E+03  0.33084010796E+02  0.26738894588E+03  0.00000000000E+00 0.  1.
        -11    1    5    5    0    0 -0.70832773639E+02  0.17755478826E+03  0.10566535843E+03  0.21842196004E+03  0.00000000000E+00 0. -1.
          2    1    6    6  503    0 -0.63442179193E+03  0.28985112477E+03  0.39916227589E+02  0.69864010036E+03  0.00000000000E+00 0. -1.
         -2    1    6    6    0  503 -0.16844398681E+04  0.62135591563E+03  0.14981440793E+03  0.18016284855E+04  0.00000000000E+00 0.  1.
<mgrwt>
<rscale>  0 0.58978822E+04</rscale>
<asrwt>0</asrwt>
<pdfrwt beam="1">  1        1 0.60782757E+00 0.58978822E+04</pdfrwt>
<pdfrwt beam="2">  1       -1 0.33862973E+00 0.58978822E+04</pdfrwt>
<totfact> 0.13131462E-03</totfact>
</mgrwt>
</event>
<event>
12    2  0.8147979E-008  0.1867685E+04  0.7818608E-02  0.8671111E-01
          2   -1    0    0  501    0  0.00000000000E+00  0.00000000000E+00  0.78251454171E+03  0.78251454171E+03  0.00000000000E+00 0. -1.
         -2   -1    0    0    0  501 -0.00000000000E+00 -0.00000000000E+00 -0.11144351186E+04  0.11144351186E+04  0.00000000000E+00 0.  1.
         23    2    1    2    0    0  0.22965618493E+03  0.64042631966E+03  0.77476333014E+02  0.69105664637E+03  0.93106778091E+02 0.  0.
        254    2    1    2    0    0 -0.22965618493E+03 -0.64042631966E+03 -0.40939690995E+03  0.12058930140E+04  0.90757054664E+03 0.  0.
         23    2    4    4    0    0  0.22694112774E+03 -0.48009268634E+03 -0.46457689543E+03  0.71143855550E+03  0.91224248712E+02 0.  0.
         23    2    4    4    0    0 -0.45659731267E+03 -0.16033363331E+03  0.55179985474E+02  0.49445445848E+03  0.85161028709E+02 0.  0.
          1    1    3    3  502    0  0.10276856185E+03  0.36196597301E+03  0.81612052241E+02  0.38502112928E+03  0.00000000000E+00 0. -1.
         -1    1    3    3    0  502  0.12688762308E+03  0.27846034665E+03 -0.41357192267E+01  0.30603551709E+03  0.00000000000E+00 0.  1.
         11    1    5    5    0    0  0.95317057683E+02 -0.19881799843E+03 -0.13466375192E+03  0.25835685411E+03  0.00000000000E+00 0. -1.
        -11    1    5    5    0    0  0.13162407006E+03 -0.28127468791E+03 -0.32991314350E+03  0.45308170139E+03  0.00000000000E+00 0.  1.
          2    1    6    6  503    0 -0.10715326607E+03 -0.19520294818E+02 -0.18754795078E+02  0.11051971172E+03  0.00000000000E+00 0. -1.
         -2    1    6    6    0  503 -0.34944404660E+03 -0.14081333849E+03  0.73934780552E+02  0.38393474677E+03  0.00000000000E+00 0.  1.
<mgrwt>
<rscale>  0 0.18676849E+04</rscale>
<asrwt>0</asrwt>
<pdfrwt beam="1">  1        2 0.12038685E+00 0.18676849E+04</pdfrwt>
<pdfrwt beam="2">  1       -2 0.17145156E+00 0.18676849E+04</pdfrwt>
<totfact> 0.69286143E+00</totfact>
</mgrwt>
</event>
<event>
12    2  0.8147979E-008  0.2488037E+04  0.7818608E-02  0.8407260E-01
         -1   -1    0    0    0  501 -0.00000000000E+00  0.00000000000E+00  0.16052890661E+04  0.16052890661E+04  0.00000000000E+00 0.  1.
          1   -1    0    0  501    0  0.00000000000E+00 -0.00000000000E+00 -0.96405162593E+03  0.96405162593E+03  0.00000000000E+00 0. -1.
         23    2    1    2    0    0 -0.67372541750E+03  0.72391238663E+03 -0.17309943016E+03  0.10080441672E+04  0.90744413118E+02 0.  0.
        254    2    1    2    0    0  0.67372541750E+03 -0.72391238663E+03  0.81433687038E+03  0.15612965249E+04  0.89249494037E+03 0.  0.
         23    2    4    4    0    0  0.34306400478E+03 -0.87482964881E+03  0.67720105443E+03  0.11616237909E+04  0.88026914673E+02 0.  0.
         23    2    4    4    0    0  0.33066141272E+03  0.15091726219E+03  0.13713581595E+03  0.39967273400E+03  0.93909916386E+02 0.  0.
          4    1    3    3  502    0 -0.25419523150E+03  0.21833558620E+03 -0.79995823760E+02  0.34450685877E+03  0.00000000000E+00 0. -1.
         -4    1    3    3    0  502 -0.41953018600E+03  0.50557680043E+03 -0.93103606401E+02  0.66353730838E+03  0.00000000000E+00 0.  1.
         11    1    5    5    0    0  0.73749040550E+01 -0.21805817862E+02  0.20089504654E+01  0.23106682679E+02  0.00000000000E+00 0. -1.
        -11    1    5    5    0    0  0.33568910072E+03 -0.85302383095E+03  0.67519210396E+03  0.11385171082E+04  0.00000000000E+00 0.  1.
          3    1    6    6  503    0 -0.61019189604E+01  0.11920270183E+01  0.55652048729E+01  0.83442104893E+01  0.00000000000E+00 0. -1.
         -3    1    6    6    0  503  0.33676333168E+03  0.14972523517E+03  0.13157061108E+03  0.39132852351E+03  0.00000000000E+00 0.  1.
<mgrwt>
<rscale>  0 0.24880366E+04</rscale>
<asrwt>0</asrwt>
<pdfrwt beam="1">  1        1 0.14831563E+00 0.24880366E+04</pdfrwt>
<pdfrwt beam="2">  1       -1 0.24696755E+00 0.24880366E+04</pdfrwt>
<totfact> 0.10482501E+00</totfact>
</mgrwt>
</event>
<event>
12    2  0.8147979E-008  0.1076988E+04  0.7818608E-02  0.9227916E-01
         -4   -1    0    0    0  501 -0.00000000000E+00  0.00000000000E+00  0.46727830293E+03  0.46727830293E+03  0.00000000000E+00 0.  1.
          4   -1    0    0  501    0  0.00000000000E+00 -0.00000000000E+00 -0.62056319466E+03  0.62056319466E+03  0.00000000000E+00 0. -1.
         23    2    1    2    0    0 -0.10250116225E+03 -0.82049837104E+02 -0.76058650551E+02  0.17441083923E+03  0.85997433018E+02 0.  0.
        254    2    1    2    0    0  0.10250116225E+03  0.82049837104E+02 -0.77226241176E+02  0.91343065836E+03  0.90064033402E+03 0.  0.
         23    2    4    4    0    0  0.46451666364E+03  0.17248947169E+03 -0.14820009408E+03  0.52508078652E+03  0.90654375769E+02 0.  0.
         23    2    4    4    0    0 -0.36201550139E+03 -0.90439634582E+02  0.70973852901E+02  0.38834987184E+03  0.80893661146E+02 0.  0.
          3    1    3    3  502    0  0.14928934303E+01 -0.13488444537E+02 -0.43638490836E+02  0.45699942552E+02  0.00000000000E+00 0. -1.
         -3    1    3    3    0  502 -0.10399405568E+03 -0.68561392567E+02 -0.32420159715E+02  0.12871089668E+03  0.00000000000E+00 0.  1.
         11    1    5    5    0    0  0.15768181548E+03  0.23504051481E+02 -0.75172451579E+02  0.17625802917E+03  0.00000000000E+00 0.  1.
        -11    1    5    5    0    0  0.30683484816E+03  0.14898542021E+03 -0.73027642498E+02  0.34882275735E+03  0.00000000000E+00 0. -1.
          4    1    6    6  503    0 -0.26143408993E+03 -0.97874144624E+02  0.35331459661E+02  0.28138131354E+03  0.00000000000E+00 0. -1.
         -4    1    6    6    0  503 -0.10058141145E+03  0.74345100420E+01  0.35642393240E+02  0.10696855830E+03  0.00000000000E+00 0.  1.
<mgrwt>
<rscale>  0 0.10769879E+04</rscale>
<asrwt>0</asrwt>
<pdfrwt beam="1">  1        4 0.95471260E-01 0.10769879E+04</pdfrwt>
<pdfrwt beam="2">  1       -4 0.71888970E-01 0.10769879E+04</pdfrwt>
<totfact> 0.32184190E+00</totfact>
</mgrwt>
</event>
<event>
12    2  0.8147979E-008  0.1462601E+04  0.7818608E-02  0.8909711E-01
          2   -1    0    0  501    0  0.00000000000E+00  0.00000000000E+00  0.11382117701E+04  0.11382117701E+04  0.00000000000E+00 0. -1.
         -2   -1    0    0    0  501 -0.00000000000E+00 -0.00000000000E+00 -0.46986021194E+03  0.46986021194E+03  0.00000000000E+00 0.  1.
         23    2    1    2    0    0  0.21052647612E+03 -0.35278464604E+03  0.13075906326E+02  0.42129087407E+03  0.92393818059E+02 0.  0.
        254    2    1    2    0    0 -0.21052647612E+03  0.35278464604E+03  0.65527565188E+03  0.11867811080E+04  0.90015821651E+03 0.  0.
         23    2    4    4    0    0  0.30156806434E+02  0.61323874257E+03  0.44869270734E+03  0.76510012990E+03  0.84153875749E+02 0.  0.
         23    2    4    4    0    0 -0.24068328256E+03 -0.26045409652E+03  0.20658294454E+03  0.42168097811E+03  0.96817123625E+02 0.  0.
          2    1    3    3  502    0  0.29981289500E+02 -0.96024873706E+02  0.35331008908E+02  0.10662051529E+03  0.00000000000E+00 0. -1.
         -2    1    3    3    0  502  0.18054518662E+03 -0.25675977234E+03 -0.22255102582E+02  0.31467035878E+03  0.00000000000E+00 0.  1.
         11    1    5    5    0    0  0.33421346121E+02  0.33120568399E+03  0.28987244549E+03  0.44140709797E+03  0.00000000000E+00 0.  1.
        -11    1    5    5    0    0 -0.32645396861E+01  0.28203305858E+03  0.15882026184E+03  0.32369303193E+03  0.00000000000E+00 0. -1.
          1    1    6    6  503    0 -0.10340728720E+02 -0.98628058983E+01  0.40505493713E+02  0.42952306475E+02  0.00000000000E+00 0. -1.
         -1    1    6    6    0  503 -0.23034255384E+03 -0.25059129062E+03  0.16607745083E+03  0.37872867163E+03  0.00000000000E+00 0.  1.
<mgrwt>
<rscale>  0 0.14626010E+04</rscale>
<asrwt>0</asrwt>
<pdfrwt beam="1">  1        2 0.17510950E+00 0.14626010E+04</pdfrwt>
<pdfrwt beam="2">  1       -2 0.72286187E-01 0.14626010E+04</pdfrwt>
<totfact> 0.34648979E+01</totfact>
</mgrwt>
</event>
<event>
12    2  0.8147979E-008  0.1292169E+04  0.7818608E-02  0.9035799E-01
          2   -1    0    0  501    0  0.00000000000E+00  0.00000000000E+00  0.32551054833E+04  0.32551054833E+04  0.00000000000E+00 0. -1.
         -2   -1    0    0    0  501 -0.00000000000E+00 -0.00000000000E+00 -0.12823700558E+03  0.12823700558E+03  0.00000000000E+00 0.  1.
         23    2    1    2    0    0  0.12215919166E+03  0.29577337964E+03  0.91471019490E+03  0.97364310333E+03  0.94241136445E+02 0.  0.
        254    2    1    2    0    0 -0.12215919166E+03 -0.29577337964E+03  0.22121582829E+04  0.24096993856E+04  0.90033443804E+03 0.  0.
         23    2    4    4    0    0  0.15395236708E+03  0.21430087167E+03  0.12641696113E+04  0.12946322714E+04  0.91223446477E+02 0.  0.
         23    2    4    4    0    0 -0.27611155874E+03 -0.51007425130E+03  0.94798867156E+03  0.11150671142E+04  0.90987982532E+02 0.  0.
          4    1    3    3  502    0  0.10644799041E+03  0.13855732410E+03  0.51532516861E+03  0.54414091569E+03  0.00000000000E+00 0. -1.
         -4    1    3    3    0  502  0.15711201249E+02  0.15721605553E+03  0.39938502628E+03  0.42950218763E+03  0.00000000000E+00 0.  1.
         11    1    5    5    0    0  0.13490320988E+03  0.19401929211E+03  0.93915794910E+03  0.96843172971E+03  0.00000000000E+00 0. -1.
        -11    1    5    5    0    0  0.19049157199E+02  0.20281579560E+02  0.32501166220E+03  0.32620054173E+03  0.00000000000E+00 0.  1.
          3    1    6    6  503    0 -0.25258285623E+03 -0.45862124968E+03  0.89840064999E+03  0.10398342550E+04  0.00000000000E+00 0. -1.
         -3    1    6    6    0  503 -0.23528702514E+02 -0.51453001627E+02  0.49588021573E+02  0.75232859190E+02  0.00000000000E+00 0.  1.
<mgrwt>
<rscale>  0 0.12921687E+04</rscale>
<asrwt>0</asrwt>
<pdfrwt beam="1">  1        2 0.50078540E+00 0.12921687E+04</pdfrwt>
<pdfrwt beam="2">  1       -2 0.19728773E-01 0.12921687E+04</pdfrwt>
<totfact> 0.26033719E+01</totfact>
</mgrwt>
</event>
<event>
12    2  0.8147979E-008  0.1165641E+04  0.7818608E-02  0.9143474E-01
          1   -1    0    0  501    0  0.00000000000E+00  0.00000000000E+00  0.12570471537E+04  0.12570471537E+04  0.00000000000E+00 0. -1.
         -1   -1    0    0    0  501 -0.00000000000E+00 -0.00000000000E+00 -0.27022027148E+03  0.27022027148E+03  0.00000000000E+00 0.  1.
         23    2    1    2    0    0 -0.19418725947E+03  0.94007626129E+02  0.14304360137E+03  0.27437998905E+03  0.90976815672E+02 0.  0.
        254    2    1    2    0    0  0.19418725947E+03 -0.94007626129E+02  0.84378328086E+03  0.12528874361E+04  0.90067229171E+03 0.  0.
         23    2    4    4    0    0  0.18363182343E+03 -0.57908688619E+02  0.10247368750E+04  0.10463298011E+04  0.87443278316E+02 0.  0.
         23    2    4    4    0    0  0.10555436037E+02 -0.36098937510E+02 -0.18095359413E+03  0.20655763503E+03  0.92235041292E+02 0.  0.
          2    1    3    3  502    0 -0.68818419269E+02 -0.11927842625E+02  0.38021687336E+02  0.79522933599E+02  0.00000000000E+00 0. -1.
         -2    1    3    3    0  502 -0.12536884020E+03  0.10593546875E+03  0.10502191403E+03  0.19485705546E+03  0.00000000000E+00 0.  1.
         11    1    5    5    0    0  0.13738125275E+03 -0.54606414356E+02  0.91980342787E+03  0.93160818750E+03  0.00000000000E+00 0.  1.
        -11    1    5    5    0    0  0.46250570682E+02 -0.33022742624E+01  0.10493344712E+03  0.11472161361E+03  0.00000000000E+00 0. -1.
          3    1    6    6  503    0 -0.36395232202E+02 -0.38626785500E+01 -0.38397919594E+02  0.53046521486E+02  0.00000000000E+00 0. -1.
         -3    1    6    6    0  503  0.46950668239E+02 -0.32236258960E+02 -0.14255567453E+03  0.15351111354E+03  0.00000000000E+00 0.  1.
<mgrwt>
<rscale>  0 0.11656408E+04</rscale>
<asrwt>0</asrwt>
<pdfrwt beam="1">  1        1 0.19339187E+00 0.11656408E+04</pdfrwt>
<pdfrwt beam="2">  1       -1 0.41572350E-01 0.11656408E+04</pdfrwt>
<totfact> 0.54643667E+01</totfact>
</mgrwt>
</event>
<event>
12    2  0.8147979E-008  0.1288661E+04  0.7818608E-02  0.9038606E-01
         -2   -1    0    0    0  501 -0.00000000000E+00  0.00000000000E+00  0.23045522371E+03  0.23045522371E+03  0.00000000000E+00 0.  1.
          2   -1    0    0  501    0  0.00000000000E+00 -0.00000000000E+00 -0.18014846112E+04  0.18014846112E+04  0.00000000000E+00 0. -1.
         23    2    1    2    0    0 -0.23683079234E+03  0.15740459705E+03 -0.64085152920E+03  0.70678531123E+03  0.89385470425E+02 0.  0.
        254    2    1    2    0    0  0.23683079234E+03 -0.15740459705E+03 -0.93017785829E+03  0.13251545237E+04  0.89996590613E+03 0.  0.
         23    2    4    4    0    0 -0.33654785257E+03 -0.37777101766E+02 -0.32808044425E+03  0.48017325095E+03  0.90763464783E+02 0.  0.
         23    2    4    4    0    0  0.57337864492E+03 -0.11962749529E+03 -0.60209741404E+03  0.84498127273E+03  0.91641951007E+02 0.  0.
          2    1    3    3  502    0 -0.16366641790E+03  0.92989670997E+02 -0.50989111261E+03  0.54352803238E+03  0.00000000000E+00 0. -1.
         -2    1    3    3    0  502 -0.73164374445E+02  0.64414926055E+02 -0.13096041659E+03  0.16325727886E+03  0.00000000000E+00 0.  1.
         11    1    5    5    0    0 -0.36709410180E+01 -0.13803399823E+02 -0.27687890835E+02  0.31154918609E+02  0.00000000000E+00 0.  1.
        -11    1    5    5    0    0 -0.33287691156E+03 -0.23973701943E+02 -0.30039255341E+03  0.44901833234E+03  0.00000000000E+00 0. -1.
          3    1    6    6  503    0  0.31978368359E+03 -0.34893828454E+02 -0.37595955400E+03  0.49479770594E+03  0.00000000000E+00 0. -1.
         -3    1    6    6    0  503  0.25359496133E+03 -0.84733666832E+02 -0.22613786004E+03  0.35018356679E+03  0.00000000000E+00 0.  1.
<mgrwt>
<rscale>  0 0.12886606E+04</rscale>
<asrwt>0</asrwt>
<pdfrwt beam="1">  1        2 0.27715148E+00 0.12886606E+04</pdfrwt>
<pdfrwt beam="2">  1       -2 0.35454650E-01 0.12886606E+04</pdfrwt>
<totfact> 0.63144616E+01</totfact>
</mgrwt>
</event>
<event>
12    2  0.8147979E-008  0.1831660E+04  0.7818608E-02  0.8689642E-01
          1   -1    0    0  501    0  0.00000000000E+00  0.00000000000E+00  0.44314712287E+04  0.44314712287E+04  0.00000000000E+00 0. -1.
         -1   -1    0    0    0  501 -0.00000000000E+00 -0.00000000000E+00 -0.18927004151E+03  0.18927004151E+03  0.00000000000E+00 0.  1.
         23    2    1    2    0    0 -0.31273260672E+03 -0.54903585694E+03  0.90649991676E+03  0.11085723198E+04  0.89153988686E+02 0.  0.
        254    2    1    2    0    0  0.31273260672E+03  0.54903585694E+03  0.33357012704E+04  0.35121689503E+04  0.89954750566E+03 0.  0.
         23    2    4    4    0    0  0.65644172823E+02  0.28903111094E+03  0.23437915933E+03  0.38883475787E+03  0.91710076268E+02 0.  0.
         23    2    4    4    0    0  0.24708843389E+03  0.26000474600E+03  0.31013221111E+04  0.31233341925E+04  0.91446591764E+02 0.  0.
          4    1    3    3  502    0 -0.24279277518E+03 -0.34792653403E+03  0.57498909337E+03  0.71457236320E+03  0.00000000000E+00 0. -1.
         -4    1    3    3    0  502 -0.69939831542E+02 -0.20110932291E+03  0.33151082339E+03  0.39399995663E+03  0.00000000000E+00 0.  1.
         11    1    5    5    0    0  0.26622318043E+02  0.98943785935E+01  0.20920432052E+02  0.35274793025E+02  0.00000000000E+00 0. -1.
        -11    1    5    5    0    0  0.39021854780E+02  0.27913673234E+03  0.21345872727E+03  0.35355996485E+03  0.00000000000E+00 0.  1.
          1    1    6    6  503    0  0.19818684538E+02  0.64385924564E+02  0.73694006462E+03  0.74001282852E+03  0.00000000000E+00 0. -1.
         -1    1    6    6    0  503  0.22726974936E+03  0.19561882144E+03  0.23643820464E+04  0.23833213639E+04  0.00000000000E+00 0.  1.
<mgrwt>
<rscale>  0 0.18316602E+04</rscale>
<asrwt>0</asrwt>
<pdfrwt beam="1">  1        1 0.68176472E+00 0.18316602E+04</pdfrwt>
<pdfrwt beam="2">  1       -1 0.29118471E-01 0.18316602E+04</pdfrwt>
<totfact> 0.38901196E-01</totfact>
</mgrwt>
</event>
<event>
12    2  0.8147979E-008  0.3143842E+04  0.7818608E-02  0.8203808E-01
         -1   -1    0    0    0  501 -0.00000000000E+00  0.00000000000E+00  0.95436757227E+03  0.95436757227E+03  0.00000000000E+00 0.  1.
          1   -1    0    0  501    0  0.00000000000E+00 -0.00000000000E+00 -0.25890824815E+04  0.25890824815E+04  0.00000000000E+00 0. -1.
         23    2    1    2    0    0 -0.75490988142E+03  0.89695847787E+03 -0.16967203836E+04  0.20634491117E+04  0.67370145297E+02 0.  0.
        254    2    1    2    0    0  0.75490988142E+03 -0.89695847787E+03  0.62005474393E+02  0.14800009420E+04  0.90118514714E+03 0.  0.
         23    2    4    4    0    0  0.48099430922E+03 -0.76983716601E+03  0.41843854586E+03  0.10036128256E+04  0.90239123517E+02 0.  0.
         23    2    4    4    0    0  0.27391557220E+03 -0.12712131187E+03 -0.35643307147E+03  0.47638811640E+03  0.93335600827E+02 0.  0.
          2    1    3    3  502    0 -0.16317804688E+03  0.23331819454E+03 -0.43598778449E+03  0.52072046542E+03  0.00000000000E+00 0. -1.
         -2    1    3    3    0  502 -0.59173183454E+03  0.66364028333E+03 -0.12607325991E+04  0.15427286463E+04  0.00000000000E+00 0.  1.
         11    1    5    5    0    0  0.22555398188E+03 -0.43819050771E+03  0.24679008291E+03  0.55117226419E+03  0.00000000000E+00 0.  1.
        -11    1    5    5    0    0  0.25544032734E+03 -0.33164665829E+03  0.17164846295E+03  0.45244056143E+03  0.00000000000E+00 0. -1.
          1    1    6    6  503    0  0.78543040866E+02 -0.79436632175E+02 -0.16102544347E+03  0.19598056343E+03  0.00000000000E+00 0. -1.
         -1    1    6    6    0  503  0.19537253133E+03 -0.47684679691E+02 -0.19540762801E+03  0.28040755296E+03  0.00000000000E+00 0.  1.
<mgrwt>
<rscale>  0 0.31438425E+04</rscale>
<asrwt>0</asrwt>
<pdfrwt beam="1">  1        1 0.39832038E+00 0.31438425E+04</pdfrwt>
<pdfrwt beam="2">  1       -1 0.14682578E+00 0.31438425E+04</pdfrwt>
<totfact> 0.36465791E-01</totfact>
</mgrwt>
</event>
<event>
12    2  0.8147979E-008  0.2366551E+04  0.7818608E-02  0.8452133E-01
         -2   -1    0    0    0  501 -0.00000000000E+00  0.00000000000E+00  0.43451073382E+03  0.43451073382E+03  0.00000000000E+00 0. -1.
          2   -1    0    0  501    0  0.00000000000E+00 -0.00000000000E+00 -0.32223404152E+04  0.32223404152E+04  0.00000000000E+00 0.  1.
         23    2    1    2    0    0  0.25965960151E+03  0.31540998940E+03  0.23074266460E+03  0.48108770642E+03  0.10628562432E+03 0.  0.
        254    2    1    2    0    0 -0.25965960151E+03 -0.31540998940E+03 -0.30185723460E+04  0.31757634426E+04  0.89821370804E+03 0.  0.
         23    2    4    4    0    0 -0.51911473160E+03 -0.82228047927E+02 -0.24089875794E+04  0.24673527513E+04  0.91470680779E+02 0.  0.
         23    2    4    4    0    0  0.25945513009E+03 -0.23318194147E+03 -0.60958476660E+03  0.70841069126E+03  0.92527495751E+02 0.  0.
          1    1    3    3  502    0  0.15358300137E+03  0.11955970475E+03  0.14377808836E+03  0.24198016448E+03  0.00000000000E+00 0. -1.
         -1    1    3    3    0  502  0.10607660014E+03  0.19585028465E+03  0.86964576239E+02  0.23910754194E+03  0.00000000000E+00 0.  1.
         11    1    5    5    0    0 -0.50021648108E+03 -0.68436237751E+02 -0.23550478760E+04  0.24085577728E+04  0.00000000000E+00 0. -1.
        -11    1    5    5    0    0 -0.18898250525E+02 -0.13791810177E+02 -0.53939703311E+02  0.58794978477E+02  0.00000000000E+00 0.  1.
          1    1    6    6  503    0  0.15261345577E+03 -0.18964528828E+03 -0.37657333579E+03  0.44840124830E+03  0.00000000000E+00 0. -1.
         -1    1    6    6    0  503  0.10684167432E+03 -0.43536653188E+02 -0.23301143081E+03  0.26000944297E+03  0.00000000000E+00 0.  1.
<mgrwt>
<rscale>  0 0.23665515E+04</rscale>
<asrwt>0</asrwt>
<pdfrwt beam="1">  1        2 0.49574469E+00 0.23665515E+04</pdfrwt>
<pdfrwt beam="2">  1       -2 0.66847804E-01 0.23665515E+04</pdfrwt>
<totfact> 0.23259656E+00</totfact>
</mgrwt>
</event>
<event>
12    2  0.8147979E-008  0.1765055E+04  0.7818608E-02  0.8725107E-01
         -2   -1    0    0    0  501 -0.00000000000E+00  0.00000000000E+00  0.61931369224E+03  0.61931369224E+03  0.00000000000E+00 0.  1.
          2   -1    0    0  501    0  0.00000000000E+00 -0.00000000000E+00 -0.12576092475E+04  0.12576092475E+04  0.00000000000E+00 0. -1.
         23    2    1    2    0    0 -0.50387108987E+02 -0.63801496864E+03 -0.11095536730E+03  0.65665678820E+03  0.96359135485E+02 0.  0.
        254    2    1    2    0    0  0.50387108987E+02  0.63801496864E+03 -0.52734018791E+03  0.12202661515E+04  0.89518704511E+03 0.  0.
         23    2    4    4    0    0  0.15600722260E+03  0.26451703488E+03 -0.71162833705E+03  0.78078802749E+03  0.94379757055E+02 0.  0.
         23    2    4    4    0    0 -0.10562011361E+03  0.37349793376E+03  0.18428814914E+03  0.43947812400E+03  0.92317845728E+02 0.  0.
          1    1    3    3  502    0 -0.12567729470E+02 -0.19858721518E+03 -0.80182981868E+02  0.21453237620E+03  0.00000000000E+00 0. -1.
         -1    1    3    3    0  502 -0.37819379517E+02 -0.43942775346E+03 -0.30772385434E+02  0.44212441200E+03  0.00000000000E+00 0.  1.
         11    1    5    5    0    0  0.39573178831E+02  0.57485153455E+02 -0.27517471909E+03  0.28388678267E+03  0.00000000000E+00 0. -1.
        -11    1    5    5    0    0  0.11643404377E+03  0.20703188142E+03 -0.43645361796E+03  0.49690124482E+03  0.00000000000E+00 0.  1.
          1    1    6    6  503    0 -0.18108486246E+02  0.21732645542E+03  0.12229171674E+03  0.25002793741E+03  0.00000000000E+00 0. -1.
         -1    1    6    6    0  503 -0.87511627366E+02  0.15617147834E+03  0.61996432400E+02  0.18945018659E+03  0.00000000000E+00 0.  1.
<mgrwt>
<rscale>  0 0.17650548E+04</rscale>
<asrwt>0</asrwt>
<pdfrwt beam="1">  1        2 0.19347834E+00 0.17650548E+04</pdfrwt>
<pdfrwt beam="2">  1       -2 0.95279030E-01 0.17650548E+04</pdfrwt>
<totfact> 0.15342487E+01</totfact>
</mgrwt>
</event>
<event>
12    2  0.8147979E-008  0.1713503E+04  0.7818608E-02  0.8753700E-01
         -2   -1    0    0    0  501 -0.00000000000E+00  0.00000000000E+00  0.56237831833E+03  0.56237831833E+03  0.00000000000E+00 0. -1.
          2   -1    0    0  501    0  0.00000000000E+00 -0.00000000000E+00 -0.13052123733E+04  0.13052123733E+04  0.00000000000E+00 0.  1.
         23    2    1    2    0    0  0.54413127881E+03 -0.90654115466E+02 -0.56531053762E+03  0.79514713420E+03  0.91574799157E+02 0.  0.
        254    2    1    2    0    0 -0.54413127881E+03  0.90654115466E+02 -0.17752351733E+03  0.10724435574E+04  0.90239878514E+03 0.  0.
         23    2    4    4    0    0 -0.94117266086E+02  0.24770175983E+03  0.28576624421E+03  0.40020399386E+03  0.91031141757E+02 0.  0.
         23    2    4    4    0    0 -0.45001401273E+03 -0.15704764436E+03 -0.46328976155E+03  0.67223956357E+03  0.10045921274E+03 0.  0.
          1    1    3    3  502    0  0.18490480897E+03 -0.73669098891E+02 -0.18524960505E+03  0.27190869916E+03  0.00000000000E+00 0. -1.
         -1    1    3    3    0  502  0.35922646985E+03 -0.16985016574E+02 -0.38006093258E+03  0.52323843503E+03  0.00000000000E+00 0.  1.
         11    1    5    5    0    0 -0.91175016343E+02  0.20949173207E+03  0.28010156105E+03  0.36146445733E+03  0.00000000000E+00 0. -1.
        -11    1    5    5    0    0 -0.29422497433E+01  0.38210027759E+02  0.56646831626E+01  0.38739536526E+02  0.00000000000E+00 0.  1.
          4    1    6    6  503    0 -0.26938798599E+03 -0.14038946205E+03 -0.31858336944E+03  0.44019819552E+03  0.00000000000E+00 0.  1.
         -4    1    6    6    0  503 -0.18062602674E+03 -0.16658182311E+02 -0.14470639211E+03  0.23204136805E+03  0.00000000000E+00 0. -1.
<mgrwt>
<rscale>  0 0.17135030E+04</rscale>
<asrwt>0</asrwt>
<pdfrwt beam="1">  1        2 0.20080190E+00 0.17135030E+04</pdfrwt>
<pdfrwt beam="2">  1       -2 0.86519741E-01 0.17135030E+04</pdfrwt>
<totfact> 0.18057671E+01</totfact>
</mgrwt>
</event>
<event>
12    2  0.8147979E-008  0.1228379E+04  0.7818608E-02  0.9088373E-01
          2   -1    0    0  501    0  0.00000000000E+00  0.00000000000E+00  0.95831613984E+03  0.95831613984E+03  0.00000000000E+00 0. -1.
         -2   -1    0    0    0  501 -0.00000000000E+00 -0.00000000000E+00 -0.39363720467E+03  0.39363720467E+03  0.00000000000E+00 0.  1.
         23    2    1    2    0    0  0.10932381086E+03 -0.24472474795E+03  0.17367608836E+03  0.33174692030E+03  0.89725902481E+02 0.  0.
        254    2    1    2    0    0 -0.10932381086E+03  0.24472474795E+03  0.39100284681E+03  0.10202064242E+04  0.90338033181E+03 0.  0.
         23    2    4    4    0    0  0.33862085251E+03  0.21996046355E+03  0.37989288173E+03  0.56215879759E+03  0.93044209065E+02 0.  0.
         23    2    4    4    0    0 -0.44794466337E+03  0.24764284404E+02  0.11109965081E+02  0.45804762662E+03  0.91741515703E+02 0.  0.
          1    1    3    3  502    0  0.43551556078E+02 -0.53201135870E+02  0.88479377599E+02  0.11205221620E+03  0.00000000000E+00 0. -1.
         -1    1    3    3    0  502  0.65772254784E+02 -0.19152361208E+03  0.85196710766E+02  0.21969470410E+03  0.00000000000E+00 0.  1.
         11    1    5    5    0    0  0.76024193029E+02  0.19393777042E+02  0.11215149017E+03  0.13687130182E+03  0.00000000000E+00 0. -1.
        -11    1    5    5    0    0  0.26259665948E+03  0.20056668650E+03  0.26774139156E+03  0.42528749577E+03  0.00000000000E+00 0.  1.
          3    1    6    6  503    0 -0.18273816214E+03  0.52427941085E+02 -0.11413831094E+02  0.19045261995E+03  0.00000000000E+00 0. -1.
         -3    1    6    6    0  503 -0.26520650123E+03 -0.27663656681E+02  0.22523796175E+02  0.26759500667E+03  0.00000000000E+00 0.  1.
<mgrwt>
<rscale>  0 0.12283792E+04</rscale>
<asrwt>0</asrwt>
<pdfrwt beam="1">  1        2 0.14743325E+00 0.12283792E+04</pdfrwt>
<pdfrwt beam="2">  1       -2 0.60559570E-01 0.12283792E+04</pdfrwt>
<totfact> 0.67067929E+01</totfact>
</mgrwt>
</event>
<event>
12    2  0.8147979E-008  0.2329490E+04  0.7818608E-02  0.8466383E-01
         -1   -1    0    0    0  501 -0.00000000000E+00  0.00000000000E+00  0.35980389025E+03  0.35980389025E+03  0.00000000000E+00 0.  1.
          1   -1    0    0  501    0  0.00000000000E+00 -0.00000000000E+00 -0.37704740936E+04  0.37704740936E+04  0.00000000000E+00 0. -1.
         23    2    1    2    0    0 -0.77765897364E+03  0.33285000418E+03 -0.23633576798E+04  0.25116280236E+04  0.85283067605E+02 0.  0.
        254    2    1    2    0    0  0.77765897364E+03 -0.33285000418E+03 -0.10473125235E+04  0.16186499602E+04  0.89867767707E+03 0.  0.
         23    2    4    4    0    0  0.16325503190E+03 -0.55884918546E+02 -0.90176002185E+03  0.92307849532E+03  0.95537646819E+02 0.  0.
         23    2    4    4    0    0  0.61440394175E+03 -0.27696508564E+03 -0.14555250166E+03  0.69557146491E+03  0.91827391081E+02 0.  0.
          4    1    3    3  502    0 -0.47810614587E+03  0.24582711972E+03 -0.14479061001E+04  0.15444897326E+04  0.00000000000E+00 0.  1.
         -4    1    3    3    0  502 -0.29955282777E+03  0.87022884459E+02 -0.91545157974E+03  0.96713829099E+03  0.00000000000E+00 0. -1.
         11    1    5    5    0    0  0.14305162271E+03 -0.57396453385E+01 -0.65847039283E+03  0.67385456037E+03  0.00000000000E+00 0. -1.
        -11    1    5    5    0    0  0.20203409184E+02 -0.50145273207E+02 -0.24328962902E+03  0.24922393496E+03  0.00000000000E+00 0.  1.
          4    1    6    6  503    0  0.34961056950E+03 -0.20698141109E+03 -0.86886593416E+02  0.41547338658E+03  0.00000000000E+00 0. -1.
         -4    1    6    6    0  503  0.26479337225E+03 -0.69983674547E+02 -0.58665908249E+02  0.28009807833E+03  0.00000000000E+00 0.  1.
<mgrwt>
<rscale>  0 0.23294903E+04</rscale>
<asrwt>0</asrwt>
<pdfrwt beam="1">  1        1 0.58007298E+00 0.23294903E+04</pdfrwt>
<pdfrwt beam="2">  1       -1 0.55354440E-01 0.23294903E+04</pdfrwt>
<totfact> 0.45015161E-01</totfact>
</mgrwt>
</event>
<event>
12    2  0.8147979E-008  0.1821714E+04  0.7818608E-02  0.8694836E-01
         -1   -1    0    0    0  501 -0.00000000000E+00  0.00000000000E+00  0.16547787040E+04  0.16547787040E+04  0.00000000000E+00 0.  1.
          1   -1    0    0  501    0  0.00000000000E+00 -0.00000000000E+00 -0.50137269415E+03  0.50137269415E+03  0.00000000000E+00 0. -1.
         23    2    1    2    0    0  0.14788056626E+03  0.58146626093E+03  0.46916217327E+02  0.60881599827E+03  0.92109249399E+02 0.  0.
        254    2    1    2    0    0 -0.14788056626E+03 -0.58146626093E+03  0.11064897925E+04  0.15473353998E+04  0.89997527982E+03 0.  0.
         23    2    4    4    0    0  0.47715961685E+02 -0.67191085888E+03  0.36915042251E+03  0.77368020601E+03  0.92563553539E+02 0.  0.
         23    2    4    4    0    0 -0.19559652795E+03  0.90444597957E+02  0.73733936997E+03  0.77365519384E+03  0.91841087773E+02 0.  0.
          4    1    3    3  502    0  0.11915182271E+03  0.37305799576E+03 -0.68166083740E+01  0.39168340686E+03  0.00000000000E+00 0. -1.
         -4    1    3    3    0  502  0.28728743548E+02  0.20840826516E+03  0.53732825701E+02  0.21713259141E+03  0.00000000000E+00 0.  1.
         11    1    5    5    0    0  0.45351284428E+02 -0.22900234352E+03  0.16566779570E+03  0.28625972624E+03  0.00000000000E+00 0. -1.
        -11    1    5    5    0    0  0.23646772575E+01 -0.44290851536E+03  0.20348262681E+03  0.48742047977E+03  0.00000000000E+00 0.  1.
          1    1    6    6  503    0 -0.11731152436E+03  0.11700326884E+02  0.29728294369E+03  0.31980625386E+03  0.00000000000E+00 0. -1.
         -1    1    6    6    0  503 -0.78285003584E+02  0.78744271073E+02  0.44005642628E+03  0.45384893998E+03  0.00000000000E+00 0.  1.
<mgrwt>
<rscale>  0 0.18217144E+04</rscale>
<asrwt>0</asrwt>
<pdfrwt beam="1">  1        1 0.77134261E-01 0.18217144E+04</pdfrwt>
<pdfrwt beam="2">  1       -1 0.25458134E+00 0.18217144E+04</pdfrwt>
<totfact> 0.27068980E+00</totfact>
</mgrwt>
</event>
<event>
12    2  0.8147979E-008  0.1121410E+04  0.7818608E-02  0.9184572E-01
          2   -1    0    0  501    0  0.00000000000E+00  0.00000000000E+00  0.29139658756E+04  0.29139658756E+04  0.00000000000E+00 0. -1.
         -2   -1    0    0    0  501 -0.00000000000E+00 -0.00000000000E+00 -0.10789076436E+03  0.10789076436E+03  0.00000000000E+00 0.  1.
         23    2    1    2    0    0 -0.11371034356E+03 -0.85834780446E+02  0.22113804147E+03  0.27861056266E+03  0.91783225427E+02 0.  0.
        254    2    1    2    0    0  0.11371034356E+03  0.85834780446E+02  0.25849370698E+04  0.27432460773E+04  0.90730465347E+03 0.  0.
         23    2    4    4    0    0  0.20207427627E+03  0.13918385349E+03  0.14485565243E+03  0.29930960679E+03  0.91634723088E+02 0.  0.
         23    2    4    4    0    0 -0.88363932704E+02 -0.53349073042E+02  0.24400814174E+04  0.24439364706E+04  0.90409294126E+02 0.  0.
          3    1    3    3  502    0 -0.52518809663E+02 -0.38581211533E+02  0.28669841207E+02  0.71194768394E+02  0.00000000000E+00 0.  1.
         -3    1    3    3    0  502 -0.61191533899E+02 -0.47253568912E+02  0.19246820027E+03  0.20741579426E+03  0.00000000000E+00 0. -1.
         11    1    5    5    0    0  0.17877882909E+03  0.13676149956E+03  0.95174332316E+02  0.24438439194E+03  0.00000000000E+00 0. -1.
        -11    1    5    5    0    0  0.23295447181E+02  0.24223539232E+01  0.49681320115E+02  0.54925214849E+02  0.00000000000E+00 0.  1.
          3    1    6    6  503    0 -0.20263044350E+02 -0.56336852958E+02  0.15898336445E+04  0.15909605429E+04  0.00000000000E+00 0. -1.
         -3    1    6    6    0  503 -0.68100888354E+02  0.29877799161E+01  0.85024777288E+03  0.85297592762E+03  0.00000000000E+00 0.  1.
<mgrwt>
<rscale>  0 0.11214098E+04</rscale>
<asrwt>0</asrwt>
<pdfrwt beam="1">  1        2 0.44830238E+00 0.11214098E+04</pdfrwt>
<pdfrwt beam="2">  1       -2 0.16598581E-01 0.11214098E+04</pdfrwt>
<totfact> 0.58631671E+01</totfact>
</mgrwt>
</event>
<event>
12    2  0.8147979E-008  0.2037288E+04  0.7818608E-02  0.8589383E-01
          1   -1    0    0  501    0  0.00000000000E+00  0.00000000000E+00  0.10503717981E+04  0.10503717981E+04  0.00000000000E+00 0. -1.
         -1   -1    0    0    0  501 -0.00000000000E+00 -0.00000000000E+00 -0.98787432337E+03  0.98787432337E+03  0.00000000000E+00 0.  1.
         23    2    1    2    0    0 -0.86521385202E+02 -0.48670977297E+03  0.67559792132E+03  0.84218093102E+03  0.91999000481E+02 0.  0.
        254    2    1    2    0    0  0.86521385202E+02  0.48670977297E+03 -0.61310044662E+03  0.11960651904E+04  0.90017077761E+03 0.  0.
         23    2    4    4    0    0  0.72080771562E+01  0.38084902481E+02  0.21944378215E+03  0.24264591368E+03  0.96015882701E+02 0.  0.
         23    2    4    4    0    0  0.79313308045E+02  0.44862487049E+03 -0.83254422877E+03  0.95341927673E+03  0.91233486847E+02 0.  0.
          1    1    3    3  502    0 -0.72955881291E+02 -0.16949686547E+03  0.22579471678E+03  0.29160761674E+03  0.00000000000E+00 0. -1.
         -1    1    3    3    0  502 -0.13565503910E+02 -0.31721290750E+03  0.44980320454E+03  0.55057331428E+03  0.00000000000E+00 0.  1.
         11    1    5    5    0    0  0.15391818395E+02 -0.30575302149E+02  0.79274952349E+02  0.86349726374E+02  0.00000000000E+00 0.  1.
        -11    1    5    5    0    0 -0.81837412388E+01  0.68660204629E+02  0.14016882980E+03  0.15629618731E+03  0.00000000000E+00 0. -1.
          1    1    6    6  503    0  0.59562419995E+02  0.18724651595E+03 -0.28255815477E+03  0.34416282548E+03  0.00000000000E+00 0. -1.
         -1    1    6    6    0  503  0.19750888050E+02  0.26137835454E+03 -0.54998607400E+03  0.60925645125E+03  0.00000000000E+00 0.  1.
<mgrwt>
<rscale>  0 0.20372877E+04</rscale>
<asrwt>0</asrwt>
<pdfrwt beam="1">  1        1 0.16159566E+00 0.20372877E+04</pdfrwt>
<pdfrwt beam="2">  1       -1 0.15198066E+00 0.20372877E+04</pdfrwt>
<totfact> 0.43064974E+00</totfact>
</mgrwt>
</event>
<event>
12    2  0.8147979E-008  0.1867210E+04  0.7818608E-02  0.8671352E-01
         -2   -1    0    0    0  501 -0.00000000000E+00  0.00000000000E+00  0.18815117989E+04  0.18815117989E+04  0.00000000000E+00 0.  1.
          2   -1    0    0  501    0  0.00000000000E+00 -0.00000000000E+00 -0.46325421569E+03  0.46325421569E+03  0.00000000000E+00 0. -1.
         23    2    1    2    0    0  0.46808504378E+03 -0.45959286284E+03  0.19875093004E+03  0.69200802687E+03  0.95099785872E+02 0.  0.
        254    2    1    2    0    0 -0.46808504378E+03  0.45959286284E+03  0.12195066532E+04  0.16527579878E+04  0.90226563777E+03 0.  0.
         23    2    4    4    0    0 -0.31442867757E+03 -0.21207406273E+03  0.26421614803E+03  0.47091333127E+03  0.90046606437E+02 0.  0.
         23    2    4    4    0    0 -0.15365636621E+03  0.67166692556E+03  0.95529050518E+03  0.11818446565E+04  0.97108727805E+02 0.  0.
          1    1    3    3  502    0  0.33896825862E+03 -0.36511047871E+03  0.18493390451E+03  0.53141856484E+03  0.00000000000E+00 0. -1.
         -1    1    3    3    0  502  0.12911678516E+03 -0.94482384125E+02  0.13817025535E+02  0.16058946203E+03  0.00000000000E+00 0.  1.
         11    1    5    5    0    0 -0.10267647024E+02  0.67156850389E+01 -0.29946590462E+00  0.12272517296E+02  0.00000000000E+00 0.  1.
        -11    1    5    5    0    0 -0.30416103054E+03 -0.21878974776E+03  0.26451561393E+03  0.45864081397E+03  0.00000000000E+00 0. -1.
          1    1    6    6  503    0 -0.13620248354E+03  0.65127905481E+03  0.93760259334E+03  0.11497017643E+04  0.00000000000E+00 0. -1.
         -1    1    6    6    0  503 -0.17453882673E+02  0.20387870749E+02  0.17687911836E+02  0.32142892203E+02  0.00000000000E+00 0.  1.
<mgrwt>
<rscale>  0 0.18672100E+04</rscale>
<asrwt>0</asrwt>
<pdfrwt beam="1">  1        2 0.71269880E-01 0.18672100E+04</pdfrwt>
<pdfrwt beam="2">  1       -2 0.28946335E+00 0.18672100E+04</pdfrwt>
<totfact> 0.23312361E+00</totfact>
</mgrwt>
</event>
<event>
12    2  0.8147979E-008  0.2709919E+04  0.7818608E-02  0.8331794E-01
          1   -1    0    0  501    0  0.00000000000E+00  0.00000000000E+00  0.24939699033E+04  0.24939699033E+04  0.00000000000E+00 0. -1.
         -1   -1    0    0    0  501 -0.00000000000E+00 -0.00000000000E+00 -0.73614144463E+03  0.73614144463E+03  0.00000000000E+00 0.  1.
         23    2    1    2    0    0 -0.11841922478E+04  0.18978203061E+03  0.66846085947E+03  0.13760052266E+04  0.90675046048E+02 0.  0.
        254    2    1    2    0    0  0.11841922478E+04 -0.18978203061E+03  0.10893675992E+04  0.18541061214E+04  0.90147614733E+03 0.  0.
         23    2    4    4    0    0  0.57997218147E+03 -0.62804949562E+02 -0.90310902014E+01  0.59082051633E+03  0.93140372301E+02 0.  0.
         23    2    4    4    0    0  0.60422006634E+03 -0.12697708105E+03  0.10983986894E+04  0.12632856051E+04  0.90585712720E+02 0.  0.
          1    1    3    3  502    0 -0.62603408881E+03  0.89195982827E+02  0.40254528714E+03  0.74961144062E+03  0.00000000000E+00 0. -1.
         -1    1    3    3    0  502 -0.55815815900E+03  0.10058604779E+03  0.26591557232E+03  0.62639378594E+03  0.00000000000E+00 0.  1.
         11    1    5    5    0    0  0.44606120965E+03 -0.11033018758E+02  0.78076764826E+01  0.44626594097E+03  0.00000000000E+00 0. -1.
        -11    1    5    5    0    0  0.13391097182E+03 -0.51771930804E+02 -0.16838766684E+02  0.14455457536E+03  0.00000000000E+00 0.  1.
          2    1    6    6  503    0  0.47725810247E+03 -0.12122350388E+03  0.92992562927E+03  0.10522509730E+04  0.00000000000E+00 0. -1.
         -2    1    6    6    0  503  0.12696196387E+03 -0.57535771733E+01  0.16847306015E+03  0.21103463203E+03  0.00000000000E+00 0.  1.
<mgrwt>
<rscale>  0 0.27099185E+04</rscale>
<asrwt>0</asrwt>
<pdfrwt beam="1">  1        1 0.38368767E+00 0.27099185E+04</pdfrwt>
<pdfrwt beam="2">  1       -1 0.11325253E+00 0.27099185E+04</pdfrwt>
<totfact> 0.84936215E-01</totfact>
</mgrwt>
</event>
<event>
12    2  0.8147979E-008  0.1746281E+04  0.7818608E-02  0.8735400E-01
         -2   -1    0    0    0  501 -0.00000000000E+00  0.00000000000E+00  0.27148989418E+03  0.27148989418E+03  0.00000000000E+00 0.  1.
          2   -1    0    0  501    0  0.00000000000E+00 -0.00000000000E+00 -0.28081140526E+04  0.28081140526E+04  0.00000000000E+00 0. -1.
         23    2    1    2    0    0 -0.75094150455E+02  0.57558187985E+03 -0.46924820877E+03  0.75170337317E+03  0.89053062620E+02 0.  0.
        254    2    1    2    0    0  0.75094150455E+02 -0.57558187985E+03 -0.20673759497E+04  0.23279005736E+04  0.89896837073E+03 0.  0.
         23    2    4    4    0    0 -0.30039612436E+03 -0.59839851543E+03 -0.14401306100E+04  0.15904055371E+04  0.84231726661E+02 0.  0.
         23    2    4    4    0    0  0.37549027481E+03  0.22816635588E+02 -0.62724533964E+03  0.73749503650E+03  0.94597396486E+02 0.  0.
          2    1    3    3  502    0 -0.76241170514E+02  0.47261582006E+03 -0.42295662143E+03  0.63880414296E+03  0.00000000000E+00 0. -1.
         -2    1    3    3    0  502  0.11470200588E+01  0.10296605979E+03 -0.46291587333E+02  0.11289923021E+03  0.00000000000E+00 0.  1.
         11    1    5    5    0    0 -0.12727330273E+03 -0.32448992240E+03 -0.68126383083E+03  0.76525329827E+03  0.00000000000E+00 0.  1.
        -11    1    5    5    0    0 -0.17312282163E+03 -0.27390859304E+03 -0.75886677919E+03  0.82515223884E+03  0.00000000000E+00 0. -1.
          4    1    6    6  503    0  0.76059434299E+02 -0.72091359580E+01 -0.67336083783E+02  0.10183887944E+03  0.00000000000E+00 0. -1.
         -4    1    6    6    0  503  0.29943084051E+03  0.30025771546E+02 -0.55990925586E+03  0.63565615706E+03  0.00000000000E+00 0.  1.
<mgrwt>
<rscale>  0 0.17462813E+04</rscale>
<asrwt>0</asrwt>
<pdfrwt beam="1">  1        2 0.43201755E+00 0.17462813E+04</pdfrwt>
<pdfrwt beam="2">  1       -2 0.41767676E-01 0.17462813E+04</pdfrwt>
<totfact> 0.11810291E+01</totfact>
</mgrwt>
</event>
<event>
12    2  0.8147979E-008  0.2804391E+04  0.7818608E-02  0.8301906E-01
         -2   -1    0    0    0  501 -0.00000000000E+00  0.00000000000E+00  0.62153810543E+03  0.62153810543E+03  0.00000000000E+00 0.  1.
          2   -1    0    0  501    0  0.00000000000E+00 -0.00000000000E+00 -0.31633653902E+04  0.31633653902E+04  0.00000000000E+00 0. -1.
         23    2    1    2    0    0 -0.12178988856E+04 -0.17583622706E+03 -0.14777915585E+04  0.19251738414E+04  0.90721304264E+02 0.  0.
        254    2    1    2    0    0  0.12178988856E+04  0.17583622706E+03 -0.10640357263E+04  0.18597296542E+04  0.90123597680E+03 0.  0.
         23    2    4    4    0    0  0.14378253716E+03  0.28794064738E+02 -0.68673094533E+03  0.70817768311E+03  0.91726350726E+02 0.  0.
         23    2    4    4    0    0  0.10741163484E+04  0.14704216232E+03 -0.37730478094E+03  0.11515519711E+04  0.91464294176E+02 0.  0.
          1    1    3    3  502    0 -0.36883969057E+03 -0.12508614958E+02 -0.42673507343E+03  0.56418259959E+03  0.00000000000E+00 0. -1.
         -1    1    3    3    0  502 -0.84905919499E+03 -0.16332761210E+03 -0.10510564851E+04  0.13609912418E+04  0.00000000000E+00 0.  1.
         11    1    5    5    0    0  0.10418099757E+03 -0.23579553953E+01 -0.58978115216E+03  0.59891656151E+03  0.00000000000E+00 0.  1.
        -11    1    5    5    0    0  0.39601539592E+02  0.31152020133E+02 -0.96949793172E+02  0.10926112160E+03  0.00000000000E+00 0. -1.
          3    1    6    6  503    0  0.92742906910E+03  0.13387649947E+03 -0.29264625139E+03  0.98167684285E+03  0.00000000000E+00 0. -1.
         -3    1    6    6    0  503  0.14668727929E+03  0.13165662846E+02 -0.84658529552E+02  0.16987512828E+03  0.00000000000E+00 0.  1.
<mgrwt>
<rscale>  0 0.28043909E+04</rscale>
<asrwt>0</asrwt>
<pdfrwt beam="1">  1        2 0.48667159E+00 0.28043909E+04</pdfrwt>
<pdfrwt beam="2">  1       -2 0.95621249E-01 0.28043909E+04</pdfrwt>
<totfact> 0.10933436E+00</totfact>
</mgrwt>
</event>
<event>
12    2  0.8147979E-008  0.1025872E+04  0.7818608E-02  0.9280616E-01
         -2   -1    0    0    0  501 -0.00000000000E+00  0.00000000000E+00  0.38044276996E+03  0.38044276996E+03  0.00000000000E+00 0.  1.
          2   -1    0    0  501    0  0.00000000000E+00 -0.00000000000E+00 -0.69157086619E+03  0.69157086619E+03  0.00000000000E+00 0. -1.
         23    2    1    2    0    0  0.52304888871E+02 -0.28512768498E+02 -0.96247271102E+02  0.14537995882E+03  0.91230564308E+02 0.  0.
        254    2    1    2    0    0 -0.52304888871E+02  0.28512768498E+02 -0.21488082512E+03  0.92663367733E+03  0.89940392683E+03 0.  0.
         23    2    4    4    0    0  0.13517035971E+02 -0.38035348276E+03 -0.30147117705E+03  0.49336898992E+03  0.87616251419E+02 0.  0.
         23    2    4    4    0    0 -0.65821924842E+02  0.40886625125E+03  0.86590351932E+02  0.43326468741E+03  0.93360929238E+02 0.  0.
          3    1    3    3  502    0  0.38592122415E+02  0.24610724922E+02 -0.16649919132E+02  0.48705846680E+02  0.00000000000E+00 0. -1.
         -3    1    3    3    0  502  0.13712766456E+02 -0.53123493420E+02 -0.79597351970E+02  0.96674112138E+02  0.00000000000E+00 0.  1.
         11    1    5    5    0    0  0.25304791398E+02 -0.37089305947E+03 -0.30085418061E+03  0.47824181333E+03  0.00000000000E+00 0. -1.
        -11    1    5    5    0    0 -0.11787755426E+02 -0.94604232905E+01 -0.61699643963E+00  0.15127176585E+02  0.00000000000E+00 0.  1.
          1    1    6    6  503    0 -0.70152894417E+02  0.16942436239E+03  0.18575462264E+02  0.18431248185E+03  0.00000000000E+00 0. -1.
         -1    1    6    6    0  503  0.43309695750E+01  0.23944188886E+03  0.68014889669E+02  0.24895220556E+03  0.00000000000E+00 0.  1.
<mgrwt>
<rscale>  0 0.10258716E+04</rscale>
<asrwt>0</asrwt>
<pdfrwt beam="1">  1        2 0.10639552E+00 0.10258716E+04</pdfrwt>
<pdfrwt beam="2">  1       -2 0.58529658E-01 0.10258716E+04</pdfrwt>
<totfact> 0.11327015E+02</totfact>
</mgrwt>
</event>
<event>
12    2  0.8147979E-008  0.1094621E+04  0.7818608E-02  0.9210450E-01
         -2   -1    0    0    0  501 -0.00000000000E+00  0.00000000000E+00  0.25981912422E+03  0.25981912422E+03  0.00000000000E+00 0.  1.
          2   -1    0    0  501    0  0.00000000000E+00 -0.00000000000E+00 -0.11529127862E+04  0.11529127862E+04  0.00000000000E+00 0. -1.
         23    2    1    2    0    0 -0.10497273337E+03  0.37672446865E+02 -0.28891158342E+03  0.32295139360E+03  0.91592639379E+02 0.  0.
        254    2    1    2    0    0  0.10497273337E+03 -0.37672446865E+02 -0.60418207861E+03  0.10897805169E+04  0.90008172009E+03 0.  0.
         23    2    4    4    0    0  0.27613239162E+03 -0.36502478533E+03 -0.13482361412E+03  0.48560889832E+03  0.90257429589E+02 0.  0.
         23    2    4    4    0    0 -0.17115965825E+03  0.32735233846E+03 -0.46935846449E+03  0.60417161856E+03  0.90943907839E+02 0.  0.
          1    1    3    3  502    0 -0.39542097095E+02  0.37120722673E+01 -0.21472070458E+03  0.21836285833E+03  0.00000000000E+00 0. -1.
         -1    1    3    3    0  502 -0.65430636277E+02  0.33960374597E+02 -0.74190878842E+02  0.10458853527E+03  0.00000000000E+00 0.  1.
         11    1    5    5    0    0  0.26908390442E+03 -0.34578031542E+03 -0.10694407738E+03  0.45100688446E+03  0.00000000000E+00 0. -1.
        -11    1    5    5    0    0  0.70484872058E+01 -0.19244469907E+02 -0.27879536741E+02  0.34602013854E+02  0.00000000000E+00 0.  1.
          2    1    6    6  503    0 -0.17635585524E+03  0.29508190396E+03 -0.44965040084E+03  0.56600371085E+03  0.00000000000E+00 0. -1.
         -2    1    6    6    0  503  0.51961969871E+01  0.32270434499E+02 -0.19708063655E+02  0.38167907709E+02  0.00000000000E+00 0.  1.
<mgrwt>
<rscale>  0 0.10946210E+04</rscale>
<asrwt>0</asrwt>
<pdfrwt beam="1">  1        2 0.17737120E+00 0.10946210E+04</pdfrwt>
<pdfrwt beam="2">  1       -2 0.39972173E-01 0.10946210E+04</pdfrwt>
<totfact> 0.11883700E+02</totfact>
</mgrwt>
</event>
<event>
12    2  0.8147979E-008  0.2132142E+04  0.7818608E-02  0.8547215E-01
         -2   -1    0    0    0  501 -0.00000000000E+00  0.00000000000E+00  0.35859452622E+03  0.35859452622E+03  0.00000000000E+00 0.  1.
          2   -1    0    0  501    0  0.00000000000E+00 -0.00000000000E+00 -0.31693375566E+04  0.31693375566E+04  0.00000000000E+00 0. -1.
         23    2    1    2    0    0 -0.38614501378E+03  0.44314088729E+03 -0.22271983597E+04  0.23052892498E+04  0.92000947878E+02 0.  0.
        254    2    1    2    0    0  0.38614501378E+03 -0.44314088729E+03 -0.58354467074E+03  0.12226428330E+04  0.89936049321E+03 0.  0.
         23    2    4    4    0    0  0.53128312107E+02 -0.63957888275E+03 -0.49456495104E+03  0.81557179481E+03  0.93161670635E+02 0.  0.
         23    2    4    4    0    0  0.33301670167E+03  0.19643799546E+03 -0.88979719700E+02  0.40707103822E+03  0.91112183524E+02 0.  0.
          2    1    3    3  502    0 -0.11368670036E+03  0.99655707950E+02 -0.71553870580E+03  0.73133546712E+03  0.00000000000E+00 0. -1.
         -2    1    3    3    0  502 -0.27245831341E+03  0.34348517934E+03 -0.15116596539E+04  0.15739537827E+04  0.00000000000E+00 0.  1.
         11    1    5    5    0    0  0.78254266753E+02 -0.52669497502E+03 -0.41689484734E+03  0.67626373606E+03  0.00000000000E+00 0.  1.
        -11    1    5    5    0    0 -0.25125954647E+02 -0.11288390773E+03 -0.77670103708E+02  0.13930805874E+03  0.00000000000E+00 0. -1.
          2    1    6    6  503    0  0.13542342803E+03  0.57185853091E+02  0.65482691415E+01  0.14714824662E+03  0.00000000000E+00 0. -1.
         -2    1    6    6    0  503  0.19759327364E+03  0.13925214237E+03 -0.95527988842E+02  0.25992279160E+03  0.00000000000E+00 0.  1.
<mgrwt>
<rscale>  0 0.21321417E+04</rscale>
<asrwt>0</asrwt>
<pdfrwt beam="1">  1        2 0.48759037E+00 0.21321417E+04</pdfrwt>
<pdfrwt beam="2">  1       -2 0.55168392E-01 0.21321417E+04</pdfrwt>
<totfact> 0.38642828E+00</totfact>
</mgrwt>
</event>
<event>
12    2  0.8147979E-008  0.3167058E+04  0.7818608E-02  0.8197572E-01
          2   -1    0    0  501    0  0.00000000000E+00  0.00000000000E+00  0.17961365297E+04  0.17961365297E+04  0.00000000000E+00 0. -1.
         -2   -1    0    0    0  501 -0.00000000000E+00 -0.00000000000E+00 -0.13960873197E+04  0.13960873197E+04  0.00000000000E+00 0.  1.
         23    2    1    2    0    0  0.68572856071E+03 -0.88352409728E+03  0.11213311886E+04  0.15861534352E+04  0.87524831083E+02 0.  0.
        254    2    1    2    0    0 -0.68572856071E+03  0.88352409728E+03 -0.72128197856E+03  0.16060704142E+04  0.89909732138E+03 0.  0.
         23    2    4    4    0    0 -0.16503352988E+03 -0.17161424268E+03 -0.12889222588E+03  0.28552094671E+03  0.90672437051E+02 0.  0.
         23    2    4    4    0    0 -0.52069503083E+03  0.10551383400E+04 -0.59238975268E+03  0.13205494675E+04  0.92114306182E+02 0.  0.
          3    1    3    3  502    0  0.32259884423E+03 -0.48342386679E+03  0.56180261340E+03  0.80832594027E+03  0.00000000000E+00 0. -1.
         -3    1    3    3    0  502  0.36312971648E+03 -0.40010023048E+03  0.55952857520E+03  0.77782749495E+03  0.00000000000E+00 0.  1.
         11    1    5    5    0    0 -0.25509002894E+02  0.81573949584E+01 -0.18833467293E+02  0.32740675183E+02  0.00000000000E+00 0.  1.
        -11    1    5    5    0    0 -0.13952452698E+03 -0.17977163764E+03 -0.11005875859E+03  0.25278027153E+03  0.00000000000E+00 0. -1.
          1    1    6    6  503    0 -0.24308075224E+03  0.43763261141E+03 -0.29509502662E+03  0.58111240687E+03  0.00000000000E+00 0. -1.
         -1    1    6    6    0  503 -0.27761427859E+03  0.61750572855E+03 -0.29729472606E+03  0.73943706062E+03  0.00000000000E+00 0.  1.
<mgrwt>
<rscale>  0 0.31670576E+04</rscale>
<asrwt>0</asrwt>
<pdfrwt beam="1">  1        2 0.27632870E+00 0.31670576E+04</pdfrwt>
<pdfrwt beam="2">  1       -2 0.21478266E+00 0.31670576E+04</pdfrwt>
<totfact> 0.78124407E-01</totfact>
</mgrwt>
</event>
<event>
12    2  0.8147979E-008  0.2450982E+04  0.7818608E-02  0.8420660E-01
          1   -1    0    0  501    0  0.00000000000E+00  0.00000000000E+00  0.23817332696E+04  0.23817332696E+04  0.00000000000E+00 0. -1.
         -1   -1    0    0    0  501 -0.00000000000E+00 -0.00000000000E+00 -0.63056097251E+03  0.63056097251E+03  0.00000000000E+00 0.  1.
         23    2    1    2    0    0 -0.80917638040E+03  0.66070923649E+03  0.96029322407E+03  0.14217640338E+04  0.89144724452E+02 0.  0.
        254    2    1    2    0    0  0.80917638040E+03 -0.66070923649E+03  0.79087907306E+03  0.15905302083E+04  0.90166153608E+03 0.  0.
         23    2    4    4    0    0  0.38211616351E+03 -0.65745945368E+03  0.85664582687E+03  0.11490402342E+04  0.90474811170E+02 0.  0.
         23    2    4    4    0    0  0.42706021689E+03 -0.32497828170E+01 -0.65766753808E+02  0.44148997414E+03  0.90538066174E+02 0.  0.
          3    1    3    3  502    0 -0.45941183220E+03  0.43064249656E+03  0.56664030171E+03  0.84710886133E+03  0.00000000000E+00 0. -1.
         -3    1    3    3    0  502 -0.34976454819E+03  0.23006673993E+03  0.39365292236E+03  0.57465517250E+03  0.00000000000E+00 0.  1.
         11    1    5    5    0    0  0.24100266878E+03 -0.34235523714E+03  0.50918907501E+03  0.65921385670E+03  0.00000000000E+00 0.  1.
        -11    1    5    5    0    0  0.14111349473E+03 -0.31510421654E+03  0.34745675186E+03  0.48982637749E+03  0.00000000000E+00 0. -1.
          2    1    6    6  503    0  0.20861158814E+03  0.22329516743E+02  0.67228927671E+01  0.20991093185E+03  0.00000000000E+00 0. -1.
         -2    1    6    6    0  503  0.21844862875E+03 -0.25579299560E+02 -0.72489646575E+02  0.23157904229E+03  0.00000000000E+00 0.  1.
<mgrwt>
<rscale>  0 0.24509819E+04</rscale>
<asrwt>0</asrwt>
<pdfrwt beam="1">  1        1 0.36642050E+00 0.24509819E+04</pdfrwt>
<pdfrwt beam="2">  1       -1 0.97009382E-01 0.24509819E+04</pdfrwt>
<totfact> 0.14898135E+00</totfact>
</mgrwt>
</event>
<event>
12    2  0.8147979E-008  0.3696165E+04  0.7818608E-02  0.8068812E-01
         -1   -1    0    0    0  501 -0.00000000000E+00  0.00000000000E+00  0.13813504098E+04  0.13813504098E+04  0.00000000000E+00 0.  1.
          1   -1    0    0  501    0  0.00000000000E+00 -0.00000000000E+00 -0.24725150177E+04  0.24725150177E+04  0.00000000000E+00 0. -1.
         23    2    1    2    0    0 -0.15337160885E+04  0.49212113547E+02  0.33572308771E+03  0.15733906439E+04  0.90228901082E+02 0.  0.
        254    2    1    2    0    0  0.15337160885E+04 -0.49212113547E+02 -0.14268876956E+04  0.22804747836E+04  0.89991659074E+03 0.  0.
         23    2    4    4    0    0  0.11140464822E+03  0.27950731118E+03 -0.21281922775E+03  0.37947741676E+03  0.90419873292E+02 0.  0.
         23    2    4    4    0    0  0.14223114403E+04 -0.32871942472E+03 -0.12140684679E+04  0.19009973668E+04  0.93821375838E+02 0.  0.
          3    1    3    3  502    0 -0.71049533770E+03 -0.24496945151E+01  0.11726590537E+03  0.72011174026E+03  0.00000000000E+00 0. -1.
         -3    1    3    3    0  502 -0.82322075079E+03  0.51661808062E+02  0.21845718235E+03  0.85327890367E+03  0.00000000000E+00 0.  1.
         11    1    5    5    0    0  0.10602758530E+03  0.27638743104E+03 -0.18082644029E+03  0.34688623839E+03  0.00000000000E+00 0. -1.
        -11    1    5    5    0    0  0.53770629216E+01  0.31198801388E+01 -0.31992787465E+02  0.32591178370E+02  0.00000000000E+00 0.  1.
          1    1    6    6  503    0  0.79179380354E+03 -0.22794464512E+03 -0.70439930265E+03  0.10840085637E+04  0.00000000000E+00 0. -1.
         -1    1    6    6    0  503  0.63051763672E+03 -0.10077477960E+03 -0.50966916523E+03  0.81698880311E+03  0.00000000000E+00 0.  1.
<mgrwt>
<rscale>  0 0.36961654E+04</rscale>
<asrwt>0</asrwt>
<pdfrwt beam="1">  1        1 0.38038693E+00 0.36961654E+04</pdfrwt>
<pdfrwt beam="2">  1       -1 0.21251545E+00 0.36961654E+04</pdfrwt>
<totfact> 0.14041798E-01</totfact>
</mgrwt>
</event>
<event>
12    2  0.8147979E-008  0.2018669E+04  0.7818608E-02  0.8597942E-01
          2   -1    0    0  501    0  0.00000000000E+00  0.00000000000E+00  0.66344520968E+03  0.66344520968E+03  0.00000000000E+00 0.  1.
         -2   -1    0    0    0  501 -0.00000000000E+00 -0.00000000000E+00 -0.15355544439E+04  0.15355544439E+04  0.00000000000E+00 0. -1.
         23    2    1    2    0    0  0.22418329457E+03 -0.74910244342E+03 -0.55415865695E+03  0.96267834718E+03  0.90802878582E+02 0.  0.
        254    2    1    2    0    0 -0.22418329457E+03  0.74910244342E+03 -0.31795057732E+03  0.12363213065E+04  0.90331898180E+03 0.  0.
         23    2    4    4    0    0  0.33708298672E+03  0.21992065386E+03 -0.56284426256E+02  0.41658333290E+03  0.91562561549E+02 0.  0.
         23    2    4    4    0    0 -0.56126628129E+03  0.52918178955E+03 -0.26166615107E+03  0.81973797355E+03  0.91912816082E+02 0.  0.
          2    1    3    3  502    0  0.12640342891E+03 -0.26902252096E+03 -0.21138633293E+03  0.36473980503E+03  0.00000000000E+00 0. -1.
         -2    1    3    3    0  502  0.97779865660E+02 -0.48007992245E+03 -0.34277232401E+03  0.59793854214E+03  0.00000000000E+00 0.  1.
         11    1    5    5    0    0  0.67840045631E+02  0.80864891811E+02 -0.40775431923E+02  0.11315493081E+03  0.00000000000E+00 0. -1.
        -11    1    5    5    0    0  0.26924294109E+03  0.13905576205E+03 -0.15508994334E+02  0.30342840209E+03  0.00000000000E+00 0.  1.
          1    1    6    6  503    0 -0.26854450778E+03  0.19592927121E+03 -0.92902875713E+02  0.34515992857E+03  0.00000000000E+00 0. -1.
         -1    1    6    6    0  503 -0.29272177351E+03  0.33325251835E+03 -0.16876327535E+03  0.47457804499E+03  0.00000000000E+00 0.  1.
<mgrwt>
<rscale>  0 0.20186691E+04</rscale>
<asrwt>0</asrwt>
<pdfrwt beam="1">  1        2 0.10206849E+00 0.20186691E+04</pdfrwt>
<pdfrwt beam="2">  1       -2 0.23623914E+00 0.20186691E+04</pdfrwt>
<totfact> 0.31771326E+00</totfact>
</mgrwt>
</event>
<event>
12    2  0.8147979E-008  0.1581742E+04  0.7818608E-02  0.8831843E-01
          1   -1    0    0  501    0  0.00000000000E+00  0.00000000000E+00  0.22514319732E+04  0.22514319732E+04  0.00000000000E+00 0. -1.
         -1   -1    0    0    0  501 -0.00000000000E+00 -0.00000000000E+00 -0.27781309772E+03  0.27781309772E+03  0.00000000000E+00 0.  1.
         23    2    1    2    0    0 -0.18364876673E+03 -0.24837288702E+03  0.13679519212E+04  0.14053563586E+04  0.91203482847E+02 0.  0.
        254    2    1    2    0    0  0.18364876673E+03  0.24837288702E+03  0.60566695425E+03  0.11238887123E+04  0.89491754799E+03 0.  0.
         23    2    4    4    0    0 -0.97398716092E+02  0.51850858141E+03  0.26003021255E+03  0.59534966934E+03  0.92129574273E+02 0.  0.
         23    2    4    4    0    0  0.28104748282E+03 -0.27013569439E+03  0.34563674170E+03  0.52853904299E+03  0.89038091649E+02 0.  0.
          3    1    3    3  502    0 -0.10485102393E+03 -0.95434547209E+02  0.77871055727E+03  0.79151223745E+03  0.00000000000E+00 0. -1.
         -3    1    3    3    0  502 -0.78797742797E+02 -0.15293833981E+03  0.58924136396E+03  0.61384412114E+03  0.00000000000E+00 0.  1.
         11    1    5    5    0    0 -0.79897357976E+01  0.21565069777E+03  0.14152124228E+03  0.25806456817E+03  0.00000000000E+00 0. -1.
        -11    1    5    5    0    0 -0.89408980295E+02  0.30285788364E+03  0.11850897026E+03  0.33728510117E+03  0.00000000000E+00 0.  1.
          3    1    6    6  503    0  0.48861256671E+02 -0.10067877283E+03  0.85125322704E+02  0.14060568363E+03  0.00000000000E+00 0. -1.
         -3    1    6    6    0  503  0.23218622615E+03 -0.16945692156E+03  0.26051141899E+03  0.38793335936E+03  0.00000000000E+00 0.  1.
<mgrwt>
<rscale>  0 0.15817424E+04</rscale>
<asrwt>0</asrwt>
<pdfrwt beam="1">  1        1 0.34637414E+00 0.15817424E+04</pdfrwt>
<pdfrwt beam="2">  1       -1 0.42740478E-01 0.15817424E+04</pdfrwt>
<totfact> 0.10419907E+01</totfact>
</mgrwt>
</event>
<event>
12    2  0.8147979E-008  0.2206142E+04  0.7818608E-02  0.8515876E-01
          2   -1    0    0  501    0  0.00000000000E+00  0.00000000000E+00  0.77287577742E+03  0.77287577742E+03  0.00000000000E+00 0. -1.
         -2   -1    0    0    0  501 -0.00000000000E+00 -0.00000000000E+00 -0.15743352430E+04  0.15743352430E+04  0.00000000000E+00 0.  1.
         23    2    1    2    0    0  0.25755833441E+03 -0.86402518439E+03 -0.51933013884E+03  0.10443779961E+04  0.90254034294E+02 0.  0.
        254    2    1    2    0    0 -0.25755833441E+03  0.86402518439E+03 -0.28212932671E+03  0.13028330243E+04  0.89716281542E+03 0.  0.
         23    2    4    4    0    0 -0.32931919970E+03  0.27808058454E+02 -0.30377448135E+03  0.45789660571E+03  0.90365605175E+02 0.  0.
         23    2    4    4    0    0  0.71760865292E+02  0.83621712593E+03  0.21645154641E+02  0.84493641860E+03  0.95080677665E+02 0.  0.
          2    1    3    3  502    0  0.16567664464E+03 -0.60642880310E+03 -0.31615305638E+03  0.70367421359E+03  0.00000000000E+00 0. -1.
         -2    1    3    3    0  502  0.91881689767E+02 -0.25759638128E+03 -0.20317708246E+03  0.34070378249E+03  0.00000000000E+00 0.  1.
         11    1    5    5    0    0 -0.32613603210E+01  0.29537240615E+01 -0.33129068792E+02  0.33419996349E+02  0.00000000000E+00 0. -1.
        -11    1    5    5    0    0 -0.32605783938E+03  0.24854334393E+02 -0.27064541256E+03  0.42447660936E+03  0.00000000000E+00 0.  1.
          4    1    6    6  503    0 -0.18365158467E+02  0.15202940684E+03 -0.14989391538E+02  0.15386650528E+03  0.00000000000E+00 0. -1.
         -4    1    6    6    0  503  0.90126023759E+02  0.68418771909E+03  0.36634546179E+02  0.69106991331E+03  0.00000000000E+00 0.  1.
<mgrwt>
<rscale>  0 0.22061419E+04</rscale>
<asrwt>0</asrwt>
<pdfrwt beam="1">  1        2 0.11890397E+00 0.22061419E+04</pdfrwt>
<pdfrwt beam="2">  1       -2 0.24220542E+00 0.22061419E+04</pdfrwt>
<totfact> 0.23639091E+00</totfact>
</mgrwt>
</event>
<event>
12    2  0.8147979E-008  0.1978558E+04  0.7818608E-02  0.8616711E-01
         -2   -1    0    0    0  501 -0.00000000000E+00  0.00000000000E+00  0.42420680821E+03  0.42420680821E+03  0.00000000000E+00 0.  1.
          2   -1    0    0  501    0  0.00000000000E+00 -0.00000000000E+00 -0.23070667461E+04  0.23070667461E+04  0.00000000000E+00 0. -1.
         23    2    1    2    0    0 -0.69288659310E+03  0.33218676012E+03 -0.55261959003E+03  0.95083417696E+03  0.90869941589E+02 0.  0.
        254    2    1    2    0    0  0.69288659310E+03 -0.33218676012E+03 -0.13302403479E+04  0.17804393774E+04  0.89999173268E+03 0.  0.
         23    2    4    4    0    0  0.68337926834E+03 -0.77016059604E+01 -0.12587856341E+04  0.14351995976E+04  0.90499023266E+02 0.  0.
         23    2    4    4    0    0  0.95073247612E+01 -0.32448515416E+03 -0.71454713747E+02  0.34523977975E+03  0.93293756011E+02 0.  0.
          2    1    3    3  502    0 -0.35382745778E+03  0.19123208765E+03 -0.33912037172E+03  0.52608574182E+03  0.00000000000E+00 0. -1.
         -2    1    3    3    0  502 -0.33905913532E+03  0.14095467247E+03 -0.21349921831E+03  0.42474843514E+03  0.00000000000E+00 0.  1.
         11    1    5    5    0    0  0.57949839090E+03  0.19874934788E+02 -0.10188695825E+04  0.11723090992E+04  0.00000000000E+00 0. -1.
        -11    1    5    5    0    0  0.10388087744E+03 -0.27576540748E+02 -0.23991605165E+03  0.26289049838E+03  0.00000000000E+00 0.  1.
          3    1    6    6  503    0  0.26687238121E+01 -0.14393956707E+00  0.10335077968E+02  0.10675047634E+02  0.00000000000E+00 0.  1.
         -3    1    6    6    0  503  0.68386009491E+01 -0.32434121459E+03 -0.81789791715E+02  0.33456473211E+03  0.00000000000E+00 0. -1.
<mgrwt>
<rscale>  0 0.19785585E+04</rscale>
<asrwt>0</asrwt>
<pdfrwt beam="1">  1        2 0.35493335E+00 0.19785585E+04</pdfrwt>
<pdfrwt beam="2">  1       -2 0.65262584E-01 0.19785585E+04</pdfrwt>
<totfact> 0.90495035E+00</totfact>
</mgrwt>
</event>
<event>
12    2  0.8147979E-008  0.1688239E+04  0.7818608E-02  0.8768101E-01
          1   -1    0    0  501    0  0.00000000000E+00  0.00000000000E+00  0.21519057218E+04  0.21519057218E+04  0.00000000000E+00 0. -1.
         -1   -1    0    0    0  501 -0.00000000000E+00 -0.00000000000E+00 -0.33111939154E+03  0.33111939154E+03  0.00000000000E+00 0.  1.
         23    2    1    2    0    0  0.47284669422E+03  0.91706045501E+02  0.11844885640E+04  0.12819722090E+04  0.91899898579E+02 0.  0.
        254    2    1    2    0    0 -0.47284669422E+03 -0.91706045501E+02  0.63629776626E+03  0.12010529044E+04  0.89758522531E+03 0.  0.
         23    2    4    4    0    0 -0.42853225339E+02  0.36514147489E+03  0.30214535017E+03  0.48471732008E+03  0.92164918228E+02 0.  0.
         23    2    4    4    0    0 -0.42999346888E+03 -0.45684752039E+03  0.33415241609E+03  0.71633558427E+03  0.88740024512E+02 0.  0.
          1    1    3    3  502    0  0.18551095610E+03  0.50168424226E+02  0.58751459640E+03  0.61814608840E+03  0.00000000000E+00 0. -1.
         -1    1    3    3    0  502  0.28733573812E+03  0.41537621275E+02  0.59697396757E+03  0.66382612056E+03  0.00000000000E+00 0.  1.
         11    1    5    5    0    0 -0.27410856234E+02  0.38857253133E+02  0.15171483482E+02  0.49914076888E+02  0.00000000000E+00 0. -1.
        -11    1    5    5    0    0 -0.15442369106E+02  0.32628422176E+03  0.28697386669E+03  0.43480324320E+03  0.00000000000E+00 0.  1.
          4    1    6    6  503    0 -0.73926086779E+01 -0.37633655484E+02  0.19138855993E+02  0.42863020156E+02  0.00000000000E+00 0. -1.
         -4    1    6    6    0  503 -0.42260086020E+03 -0.41921386491E+03  0.31501356010E+03  0.67347256412E+03  0.00000000000E+00 0.  1.
<mgrwt>
<rscale>  0 0.16882390E+04</rscale>
<asrwt>0</asrwt>
<pdfrwt beam="1">  1        1 0.33106241E+00 0.16882390E+04</pdfrwt>
<pdfrwt beam="2">  1       -1 0.50941446E-01 0.16882390E+04</pdfrwt>
<totfact> 0.86730859E+00</totfact>
</mgrwt>
</event>
<event>
12    2  0.8147979E-008  0.1659406E+04  0.7818608E-02  0.8784861E-01
          2   -1    0    0  501    0  0.00000000000E+00  0.00000000000E+00  0.13180406509E+04  0.13180406509E+04  0.00000000000E+00 0. -1.
         -2   -1    0    0    0  501 -0.00000000000E+00 -0.00000000000E+00 -0.52229600200E+03  0.52229600200E+03  0.00000000000E+00 0.  1.
         23    2    1    2    0    0 -0.44899667304E+03  0.30356018416E+03  0.47842936097E+02  0.55158640040E+03  0.90619052947E+02 0.  0.
        254    2    1    2    0    0  0.44899667304E+03 -0.30356018416E+03  0.74790171281E+03  0.12887502525E+04  0.89876217293E+03 0.  0.
         23    2    4    4    0    0  0.12871904451E+02  0.28870307216E+03  0.27745793830E+03  0.41134248103E+03  0.93298335362E+02 0.  0.
         23    2    4    4    0    0  0.43612476859E+03 -0.59226325632E+03  0.47044377452E+03  0.87740777147E+03  0.86870443075E+02 0.  0.
          3    1    3    3  502    0 -0.19661176855E+03  0.11306850558E+03 -0.21648079924E+02  0.22783615571E+03  0.00000000000E+00 0. -1.
         -3    1    3    3    0  502 -0.25238490450E+03  0.19049167858E+03  0.69491016021E+02  0.32375024469E+03  0.00000000000E+00 0.  1.
         11    1    5    5    0    0  0.15386944998E+02  0.24309186199E+02  0.98251193730E+00  0.28786454102E+02  0.00000000000E+00 0. -1.
        -11    1    5    5    0    0 -0.25150405473E+01  0.26439388596E+03  0.27647542636E+03  0.38255602693E+03  0.00000000000E+00 0.  1.
          1    1    6    6  503    0  0.28316112158E+03 -0.31645069698E+03  0.25251436873E+03  0.49404936070E+03  0.00000000000E+00 0. -1.
         -1    1    6    6    0  503  0.15296364701E+03 -0.27581255935E+03  0.21792940578E+03  0.38335841077E+03  0.00000000000E+00 0.  1.
<mgrwt>
<rscale>  0 0.16594064E+04</rscale>
<asrwt>0</asrwt>
<pdfrwt beam="1">  1        2 0.20277548E+00 0.16594064E+04</pdfrwt>
<pdfrwt beam="2">  1       -2 0.80353232E-01 0.16594064E+04</pdfrwt>
<totfact> 0.21082514E+01</totfact>
</mgrwt>
</event>
<event>
12    2  0.8147979E-008  0.2619709E+04  0.7818608E-02  0.8361537E-01
          1   -1    0    0  501    0  0.00000000000E+00  0.00000000000E+00  0.11225088996E+04  0.11225088996E+04  0.00000000000E+00 0. -1.
         -1   -1    0    0    0  501 -0.00000000000E+00 -0.00000000000E+00 -0.15284684627E+04  0.15284684627E+04  0.00000000000E+00 0.  1.
         23    2    1    2    0    0 -0.71915924247E+03  0.88327062602E+03 -0.36874912501E+03  0.11991434226E+04  0.67911824676E+02 0.  0.
        254    2    1    2    0    0  0.71915924247E+03 -0.88327062602E+03 -0.37210438165E+02  0.14518339397E+04  0.89948883091E+03 0.  0.
         23    2    4    4    0    0  0.20842786348E+03 -0.75137241732E+03  0.27491632841E+03  0.83207474635E+03  0.93630722012E+02 0.  0.
         23    2    4    4    0    0  0.51073137899E+03 -0.13189820870E+03 -0.31212676658E+03  0.61975919335E+03  0.91840407150E+02 0.  0.
          3    1    3    3  502    0 -0.38088489139E+03  0.47688026419E+03 -0.16245072267E+03  0.63156814688E+03  0.00000000000E+00 0. -1.
         -3    1    3    3    0  502 -0.33827435108E+03  0.40639036183E+03 -0.20629840234E+03  0.56757527571E+03  0.00000000000E+00 0.  1.
         11    1    5    5    0    0 -0.97877628940E+01 -0.25278121632E+02  0.75750116277E+01  0.28145417689E+02  0.00000000000E+00 0.  1.
        -11    1    5    5    0    0  0.21821562638E+03 -0.72609429569E+03  0.26734131678E+03  0.80392932866E+03  0.00000000000E+00 0. -1.
          2    1    6    6  503    0  0.17354913243E+03 -0.77658663858E+02 -0.14748132600E+03  0.24062608121E+03  0.00000000000E+00 0. -1.
         -2    1    6    6    0  503  0.33718224656E+03 -0.54239544841E+02 -0.16464544058E+03  0.37913311214E+03  0.00000000000E+00 0.  1.
<mgrwt>
<rscale>  0 0.26197095E+04</rscale>
<asrwt>0</asrwt>
<pdfrwt beam="1">  1        1 0.17269368E+00 0.26197095E+04</pdfrwt>
<pdfrwt beam="2">  1       -1 0.23514899E+00 0.26197095E+04</pdfrwt>
<totfact> 0.93562889E-01</totfact>
</mgrwt>
</event>
<event>
12    2  0.8147979E-008  0.3283357E+04  0.7818608E-02  0.8167143E-01
          2   -1    0    0  501    0  0.00000000000E+00  0.00000000000E+00  0.13978083973E+04  0.13978083973E+04  0.00000000000E+00 0. -1.
         -2   -1    0    0    0  501 -0.00000000000E+00 -0.00000000000E+00 -0.19280959782E+04  0.19280959782E+04  0.00000000000E+00 0.  1.
         23    2    1    2    0    0  0.84898381400E+03 -0.79276671639E+03 -0.12328060496E+04  0.16962204667E+04  0.90002959086E+02 0.  0.
        254    2    1    2    0    0 -0.84898381400E+03  0.79276671639E+03  0.70251846873E+03  0.16296839087E+04  0.90171218272E+03 0.  0.
         23    2    4    4    0    0 -0.88300910961E+03  0.50460747142E+03  0.81384902112E+03  0.13057561334E+04  0.91186966615E+02 0.  0.
         23    2    4    4    0    0  0.34025295604E+02  0.28815924496E+03 -0.11133055239E+03  0.32392777534E+03  0.91330392211E+02 0.  0.
          1    1    3    3  502    0  0.54560512946E+03 -0.47432821473E+03 -0.81729128210E+03  0.10911632565E+04  0.00000000000E+00 0. -1.
         -1    1    3    3    0  502  0.30337868454E+03 -0.31843850165E+03 -0.41551476753E+03  0.60505721019E+03  0.00000000000E+00 0.  1.
         11    1    5    5    0    0 -0.93851720619E+02  0.39341399334E+02  0.52091600007E+02  0.11432159007E+03  0.00000000000E+00 0. -1.
        -11    1    5    5    0    0 -0.78915738899E+03  0.46526607209E+03  0.76175742111E+03  0.11914345433E+04  0.00000000000E+00 0.  1.
          3    1    6    6  503    0  0.62045027574E+02  0.20338829936E+03 -0.96131423526E+02  0.23336159999E+03  0.00000000000E+00 0. -1.
         -3    1    6    6    0  503 -0.28019731969E+02  0.84770945605E+02 -0.15199128866E+02  0.90566175346E+02  0.00000000000E+00 0.  1.
<mgrwt>
<rscale>  0 0.32833573E+04</rscale>
<asrwt>0</asrwt>
<pdfrwt beam="1">  1        2 0.21504744E+00 0.32833573E+04</pdfrwt>
<pdfrwt beam="2">  1       -2 0.29663015E+00 0.32833573E+04</pdfrwt>
<totfact> 0.40449177E-01</totfact>
</mgrwt>
</event>
<event>
12    2  0.8147979E-008  0.4017872E+04  0.7818608E-02  0.8000951E-01
         -1   -1    0    0    0  501 -0.00000000000E+00  0.00000000000E+00  0.30286386786E+04  0.30286386786E+04  0.00000000000E+00 0.  1.
          1   -1    0    0  501    0  0.00000000000E+00 -0.00000000000E+00 -0.13325536482E+04  0.13325536482E+04  0.00000000000E+00 0. -1.
         23    2    1    2    0    0 -0.54080426490E+03 -0.12614086966E+04  0.22422088592E+04  0.26304546937E+04  0.90389017533E+02 0.  0.
        254    2    1    2    0    0  0.54080426490E+03  0.12614086966E+04 -0.54612382880E+03  0.17307376331E+04  0.90198689873E+03 0.  0.
         23    2    4    4    0    0  0.30236169823E+03  0.85368797607E+03 -0.77869523893E+03  0.11977974309E+04  0.90258812703E+02 0.  0.
         23    2    4    4    0    0  0.23844256667E+03  0.40772072052E+03  0.23257141013E+03  0.53294020222E+03  0.82733033209E+02 0.  0.
          4    1    3    3  502    0 -0.38566540686E+03 -0.96008110234E+03  0.17463766637E+04  0.20298583646E+04  0.00000000000E+00 0. -1.
         -4    1    3    3    0  502 -0.15513885804E+03 -0.30132759425E+03  0.49583219556E+03  0.60059632907E+03  0.00000000000E+00 0.  1.
         11    1    5    5    0    0  0.28956919661E+03  0.75437358858E+03 -0.66681975166E+03  0.10476537653E+04  0.00000000000E+00 0. -1.
        -11    1    5    5    0    0  0.12792501614E+02  0.99314387481E+02 -0.11187548727E+03  0.15014366557E+03  0.00000000000E+00 0.  1.
          1    1    6    6  503    0  0.17138367559E+03  0.30697931007E+03  0.21093214218E+03  0.41000125570E+03  0.00000000000E+00 0. -1.
         -1    1    6    6    0  503  0.67058891083E+02  0.10074141046E+03  0.21639267946E+02  0.12293894652E+03  0.00000000000E+00 0.  1.
<mgrwt>
<rscale>  0 0.40178718E+04</rscale>
<asrwt>0</asrwt>
<pdfrwt beam="1">  1        1 0.20500825E+00 0.40178718E+04</pdfrwt>
<pdfrwt beam="2">  1       -1 0.46594441E+00 0.40178718E+04</pdfrwt>
<totfact> 0.16857568E-02</totfact>
</mgrwt>
</event>
<event>
12    2  0.8147979E-008  0.1948880E+04  0.7818608E-02  0.8630901E-01
          1   -1    0    0  501    0  0.00000000000E+00  0.00000000000E+00  0.13996317689E+04  0.13996317689E+04  0.00000000000E+00 0. -1.
         -1   -1    0    0    0  501 -0.00000000000E+00 -0.00000000000E+00 -0.67841622099E+03  0.67841622099E+03  0.00000000000E+00 0.  1.
         23    2    1    2    0    0  0.53710772046E+03  0.87653235192E+02  0.85626818641E+03  0.10186725378E+04  0.91272882971E+02 0.  0.
        254    2    1    2    0    0 -0.53710772046E+03 -0.87653235192E+02 -0.13505263848E+03  0.10593754521E+04  0.89881552077E+03 0.  0.
         23    2    4    4    0    0 -0.58925781501E+03 -0.38565499172E+03  0.17500903071E+02  0.71037938927E+03  0.91531687972E+02 0.  0.
         23    2    4    4    0    0  0.52150094549E+02  0.29800175653E+03 -0.15255354155E+03  0.34899606285E+03  0.83671916390E+02 0.  0.
          1    1    3    3  502    0  0.32458771929E+03  0.51558491419E+02  0.59709058003E+03  0.68156630368E+03  0.00000000000E+00 0. -1.
         -1    1    3    3    0  502  0.21252000117E+03  0.36094743773E+02  0.25917760639E+03  0.33710623411E+03  0.00000000000E+00 0.  1.
         11    1    5    5    0    0 -0.61701587989E+01 -0.20138207349E+02 -0.56558974548E+01  0.21808425684E+02  0.00000000000E+00 0.  1.
        -11    1    5    5    0    0 -0.58308765621E+03 -0.36551678437E+03  0.23156800525E+02  0.68857096359E+03  0.00000000000E+00 0. -1.
          1    1    6    6  503    0  0.59845436315E+02  0.23790235561E+03 -0.15164118584E+03  0.28839912672E+03  0.00000000000E+00 0. -1.
         -1    1    6    6    0  503 -0.76953417657E+01  0.60099400918E+02 -0.91235571637E+00  0.60596936132E+02  0.00000000000E+00 0.  1.
<mgrwt>
<rscale>  0 0.19488796E+04</rscale>
<asrwt>0</asrwt>
<pdfrwt beam="1">  1        1 0.21532796E+00 0.19488796E+04</pdfrwt>
<pdfrwt beam="2">  1       -1 0.10437173E+00 0.19488796E+04</pdfrwt>
<totfact> 0.61838744E+00</totfact>
</mgrwt>
</event>
<event>
12    2  0.8147979E-008  0.2815729E+04  0.7818608E-02  0.8298402E-01
          1   -1    0    0  501    0  0.00000000000E+00  0.00000000000E+00  0.11009422372E+04  0.11009422372E+04  0.00000000000E+00 0. -1.
         -1   -1    0    0    0  501 -0.00000000000E+00 -0.00000000000E+00 -0.18003506698E+04  0.18003506698E+04  0.00000000000E+00 0.  1.
         23    2    1    2    0    0 -0.73756207916E+03  0.54408415805E+03 -0.12091215989E+04  0.15198812444E+04  0.89658042479E+02 0.  0.
        254    2    1    2    0    0  0.73756207916E+03 -0.54408415805E+03  0.50971316620E+03  0.13814116626E+04  0.89914697244E+03 0.  0.
         23    2    4    4    0    0  0.74771703946E+02  0.20231435080E+03  0.25681151561E+03  0.34700439750E+03  0.89095415621E+02 0.  0.
         23    2    4    4    0    0  0.66279037521E+03 -0.74639850885E+03  0.25290165059E+03  0.10344072651E+04  0.98169902135E+02 0.  0.
          1    1    3    3  502    0 -0.49824295818E+03  0.41716895577E+03 -0.83933028776E+03  0.10614854285E+04  0.00000000000E+00 0. -1.
         -1    1    3    3    0  502 -0.23931912097E+03  0.12691520227E+03 -0.36979131110E+03  0.45839581586E+03  0.00000000000E+00 0.  1.
         11    1    5    5    0    0  0.94419642393E+02  0.16336051073E+03  0.22076125268E+03  0.29040877400E+03  0.00000000000E+00 0. -1.
        -11    1    5    5    0    0 -0.19647938447E+02  0.38953840068E+02  0.36050262931E+02  0.56595623494E+02  0.00000000000E+00 0.  1.
          4    1    6    6  503    0  0.46764386641E+03 -0.57641556248E+03  0.15896650084E+03  0.75908895055E+03  0.00000000000E+00 0. -1.
         -4    1    6    6    0  503  0.19514650880E+03 -0.16998294637E+03  0.93935149750E+02  0.27531831452E+03  0.00000000000E+00 0.  1.
<mgrwt>
<rscale>  0 0.28157287E+04</rscale>
<asrwt>0</asrwt>
<pdfrwt beam="1">  1        1 0.16937573E+00 0.28157287E+04</pdfrwt>
<pdfrwt beam="2">  1       -1 0.27697702E+00 0.28157287E+04</pdfrwt>
<totfact> 0.50949076E-01</totfact>
</mgrwt>
</event>
<event>
12    2  0.8147979E-008  0.2956125E+04  0.7818608E-02  0.8256372E-01
          2   -1    0    0  501    0  0.00000000000E+00  0.00000000000E+00  0.14669441071E+04  0.14669441071E+04  0.00000000000E+00 0. -1.
         -2   -1    0    0    0  501 -0.00000000000E+00 -0.00000000000E+00 -0.14892653427E+04  0.14892653427E+04  0.00000000000E+00 0.  1.
         23    2    1    2    0    0 -0.92846506709E+03  0.87852634531E+03  0.38806310214E+03  0.13389805312E+04  0.91760403236E+02 0.  0.
        254    2    1    2    0    0  0.92846506709E+03 -0.87852634531E+03 -0.41038433774E+03  0.16172289186E+04  0.90175282113E+03 0.  0.
         23    2    4    4    0    0  0.61047257741E+03 -0.72629793255E+03 -0.67423333032E+03  0.11674449070E+04  0.90286059364E+02 0.  0.
         23    2    4    4    0    0  0.31799248968E+03 -0.15222841276E+03  0.26384899258E+03  0.44978401166E+03  0.91633253334E+02 0.  0.
          2    1    3    3  502    0 -0.23272206394E+03  0.16857799871E+03  0.94830542972E+02  0.30260689446E+03  0.00000000000E+00 0. -1.
         -2    1    3    3    0  502 -0.69574300315E+03  0.70994834659E+03  0.29323255916E+03  0.10363736368E+04  0.00000000000E+00 0.  1.
         11    1    5    5    0    0  0.26622382503E+03 -0.34214768850E+03 -0.35943697065E+03  0.56314749545E+03  0.00000000000E+00 0. -1.
        -11    1    5    5    0    0  0.34424875238E+03 -0.38415024405E+03 -0.31479635967E+03  0.60429741153E+03  0.00000000000E+00 0.  1.
          1    1    6    6  503    0  0.21429734005E+03 -0.14650312925E+03  0.17453829614E+03  0.31281006002E+03  0.00000000000E+00 0. -1.
         -1    1    6    6    0  503  0.10369514963E+03 -0.57252835050E+01  0.89310696444E+02  0.13697395164E+03  0.00000000000E+00 0.  1.
<mgrwt>
<rscale>  0 0.29561252E+04</rscale>
<asrwt>0</asrwt>
<pdfrwt beam="1">  1        2 0.22568371E+00 0.29561252E+04</pdfrwt>
<pdfrwt beam="2">  1       -2 0.22911775E+00 0.29561252E+04</pdfrwt>
<totfact> 0.98598986E-01</totfact>
</mgrwt>
</event>
<event>
12    2  0.8147979E-008  0.1621417E+04  0.7818608E-02  0.8807498E-01
          2   -1    0    0  501    0  0.00000000000E+00  0.00000000000E+00  0.62844437025E+03  0.62844437025E+03  0.00000000000E+00 0. -1.
         -2   -1    0    0    0  501 -0.00000000000E+00 -0.00000000000E+00 -0.10458338538E+04  0.10458338538E+04  0.00000000000E+00 0.  1.
         23    2    1    2    0    0  0.45452714560E+03  0.15842650185E+03  0.14306526933E+03  0.51027853626E+03  0.90678722393E+02 0.  0.
        254    2    1    2    0    0 -0.45452714560E+03 -0.15842650185E+03 -0.56045475293E+03  0.11639996878E+04  0.89949533664E+03 0.  0.
         23    2    4    4    0    0 -0.65507324571E+03 -0.21687108274E+02 -0.61149746236E+03  0.90097112251E+03  0.90711240799E+02 0.  0.
         23    2    4    4    0    0  0.20054610011E+03 -0.13673939358E+03  0.51042709435E+02  0.26302856533E+03  0.87534381641E+02 0.  0.
          2    1    3    3  502    0  0.35692902942E+03  0.12190136535E+03  0.14985051572E+03  0.40584905073E+03  0.00000000000E+00 0. -1.
         -2    1    3    3    0  502  0.97598116180E+02  0.36525136502E+02 -0.67852463841E+01  0.10442948552E+03  0.00000000000E+00 0.  1.
         11    1    5    5    0    0 -0.30279083813E+03  0.29254250800E+02 -0.31243958981E+03  0.43606949002E+03  0.00000000000E+00 0. -1.
        -11    1    5    5    0    0 -0.35228240758E+03 -0.50941359074E+02 -0.29905787255E+03  0.46490163249E+03  0.00000000000E+00 0.  1.
          4    1    6    6  503    0  0.61106336829E+02 -0.67521490669E+02 -0.17835940786E+02  0.92796858172E+02  0.00000000000E+00 0. -1.
         -4    1    6    6    0  503  0.13943976328E+03 -0.69217902911E+02  0.68878650221E+02  0.17023170716E+03  0.00000000000E+00 0.  1.
<mgrwt>
<rscale>  0 0.16214172E+04</rscale>
<asrwt>0</asrwt>
<pdfrwt beam="1">  1        2 0.96683750E-01 0.16214172E+04</pdfrwt>
<pdfrwt beam="2">  1       -2 0.16089751E+00 0.16214172E+04</pdfrwt>
<totfact> 0.11123332E+01</totfact>
</mgrwt>
</event>
<event>
12    2  0.8147979E-008  0.1171620E+04  0.7818608E-02  0.9138067E-01
         -2   -1    0    0    0  501 -0.00000000000E+00  0.00000000000E+00  0.40853339391E+03  0.40853339391E+03  0.00000000000E+00 0.  1.
          2   -1    0    0  501    0  0.00000000000E+00 -0.00000000000E+00 -0.84001299414E+03  0.84001299414E+03  0.00000000000E+00 0. -1.
         23    2    1    2    0    0 -0.18533690565E+03  0.11150532565E+03 -0.16391865291E+03  0.28605818957E+03  0.90425421233E+02 0.  0.
        254    2    1    2    0    0  0.18533690565E+03 -0.11150532565E+03 -0.26756094732E+03  0.96248819847E+03  0.89889457970E+03 0.  0.
         23    2    4    4    0    0  0.15989670456E+03  0.37607613363E+03 -0.19003893560E+03  0.45967091299E+03  0.90456270060E+02 0.  0.
         23    2    4    4    0    0  0.25440201086E+02 -0.48758145928E+03 -0.77522011712E+02  0.50281728548E+03  0.91829608576E+02 0.  0.
          1    1    3    3  502    0 -0.19145069910E+03  0.97509913666E+02 -0.16477369550E+03  0.27076174800E+03  0.00000000000E+00 0. -1.
         -1    1    3    3    0  502  0.61137934525E+01  0.13995411986E+02  0.85504258976E+00  0.15296441575E+02  0.00000000000E+00 0.  1.
         11    1    5    5    0    0  0.10334124740E+03  0.18521785714E+03 -0.54948627728E+02  0.21909910932E+03  0.00000000000E+00 0. -1.
        -11    1    5    5    0    0  0.56555457161E+02  0.19085827649E+03 -0.13509030788E+03  0.24057180367E+03  0.00000000000E+00 0.  1.
          4    1    6    6  503    0  0.34681517254E+02 -0.15008253391E+03 -0.58110983850E+02  0.16463432530E+03  0.00000000000E+00 0. -1.
         -4    1    6    6    0  503 -0.92413161689E+01 -0.33749892537E+03 -0.19411027862E+02  0.33818296018E+03  0.00000000000E+00 0.  1.
<mgrwt>
<rscale>  0 0.11716200E+04</rscale>
<asrwt>0</asrwt>
<pdfrwt beam="1">  1        2 0.12923277E+00 0.11716200E+04</pdfrwt>
<pdfrwt beam="2">  1       -2 0.62851292E-01 0.11716200E+04</pdfrwt>
<totfact> 0.74838891E+01</totfact>
</mgrwt>
</event>
<event>
12    2  0.8147979E-008  0.3985419E+04  0.7818608E-02  0.8007494E-01
          2   -1    0    0  501    0  0.00000000000E+00  0.00000000000E+00  0.26650109511E+04  0.26650109511E+04  0.00000000000E+00 0. -1.
         -2   -1    0    0    0  501 -0.00000000000E+00 -0.00000000000E+00 -0.14900092917E+04  0.14900092917E+04  0.00000000000E+00 0.  1.
         23    2    1    2    0    0 -0.55440561747E+02 -0.18831164024E+04  0.40122879415E+03  0.19281233947E+04  0.86453680244E+02 0.  0.
        254    2    1    2    0    0  0.55440561747E+02  0.18831164024E+04  0.77377286527E+03  0.22268968482E+04  0.90063537820E+03 0.  0.
         23    2    4    4    0    0  0.40390709155E+03  0.64869093737E+03  0.10245267986E+03  0.77637195932E+03  0.91192087280E+02 0.  0.
         23    2    4    4    0    0 -0.34846652980E+03  0.12344254650E+04  0.67132018541E+03  0.14505248889E+04  0.90091679444E+02 0.  0.
          2    1    3    3  502    0 -0.70616018638E+02 -0.17080983154E+04  0.37881394075E+03  0.17510244084E+04  0.00000000000E+00 0. -1.
         -2    1    3    3    0  502  0.15175456891E+02 -0.17501808698E+03  0.22414853405E+02  0.17709898621E+03  0.00000000000E+00 0.  1.
         11    1    5    5    0    0  0.13785678444E+03  0.25077816481E+03 -0.31956334684E+01  0.28618943557E+03  0.00000000000E+00 0. -1.
        -11    1    5    5    0    0  0.26605030710E+03  0.39791277257E+03  0.10564831332E+03  0.49018252375E+03  0.00000000000E+00 0.  1.
          4    1    6    6  503    0 -0.12581161340E+02  0.10088166544E+03  0.75371376051E+02  0.12655528583E+03  0.00000000000E+00 0. -1.
         -4    1    6    6    0  503 -0.33588536846E+03  0.11335437996E+04  0.59594880936E+03  0.13239696030E+04  0.00000000000E+00 0.  1.
<mgrwt>
<rscale>  0 0.39854190E+04</rscale>
<asrwt>0</asrwt>
<pdfrwt beam="1">  1        2 0.41000168E+00 0.39854190E+04</pdfrwt>
<pdfrwt beam="2">  1       -2 0.22923220E+00 0.39854190E+04</pdfrwt>
<totfact> 0.19019222E-01</totfact>
</mgrwt>
</event>
<event>
12    2  0.8147979E-008  0.1764104E+04  0.7818608E-02  0.8725625E-01
          1   -1    0    0  501    0  0.00000000000E+00  0.00000000000E+00  0.30041606699E+04  0.30041606699E+04  0.00000000000E+00 0. -1.
         -1   -1    0    0    0  501 -0.00000000000E+00 -0.00000000000E+00 -0.25897942331E+03  0.25897942331E+03  0.00000000000E+00 0.  1.
         23    2    1    2    0    0 -0.36119061200E+03 -0.53301788933E+03  0.87100270703E+03  0.10869374460E+04  0.90667343849E+02 0.  0.
        254    2    1    2    0    0  0.36119061200E+03  0.53301788933E+03  0.18741785395E+04  0.21762026472E+04  0.89930308303E+03 0.  0.
         23    2    4    4    0    0  0.28206794190E+03 -0.20323513945E+03  0.57097399387E+03  0.67459865330E+03  0.90582534748E+02 0.  0.
         23    2    4    4    0    0  0.79122670103E+02  0.73625302878E+03  0.13032045457E+04  0.15016039939E+04  0.90241605703E+02 0.  0.
          4    1    3    3  502    0 -0.19413358479E+03 -0.29037960597E+03  0.54721220869E+03  0.64919131668E+03  0.00000000000E+00 0. -1.
         -4    1    3    3    0  502 -0.16705702721E+03 -0.24263828336E+03  0.32379049834E+03  0.43774612929E+03  0.00000000000E+00 0.  1.
         11    1    5    5    0    0  0.26045843623E+02 -0.76469454918E+01  0.12568590431E+02  0.29913729470E+02  0.00000000000E+00 0.  1.
        -11    1    5    5    0    0  0.25602209828E+03 -0.19558819395E+03  0.55840540344E+03  0.64468492383E+03  0.00000000000E+00 0. -1.
          3    1    6    6  503    0  0.44871238346E+02  0.52362369513E+03  0.84132151948E+03  0.99197636125E+03  0.00000000000E+00 0. -1.
         -3    1    6    6    0  503  0.34251431757E+02  0.21262933365E+03  0.46188302617E+03  0.50962763266E+03  0.00000000000E+00 0.  1.
<mgrwt>
<rscale>  0 0.17641041E+04</rscale>
<asrwt>0</asrwt>
<pdfrwt beam="1">  1        1 0.46217854E+00 0.17641041E+04</pdfrwt>
<pdfrwt beam="2">  1       -1 0.39842990E-01 0.17641041E+04</pdfrwt>
<totfact> 0.34586968E+00</totfact>
</mgrwt>
</event>
<event>
12    2  0.8147979E-008  0.2355649E+04  0.7818608E-02  0.8456297E-01
         -1   -1    0    0    0  501 -0.00000000000E+00  0.00000000000E+00  0.78811334785E+03  0.78811334785E+03  0.00000000000E+00 0.  1.
          1   -1    0    0  501    0  0.00000000000E+00 -0.00000000000E+00 -0.17602419496E+04  0.17602419496E+04  0.00000000000E+00 0. -1.
         23    2    1    2    0    0 -0.49642286525E+03 -0.87224234109E+03 -0.45798682750E+03  0.11063996009E+04  0.84414335307E+02 0.  0.
        254    2    1    2    0    0  0.49642286525E+03  0.87224234109E+03 -0.51414177422E+03  0.14419556965E+04  0.89869466672E+03 0.  0.
         23    2    4    4    0    0 -0.91738992269E+02  0.24618329235E+03 -0.50684130907E+03  0.57786192494E+03  0.89521145969E+02 0.  0.
         23    2    4    4    0    0  0.58816185752E+03  0.62605904874E+03 -0.73004651506E+01  0.86409377158E+03  0.93383329063E+02 0.  0.
          4    1    3    3  502    0 -0.28729357000E+03 -0.41974655038E+03 -0.22754167056E+03  0.55722524508E+03  0.00000000000E+00 0.  1.
         -4    1    3    3    0  502 -0.20912929525E+03 -0.45249579071E+03 -0.23044515694E+03  0.54917435583E+03  0.00000000000E+00 0. -1.
         11    1    5    5    0    0 -0.27603212552E+02  0.18226257718E+03 -0.30065270435E+03  0.35266646142E+03  0.00000000000E+00 0.  1.
        -11    1    5    5    0    0 -0.64135779717E+02  0.63920715170E+02 -0.20618860473E+03  0.22519546351E+03  0.00000000000E+00 0. -1.
          3    1    6    6  503    0  0.95584964708E+02  0.15521584753E+03 -0.11750393304E+02  0.18266503920E+03  0.00000000000E+00 0. -1.
         -3    1    6    6    0  503  0.49257689281E+03  0.47084320121E+03  0.44499281534E+01  0.68142873238E+03  0.00000000000E+00 0.  1.
<mgrwt>
<rscale>  0 0.23556487E+04</rscale>
<asrwt>0</asrwt>
<pdfrwt beam="1">  1        1 0.27080645E+00 0.23556487E+04</pdfrwt>
<pdfrwt beam="2">  1       -1 0.12124821E+00 0.23556487E+04</pdfrwt>
<totfact> 0.23537923E+00</totfact>
</mgrwt>
</event>
<event>
12    2  0.8147979E-008  0.1391637E+04  0.7818608E-02  0.8959894E-01
          3   -1    0    0  501    0  0.00000000000E+00  0.00000000000E+00  0.94845324642E+03  0.94845324642E+03  0.00000000000E+00 0. -1.
         -3   -1    0    0    0  501 -0.00000000000E+00 -0.00000000000E+00 -0.51047705821E+03  0.51047705821E+03  0.00000000000E+00 0.  1.
         23    2    1    2    0    0  0.17955049672E+02  0.30639838732E+03 -0.13729681230E+03  0.34657977863E+03  0.84052202367E+02 0.  0.
        254    2    1    2    0    0 -0.17955049672E+02 -0.30639838732E+03  0.57527300051E+03  0.11123505260E+04  0.90121158005E+03 0.  0.
         23    2    4    4    0    0  0.51157247304E+02 -0.57797114348E+03  0.16898613246E+03  0.61076419372E+03  0.88367871577E+02 0.  0.
         23    2    4    4    0    0 -0.69112296977E+02  0.27157275616E+03  0.40628686805E+03  0.50158633228E+03  0.89395514968E+02 0.  0.
          4    1    3    3  502    0  0.18413268325E+02  0.14660730736E+02  0.13426904104E+01  0.23575162643E+02  0.00000000000E+00 0. -1.
         -4    1    3    3    0  502 -0.45821865275E+00  0.29173765658E+03 -0.13863950271E+03  0.32300461598E+03  0.00000000000E+00 0.  1.
         11    1    5    5    0    0 -0.18982670482E+02 -0.41074049529E+02  0.17484641845E+02  0.48509092176E+02  0.00000000000E+00 0. -1.
        -11    1    5    5    0    0  0.70139917786E+02 -0.53689709395E+03  0.15150149061E+03  0.56225510155E+03  0.00000000000E+00 0.  1.
          2    1    6    6  503    0  0.13076776407E+02  0.47289992788E+02  0.35665785951E+02  0.60658006781E+02  0.00000000000E+00 0. -1.
         -2    1    6    6    0  503 -0.82189073384E+02  0.22428276337E+03  0.37062108210E+03  0.44092832550E+03  0.00000000000E+00 0.  1.
<mgrwt>
<rscale>  0 0.13916373E+04</rscale>
<asrwt>0</asrwt>
<pdfrwt beam="1">  1        3 0.14591588E+00 0.13916373E+04</pdfrwt>
<pdfrwt beam="2">  1       -3 0.78534932E-01 0.13916373E+04</pdfrwt>
<totfact> 0.13434042E+00</totfact>
</mgrwt>
</event>
<event>
12    2  0.8147979E-008  0.1583731E+04  0.7818608E-02  0.8830606E-01
         -1   -1    0    0    0  501 -0.00000000000E+00  0.00000000000E+00  0.21807142998E+03  0.21807142998E+03  0.00000000000E+00 0.  1.
          1   -1    0    0  501    0  0.00000000000E+00 -0.00000000000E+00 -0.28754372682E+04  0.28754372682E+04  0.00000000000E+00 0. -1.
         23    2    1    2    0    0  0.45105392434E+02  0.21146091172E+03  0.41431652760E+02  0.24059063610E+03  0.97041530883E+02 0.  0.
        254    2    1    2    0    0 -0.45105392434E+02 -0.21146091172E+03 -0.26987974910E+04  0.28529180621E+04  0.89937942939E+03 0.  0.
         23    2    4    4    0    0 -0.17082969821E+03  0.22455506214E+03 -0.35121690141E+03  0.46011492211E+03  0.93512929523E+02 0.  0.
         23    2    4    4    0    0  0.12572430578E+03 -0.43601597386E+03 -0.23475805895E+04  0.23928031400E+04  0.91954943384E+02 0.  0.
          1    1    3    3  502    0  0.16740033698E+02  0.15750481446E+01 -0.13756539435E+02  0.21724453552E+02  0.00000000000E+00 0. -1.
         -1    1    3    3    0  502  0.28365358736E+02  0.20988586358E+03  0.55188192195E+02  0.21886618255E+03  0.00000000000E+00 0.  1.
         11    1    5    5    0    0 -0.17176750883E+03  0.22027101897E+03 -0.30457250352E+03  0.41326481678E+03  0.00000000000E+00 0. -1.
        -11    1    5    5    0    0  0.93781061965E+00  0.42840431652E+01 -0.46644397890E+02  0.46850105326E+02  0.00000000000E+00 0.  1.
          3    1    6    6  503    0  0.72132743754E+02 -0.21193038106E+03 -0.13887314055E+04  0.14066600641E+04  0.00000000000E+00 0. -1.
         -3    1    6    6    0  503  0.53591562023E+02 -0.22408559280E+03 -0.95884918402E+03  0.98614307589E+03  0.00000000000E+00 0.  1.
<mgrwt>
<rscale>  0 0.15837307E+04</rscale>
<asrwt>0</asrwt>
<pdfrwt beam="1">  1        1 0.44237494E+00 0.15837307E+04</pdfrwt>
<pdfrwt beam="2">  1       -1 0.33549452E-01 0.15837307E+04</pdfrwt>
<totfact> 0.59435174E+00</totfact>
</mgrwt>
</event>
<event>
12    2  0.8147979E-008  0.2393798E+04  0.7818608E-02  0.8441829E-01
          1   -1    0    0  501    0  0.00000000000E+00  0.00000000000E+00  0.33026770034E+04  0.33026770034E+04  0.00000000000E+00 0. -1.
         -1   -1    0    0    0  501 -0.00000000000E+00 -0.00000000000E+00 -0.43375933530E+03  0.43375933530E+03  0.00000000000E+00 0.  1.
         23    2    1    2    0    0 -0.55496515900E+03  0.73412186239E+03  0.52760141356E+03  0.10646479335E+04  0.90502675432E+02 0.  0.
        254    2    1    2    0    0  0.55496515900E+03 -0.73412186239E+03  0.23413162545E+04  0.26717884051E+04  0.89987234740E+03 0.  0.
         23    2    4    4    0    0 -0.10982568999E+03  0.95809559296E+02  0.64851333254E+03  0.67049771587E+03  0.88070941174E+02 0.  0.
         23    2    4    4    0    0  0.66479084899E+03 -0.82993142169E+03  0.16928029220E+04  0.20012906893E+04  0.94072592498E+02 0.  0.
          4    1    3    3  502    0 -0.41640988534E+03  0.48139286248E+03  0.36409216365E+03  0.73327988127E+03  0.00000000000E+00 0. -1.
         -4    1    3    3    0  502 -0.13855527366E+03  0.25272899992E+03  0.16350924991E+03  0.33136805227E+03  0.00000000000E+00 0.  1.
         11    1    5    5    0    0 -0.10611339091E+03  0.59742817163E+02  0.58336626470E+03  0.59594081478E+03  0.00000000000E+00 0.  1.
        -11    1    5    5    0    0 -0.37122990774E+01  0.36066742134E+02  0.65147067837E+02  0.74556901092E+02  0.00000000000E+00 0. -1.
          2    1    6    6  503    0  0.40551716512E+03 -0.57739166333E+03  0.11222706824E+04  0.13256382571E+04  0.00000000000E+00 0. -1.
         -2    1    6    6    0  503  0.25927368386E+03 -0.25253975836E+03  0.57053223956E+03  0.67565243215E+03  0.00000000000E+00 0.  1.
<mgrwt>
<rscale>  0 0.23937978E+04</rscale>
<asrwt>0</asrwt>
<pdfrwt beam="1">  1        1 0.50810414E+00 0.23937978E+04</pdfrwt>
<pdfrwt beam="2">  1       -1 0.66732208E-01 0.23937978E+04</pdfrwt>
<totfact> 0.72574854E-01</totfact>
</mgrwt>
</event>
<event>
12    2  0.8147979E-008  0.1983629E+04  0.7818608E-02  0.8614313E-01
          2   -1    0    0  501    0  0.00000000000E+00  0.00000000000E+00  0.15185845705E+04  0.15185845705E+04  0.00000000000E+00 0. -1.
         -2   -1    0    0    0  501 -0.00000000000E+00 -0.00000000000E+00 -0.64777189523E+03  0.64777189523E+03  0.00000000000E+00 0.  1.
         23    2    1    2    0    0 -0.70147867995E+03  0.35020566028E+03  0.30657080579E+03  0.84689641387E+03  0.92366303118E+02 0.  0.
        254    2    1    2    0    0  0.70147867995E+03 -0.35020566028E+03  0.56424186952E+03  0.13194600519E+04  0.89882678995E+03 0.  0.
         23    2    4    4    0    0 -0.19768402405E+03 -0.12699395691E+03  0.52766334393E+02  0.25720353729E+03  0.90348962852E+02 0.  0.
         23    2    4    4    0    0  0.89916270401E+03 -0.22321170336E+03  0.51147553513E+03  0.10622565146E+04  0.92003516330E+02 0.  0.
          4    1    3    3  502    0 -0.24782965641E+03  0.17301061809E+03  0.12639942858E+03  0.32761109278E+03  0.00000000000E+00 0. -1.
         -4    1    3    3    0  502 -0.45364902354E+03  0.17719504219E+03  0.18017137721E+03  0.51928532109E+03  0.00000000000E+00 0.  1.
         11    1    5    5    0    0 -0.19093869827E+03 -0.94834528350E+02  0.25902284637E+02  0.21476057044E+03  0.00000000000E+00 0. -1.
        -11    1    5    5    0    0 -0.67453257788E+01 -0.32159428563E+02  0.26864049756E+02  0.42442966846E+02  0.00000000000E+00 0.  1.
          1    1    6    6  503    0  0.50741364880E+03 -0.16559471260E+03  0.32124633618E+03  0.62296824023E+03  0.00000000000E+00 0. -1.
         -1    1    6    6    0  503  0.39174905521E+03 -0.57616990767E+02  0.19022919896E+03  0.43928827439E+03  0.00000000000E+00 0.  1.
<mgrwt>
<rscale>  0 0.19836294E+04</rscale>
<asrwt>0</asrwt>
<pdfrwt beam="1">  1        2 0.23362839E+00 0.19836294E+04</pdfrwt>
<pdfrwt beam="2">  1       -2 0.99657215E-01 0.19836294E+04</pdfrwt>
<totfact> 0.96001965E+00</totfact>
</mgrwt>
</event>
<event>
12    2  0.8147979E-008  0.2147206E+04  0.7818608E-02  0.8540729E-01
          2   -1    0    0  501    0  0.00000000000E+00  0.00000000000E+00  0.40699342430E+04  0.40699342430E+04  0.00000000000E+00 0.  1.
         -2   -1    0    0    0  501 -0.00000000000E+00 -0.00000000000E+00 -0.28320439068E+03  0.28320439068E+03  0.00000000000E+00 0. -1.
         23    2    1    2    0    0 -0.59174737942E+02 -0.88111895965E+03  0.16519263261E+04  0.18752481246E+04  0.88445866361E+02 0.  0.
        254    2    1    2    0    0  0.59174737942E+02  0.88111895965E+03  0.21348035262E+04  0.24778905090E+04  0.89592578307E+03 0.  0.
         23    2    4    4    0    0 -0.10150971768E+03  0.20811826679E+03  0.15423862687E+04  0.15624510354E+04  0.93168665771E+02 0.  0.
         23    2    4    4    0    0  0.16068445563E+03  0.67300069287E+03  0.59241725741E+03  0.91543947362E+03  0.91223879021E+02 0.  0.
          4    1    3    3  502    0 -0.27429966808E+02 -0.35590312335E+03  0.76068562349E+03  0.84027498718E+03  0.00000000000E+00 0. -1.
         -4    1    3    3    0  502 -0.31744771134E+02 -0.52521583630E+03  0.89124070263E+03  0.10349731374E+04  0.00000000000E+00 0.  1.
         11    1    5    5    0    0 -0.28023326740E+02 -0.77380641165E+00  0.15856918809E+03  0.16102823675E+03  0.00000000000E+00 0.  1.
        -11    1    5    5    0    0 -0.73486390944E+02  0.20889207320E+03  0.13838170806E+04  0.14014227987E+04  0.00000000000E+00 0. -1.
          4    1    6    6  503    0  0.14484970763E+03  0.49478123711E+03  0.39864515184E+03  0.65169614659E+03  0.00000000000E+00 0. -1.
         -4    1    6    6    0  503  0.15834747997E+02  0.17821945576E+03  0.19377210558E+03  0.26374332703E+03  0.00000000000E+00 0.  1.
<mgrwt>
<rscale>  0 0.21472059E+04</rscale>
<asrwt>0</asrwt>
<pdfrwt beam="1">  1        2 0.62614369E+00 0.21472059E+04</pdfrwt>
<pdfrwt beam="2">  1       -2 0.43569909E-01 0.21472059E+04</pdfrwt>
<totfact> 0.13867698E+00</totfact>
</mgrwt>
</event>
<event>
12    2  0.8147979E-008  0.2446671E+04  0.7818608E-02  0.8422235E-01
          1   -1    0    0  501    0  0.00000000000E+00  0.00000000000E+00  0.14778342935E+04  0.14778342935E+04  0.00000000000E+00 0. -1.
         -1   -1    0    0    0  501 -0.00000000000E+00 -0.00000000000E+00 -0.10126638357E+04  0.10126638357E+04  0.00000000000E+00 0.  1.
         23    2    1    2    0    0 -0.96927952953E+02 -0.69842763498E+03  0.99979507278E+03  0.12267351726E+04  0.89960028400E+02 0.  0.
        254    2    1    2    0    0  0.96927952953E+02  0.69842763498E+03 -0.53462461498E+03  0.12637629566E+04  0.90226223577E+03 0.  0.
         23    2    4    4    0    0 -0.58772579985E+01 -0.82345421071E+01 -0.53744316831E+03  0.54393740735E+03  0.83188906144E+02 0.  0.
         23    2    4    4    0    0  0.10280521095E+03  0.70666217709E+03  0.28185533335E+01  0.71982554923E+03  0.90556795140E+02 0.  0.
          2    1    3    3  502    0 -0.32965247167E+02 -0.41940575362E+03  0.65675588361E+03  0.77994627016E+03  0.00000000000E+00 0. -1.
         -2    1    3    3    0  502 -0.63962705786E+02 -0.27902188136E+03  0.34303918918E+03  0.44678890242E+03  0.00000000000E+00 0.  1.
         11    1    5    5    0    0 -0.10723108566E+01 -0.33596260183E+02 -0.95532245819E+02  0.10127323704E+03  0.00000000000E+00 0.  1.
        -11    1    5    5    0    0 -0.48049471419E+01  0.25361718076E+02 -0.44191092249E+03  0.44266417031E+03  0.00000000000E+00 0. -1.
          2    1    6    6  503    0  0.33781734055E+02  0.45874048267E+03  0.30486216625E+02  0.46099180622E+03  0.00000000000E+00 0. -1.
         -2    1    6    6    0  503  0.69023476896E+02  0.24792169442E+03 -0.27667663292E+02  0.25883374300E+03  0.00000000000E+00 0.  1.
<mgrwt>
<rscale>  0 0.24466707E+04</rscale>
<asrwt>0</asrwt>
<pdfrwt beam="1">  1        1 0.22735912E+00 0.24466707E+04</pdfrwt>
<pdfrwt beam="2">  1       -1 0.15579444E+00 0.24466707E+04</pdfrwt>
<totfact> 0.19036034E+00</totfact>
</mgrwt>
</event>
<event>
12    2  0.8147979E-008  0.1898038E+04  0.7818608E-02  0.8655834E-01
         -1   -1    0    0    0  501 -0.00000000000E+00  0.00000000000E+00  0.70136001894E+03  0.70136001894E+03  0.00000000000E+00 0.  1.
          1   -1    0    0  501    0  0.00000000000E+00 -0.00000000000E+00 -0.12841294919E+04  0.12841294919E+04  0.00000000000E+00 0. -1.
         23    2    1    2    0    0 -0.34378954493E+03  0.14051454410E+02 -0.90278853448E+03  0.97065204963E+03  0.93539130198E+02 0.  0.
        254    2    1    2    0    0  0.34378954493E+03 -0.14051454410E+02  0.32001906148E+03  0.10148374612E+04  0.89949662505E+03 0.  0.
         23    2    4    4    0    0  0.71344266810E+02  0.40039941532E+03  0.29427786891E+03  0.51016749258E+03  0.90893950065E+02 0.  0.
         23    2    4    4    0    0  0.27244527812E+03 -0.41445086973E+03  0.25741192569E+02  0.50466996867E+03  0.89628205909E+02 0.  0.
          3    1    3    3  502    0 -0.83219379793E+02 -0.47330132441E+01 -0.12570438436E+03  0.15082923734E+03  0.00000000000E+00 0.  1.
         -3    1    3    3    0  502 -0.26057016514E+03  0.18784467654E+02 -0.77708415012E+03  0.81982281229E+03  0.00000000000E+00 0. -1.
         11    1    5    5    0    0  0.92199760911E+02  0.29924171135E+03  0.21239686384E+03  0.37836335115E+03  0.00000000000E+00 0.  1.
        -11    1    5    5    0    0 -0.20855494101E+02  0.10115770397E+03  0.81881005071E+02  0.13180414143E+03  0.00000000000E+00 0. -1.
          3    1    6    6  503    0 -0.32701921062E+01 -0.22687080624E+02 -0.83597328721E+01  0.24398420386E+02  0.00000000000E+00 0. -1.
         -3    1    6    6    0  503  0.27571547022E+03 -0.39176378910E+03  0.34100925441E+02  0.48027154828E+03  0.00000000000E+00 0.  1.
<mgrwt>
<rscale>  0 0.18980380E+04</rscale>
<asrwt>0</asrwt>
<pdfrwt beam="1">  1        1 0.19755838E+00 0.18980380E+04</pdfrwt>
<pdfrwt beam="2">  1       -1 0.10790154E+00 0.18980380E+04</pdfrwt>
<totfact> 0.69404656E+00</totfact>
</mgrwt>
</event>
<event>
12    2  0.8147979E-008  0.1442354E+04  0.7818608E-02  0.8923719E-01
         -1   -1    0    0    0  501 -0.00000000000E+00  0.00000000000E+00  0.31159951357E+03  0.31159951357E+03  0.00000000000E+00 0.  1.
          1   -1    0    0  501    0  0.00000000000E+00 -0.00000000000E+00 -0.16691173040E+04  0.16691173040E+04  0.00000000000E+00 0. -1.
         23    2    1    2    0    0  0.37686139000E+01  0.42529194775E+03 -0.53650035048E+03  0.69057026141E+03  0.90372654121E+02 0.  0.
        254    2    1    2    0    0 -0.37686139000E+01 -0.42529194775E+03 -0.82101743993E+03  0.12901465561E+04  0.89973388086E+03 0.  0.
         23    2    4    4    0    0  0.41520544338E+02 -0.69302275016E+03 -0.65796793283E+03  0.96090245820E+03  0.91691033946E+02 0.  0.
         23    2    4    4    0    0 -0.45289158238E+02  0.26773080241E+03 -0.16304950710E+03  0.32924409793E+03  0.89920208184E+02 0.  0.
          2    1    3    3  502    0 -0.20430096718E+02  0.17466077582E+03 -0.28359398773E+03  0.33369046336E+03  0.00000000000E+00 0. -1.
         -2    1    3    3    0  502  0.24198710618E+02  0.25063117193E+03 -0.25290636275E+03  0.35687979805E+03  0.00000000000E+00 0.  1.
         11    1    5    5    0    0 -0.99574183080E+01 -0.70482538295E+01 -0.14587420909E+02  0.19016332722E+02  0.00000000000E+00 0. -1.
        -11    1    5    5    0    0  0.51477962646E+02 -0.68597449633E+03 -0.64338051192E+03  0.94188612548E+03  0.00000000000E+00 0.  1.
          1    1    6    6  503    0 -0.36159617491E+02  0.98149565526E+02 -0.10889158895E+03  0.15099083844E+03  0.00000000000E+00 0. -1.
         -1    1    6    6    0  503 -0.91295407466E+01  0.16958123689E+03 -0.54157918152E+02  0.17825325949E+03  0.00000000000E+00 0.  1.
<mgrwt>
<rscale>  0 0.14423538E+04</rscale>
<asrwt>0</asrwt>
<pdfrwt beam="1">  1        1 0.25678728E+00 0.14423538E+04</pdfrwt>
<pdfrwt beam="2">  1       -1 0.47938387E-01 0.14423538E+04</pdfrwt>
<totfact> 0.21143174E+01</totfact>
</mgrwt>
</event>
<event>
12    2  0.8147979E-008  0.1848807E+04  0.7818608E-02  0.8680767E-01
         -2   -1    0    0    0  501 -0.00000000000E+00  0.00000000000E+00  0.78416007042E+03  0.78416007042E+03  0.00000000000E+00 0.  1.
          2   -1    0    0  501    0  0.00000000000E+00 -0.00000000000E+00 -0.10897288461E+04  0.10897288461E+04  0.00000000000E+00 0. -1.
         23    2    1    2    0    0 -0.22154654828E+02 -0.42753793560E+03  0.44750153840E+03  0.62596932093E+03  0.91106798634E+02 0.  0.
        254    2    1    2    0    0  0.22154654828E+02  0.42753793560E+03 -0.75307031407E+03  0.12479195956E+04  0.89828108295E+03 0.  0.
         23    2    4    4    0    0  0.34914104181E+03  0.44367741672E+03 -0.69786748843E+03  0.90216644699E+03  0.90200606892E+02 0.  0.
         23    2    4    4    0    0 -0.32698638698E+03 -0.16139481119E+02 -0.55202825635E+02  0.34575314858E+03  0.96526202017E+02 0.  0.
          3    1    3    3  502    0 -0.31184619081E+02 -0.36999546428E+03  0.33880865345E+03  0.50265338725E+03  0.00000000000E+00 0. -1.
         -3    1    3    3    0  502  0.90299642534E+01 -0.57542471321E+02  0.10869288495E+03  0.12331593368E+03  0.00000000000E+00 0.  1.
         11    1    5    5    0    0  0.19011936622E+03  0.25446710017E+03 -0.46092590685E+03  0.55977814363E+03  0.00000000000E+00 0.  1.
        -11    1    5    5    0    0  0.15902167558E+03  0.18921031655E+03 -0.23694158158E+03  0.34238830336E+03  0.00000000000E+00 0. -1.
          2    1    6    6  503    0 -0.17561277953E+03 -0.30990745020E+02 -0.72849259749E+02  0.19263252389E+03  0.00000000000E+00 0. -1.
         -2    1    6    6    0  503 -0.15137360745E+03  0.14851263901E+02  0.17646434114E+02  0.15312062470E+03  0.00000000000E+00 0.  1.
<mgrwt>
<rscale>  0 0.18488070E+04</rscale>
<asrwt>0</asrwt>
<pdfrwt beam="1">  1        2 0.16765059E+00 0.18488070E+04</pdfrwt>
<pdfrwt beam="2">  1       -2 0.12064001E+00 0.18488070E+04</pdfrwt>
<totfact> 0.10895461E+01</totfact>
</mgrwt>
</event>
<event>
12    2  0.8147979E-008  0.3812499E+04  0.7818608E-02  0.8043478E-01
          2   -1    0    0  501    0  0.00000000000E+00  0.00000000000E+00  0.25943033733E+04  0.25943033733E+04  0.00000000000E+00 0. -1.
         -2   -1    0    0    0  501 -0.00000000000E+00 -0.00000000000E+00 -0.14006793817E+04  0.14006793817E+04  0.00000000000E+00 0.  1.
         23    2    1    2    0    0  0.10635134239E+04  0.14318810557E+04  0.31068548757E+03  0.18127752332E+04  0.91018752975E+02 0.  0.
        254    2    1    2    0    0 -0.10635134239E+04 -0.14318810557E+04  0.88293850407E+03  0.21822075219E+04  0.89504475083E+03 0.  0.
         23    2    4    4    0    0 -0.76821813173E+03 -0.33034941646E+03  0.48307948110E+03  0.97002527079E+03  0.91068139437E+02 0.  0.
         23    2    4    4    0    0 -0.29529529219E+03 -0.11015316392E+04  0.39985902297E+03  0.12121822511E+04  0.94484441939E+02 0.  0.
          2    1    3    3  502    0  0.64014427649E+03  0.82492145463E+03  0.22141654474E+03  0.10673824934E+04  0.00000000000E+00 0. -1.
         -2    1    3    3    0  502  0.42336914743E+03  0.60695960105E+03  0.89268942829E+02  0.74539273974E+03  0.00000000000E+00 0.  1.
         11    1    5    5    0    0 -0.49692747904E+03 -0.19581191156E+03  0.35441410105E+03  0.64100591195E+03  0.00000000000E+00 0. -1.
        -11    1    5    5    0    0 -0.27129065269E+03 -0.13453750490E+03  0.12866538005E+03  0.32901935883E+03  0.00000000000E+00 0.  1.
          4    1    6    6  503    0 -0.27998480856E+03 -0.10099242985E+04  0.34044397559E+03  0.11019258968E+04  0.00000000000E+00 0. -1.
         -4    1    6    6    0  503 -0.15310483628E+02 -0.91607340768E+02  0.59415047376E+02  0.11025635422E+03  0.00000000000E+00 0.  1.
<mgrwt>
<rscale>  0 0.38124990E+04</rscale>
<asrwt>0</asrwt>
<pdfrwt beam="1">  1        2 0.39912359E+00 0.38124990E+04</pdfrwt>
<pdfrwt beam="2">  1       -2 0.21548914E+00 0.38124990E+04</pdfrwt>
<totfact> 0.25934689E-01</totfact>
</mgrwt>
</event>
<event>
12    2  0.8147979E-008  0.1711039E+04  0.7818608E-02  0.8755093E-01
         -3   -1    0    0    0  501 -0.00000000000E+00  0.00000000000E+00  0.12649805612E+04  0.12649805612E+04  0.00000000000E+00 0.  1.
          3   -1    0    0  501    0  0.00000000000E+00 -0.00000000000E+00 -0.57859677888E+03  0.57859677888E+03  0.00000000000E+00 0. -1.
         23    2    1    2    0    0  0.76338215142E+02 -0.60433981671E+03  0.33467504303E+03  0.70096803096E+03  0.91075017719E+02 0.  0.
        254    2    1    2    0    0 -0.76338215142E+02  0.60433981671E+03  0.35170873930E+03  0.11426093091E+04  0.90044592222E+03 0.  0.
         23    2    4    4    0    0  0.21681541856E+03  0.57862487840E+03 -0.60928864604E+02  0.62764863182E+03  0.91732234522E+02 0.  0.
         23    2    4    4    0    0 -0.29315363371E+03  0.25714938305E+02  0.41263760390E+03  0.51496067730E+03  0.91183309917E+02 0.  0.
          4    1    3    3  502    0 -0.16457668477E+02 -0.19727759146E+03  0.12017491131E+03  0.23158435235E+03  0.00000000000E+00 0. -1.
         -4    1    3    3    0  502  0.92795883619E+02 -0.40706222525E+03  0.21450013172E+03  0.46938367861E+03  0.00000000000E+00 0.  1.
         11    1    5    5    0    0 -0.76649046756E+01  0.10189779654E+02  0.31785671013E+01  0.13140991664E+02  0.00000000000E+00 0. -1.
        -11    1    5    5    0    0  0.22448032324E+03  0.56843509875E+03 -0.64107431706E+02  0.61450764016E+03  0.00000000000E+00 0.  1.
          1    1    6    6  503    0 -0.18057457122E+03 -0.16257242454E+02  0.29845996831E+03  0.34921315322E+03  0.00000000000E+00 0. -1.
         -1    1    6    6    0  503 -0.11257906249E+03  0.41972180759E+02  0.11417763560E+03  0.16574752408E+03  0.00000000000E+00 0.  1.
<mgrwt>
<rscale>  0 0.17110391E+04</rscale>
<asrwt>0</asrwt>
<pdfrwt beam="1">  1        3 0.89014889E-01 0.17110391E+04</pdfrwt>
<pdfrwt beam="2">  1       -3 0.19461239E+00 0.17110391E+04</pdfrwt>
<totfact> 0.45112613E-01</totfact>
</mgrwt>
</event>
<event>
12    2  0.8147979E-008  0.2647804E+04  0.7818608E-02  0.8352142E-01
          2   -1    0    0  501    0  0.00000000000E+00  0.00000000000E+00  0.15479277271E+04  0.15479277271E+04  0.00000000000E+00 0. -1.
         -2   -1    0    0    0  501 -0.00000000000E+00 -0.00000000000E+00 -0.11322989539E+04  0.11322989539E+04  0.00000000000E+00 0.  1.
         23    2    1    2    0    0  0.85023224763E+03 -0.57859107344E+03  0.74513933651E+03  0.12732012622E+04  0.90256955626E+02 0.  0.
        254    2    1    2    0    0 -0.85023224763E+03  0.57859107344E+03 -0.32951056333E+03  0.14070254188E+04  0.90193171175E+03 0.  0.
         23    2    4    4    0    0  0.42135124140E+02 -0.14166464839E+03 -0.17516593665E+03  0.24627947043E+03  0.90145609436E+02 0.  0.
         23    2    4    4    0    0 -0.89236737177E+03  0.72025572183E+03 -0.15434462668E+03  0.11607459484E+04  0.91766343912E+02 0.  0.
          3    1    3    3  502    0  0.38511311796E+03 -0.20970845793E+03  0.32988605861E+03  0.54873906606E+03  0.00000000000E+00 0. -1.
         -3    1    3    3    0  502  0.46511912966E+03 -0.36888261551E+03  0.41525327790E+03  0.72446219612E+03  0.00000000000E+00 0.  1.
         11    1    5    5    0    0 -0.81776872858E+01 -0.10997917277E+03 -0.13593468546E+03  0.17504437073E+03  0.00000000000E+00 0. -1.
        -11    1    5    5    0    0  0.50312811426E+02 -0.31685475623E+02 -0.39231251187E+02  0.71235099696E+02  0.00000000000E+00 0.  1.
          1    1    6    6  503    0 -0.14921316019E+03  0.15649582831E+03 -0.51676518638E+02  0.22231953137E+03  0.00000000000E+00 0. -1.
         -1    1    6    6    0  503 -0.74315421158E+03  0.56375989352E+03 -0.10266810805E+03  0.93842641701E+03  0.00000000000E+00 0.  1.
<mgrwt>
<rscale>  0 0.26478043E+04</rscale>
<asrwt>0</asrwt>
<pdfrwt beam="1">  1        2 0.23814273E+00 0.26478043E+04</pdfrwt>
<pdfrwt beam="2">  1       -2 0.17419984E+00 0.26478043E+04</pdfrwt>
<totfact> 0.20921677E+00</totfact>
</mgrwt>
</event>
<event>
12    2  0.8147979E-008  0.2070786E+04  0.7818608E-02  0.8574223E-01
         -1   -1    0    0    0  501 -0.00000000000E+00  0.00000000000E+00  0.82186910364E+03  0.82186910364E+03  0.00000000000E+00 0.  1.
          1   -1    0    0  501    0  0.00000000000E+00 -0.00000000000E+00 -0.13043908549E+04  0.13043908549E+04  0.00000000000E+00 0. -1.
         23    2    1    2    0    0  0.73931099510E+02 -0.82078022525E+03 -0.34929420847E+03  0.90015623840E+03  0.95544878587E+02 0.  0.
        254    2    1    2    0    0 -0.73931099510E+02  0.82078022525E+03 -0.13322754274E+03  0.12261037201E+04  0.89801713160E+03 0.  0.
         23    2    4    4    0    0 -0.37300308668E+03  0.57406351597E+02 -0.96706887648E+02  0.40000275388E+03  0.90681801431E+02 0.  0.
         23    2    4    4    0    0  0.29907198717E+03  0.76337387365E+03 -0.36520655093E+02  0.82610096622E+03  0.94473931050E+02 0.  0.
          3    1    3    3  502    0  0.91162265815E+02 -0.56158788509E+03 -0.25932296816E+03  0.62525187981E+03  0.00000000000E+00 0. -1.
         -3    1    3    3    0  502 -0.17231166305E+02 -0.25919234016E+03 -0.89971240307E+02  0.27490435859E+03  0.00000000000E+00 0.  1.
         11    1    5    5    0    0 -0.25419293199E+03  0.64977106682E+02 -0.31463610168E+02  0.26424615386E+03  0.00000000000E+00 0. -1.
        -11    1    5    5    0    0 -0.11881015469E+03 -0.75707550852E+01 -0.65243277480E+02  0.13575660001E+03  0.00000000000E+00 0.  1.
          4    1    6    6  503    0  0.21109112626E+03  0.52099297036E+03 -0.68416770834E+02  0.56628084312E+03  0.00000000000E+00 0. -1.
         -4    1    6    6    0  503  0.87980860917E+02  0.24238090329E+03  0.31896115741E+02  0.25982012310E+03  0.00000000000E+00 0.  1.
<mgrwt>
<rscale>  0 0.20707859E+04</rscale>
<asrwt>0</asrwt>
<pdfrwt beam="1">  1        1 0.20067552E+00 0.20707859E+04</pdfrwt>
<pdfrwt beam="2">  1       -1 0.12644140E+00 0.20707859E+04</pdfrwt>
<totfact> 0.45032127E+00</totfact>
</mgrwt>
</event>
<event>
12    2  0.8147979E-008  0.2657917E+04  0.7818608E-02  0.8348790E-01
          1   -1    0    0  501    0  0.00000000000E+00  0.00000000000E+00  0.17866137630E+04  0.17866137630E+04  0.00000000000E+00 0. -1.
         -1   -1    0    0    0  501 -0.00000000000E+00 -0.00000000000E+00 -0.98853542342E+03  0.98853542342E+03  0.00000000000E+00 0.  1.
         23    2    1    2    0    0 -0.10140684125E+04  0.51793018382E+03  0.65201396475E+03  0.13153555814E+04  0.91932990100E+02 0.  0.
        254    2    1    2    0    0  0.10140684125E+04 -0.51793018382E+03  0.14606437481E+03  0.14597936050E+04  0.90170735119E+03 0.  0.
         23    2    4    4    0    0 -0.45578713001E+02 -0.27478389490E+03 -0.15094108484E+03  0.32913472955E+03  0.89234808955E+02 0.  0.
         23    2    4    4    0    0  0.10596471255E+04 -0.24314628892E+03  0.29700545965E+03  0.11306588755E+04  0.90582014069E+02 0.  0.
          1    1    3    3  502    0 -0.92658448972E+03  0.50010511772E+03  0.59487186777E+03  0.12093537466E+04  0.00000000000E+00 0. -1.
         -1    1    3    3    0  502 -0.87483922775E+02  0.17825066097E+02  0.57142096980E+02  0.10600183476E+03  0.00000000000E+00 0.  1.
         11    1    5    5    0    0 -0.54067858169E+02 -0.83588622000E+02 -0.67957512787E+02  0.12053470272E+03  0.00000000000E+00 0. -1.
        -11    1    5    5    0    0  0.84891451685E+01 -0.19119527290E+03 -0.82983572053E+02  0.20860002683E+03  0.00000000000E+00 0.  1.
          4    1    6    6  503    0  0.49832887225E+03 -0.15142353536E+03  0.11376714858E+03  0.53310760272E+03  0.00000000000E+00 0. -1.
         -4    1    6    6    0  503  0.56131825325E+03 -0.91722753560E+02  0.18323831106E+03  0.59755127277E+03  0.00000000000E+00 0.  1.
<mgrwt>
<rscale>  0 0.26579172E+04</rscale>
<asrwt>0</asrwt>
<pdfrwt beam="1">  1        1 0.27486366E+00 0.26579172E+04</pdfrwt>
<pdfrwt beam="2">  1       -1 0.15208237E+00 0.26579172E+04</pdfrwt>
<totfact> 0.12253773E+00</totfact>
</mgrwt>
</event>
<event>
12    2  0.8147979E-008  0.1339903E+04  0.7818608E-02  0.8998507E-01
          1   -1    0    0  501    0  0.00000000000E+00  0.00000000000E+00  0.85185535159E+03  0.85185535159E+03  0.00000000000E+00 0. -1.
         -1   -1    0    0    0  501 -0.00000000000E+00 -0.00000000000E+00 -0.52689098143E+03  0.52689098143E+03  0.00000000000E+00 0.  1.
         23    2    1    2    0    0  0.13330671585E+03 -0.27409758902E+03 -0.10727555291E+03  0.33485211186E+03  0.87850576375E+02 0.  0.
        254    2    1    2    0    0 -0.13330671585E+03  0.27409758902E+03  0.43223992308E+03  0.10438942212E+04  0.89999090277E+03 0.  0.
         23    2    4    4    0    0 -0.86212968383E+02 -0.32014076694E+03  0.20586182249E+03  0.40067330534E+03  0.90759137761E+02 0.  0.
         23    2    4    4    0    0 -0.47093747465E+02  0.59423835596E+03  0.22637810059E+03  0.64322091582E+03  0.84552098601E+02 0.  0.
          4    1    3    3  502    0  0.73048354950E+02 -0.79282404781E+02 -0.81425690557E+01  0.10811134677E+03  0.00000000000E+00 0. -1.
         -4    1    3    3    0  502  0.60258360898E+02 -0.19481518424E+03 -0.99132983857E+02  0.22674076510E+03  0.00000000000E+00 0.  1.
         11    1    5    5    0    0 -0.19768852425E+02 -0.28428324786E+02 -0.45277344078E+01  0.34921018817E+02  0.00000000000E+00 0. -1.
        -11    1    5    5    0    0 -0.66444115958E+02 -0.29171244215E+03  0.21038955689E+03  0.36575228653E+03  0.00000000000E+00 0.  1.
          3    1    6    6  503    0  0.13711216808E+02  0.67669613032E+02  0.47412777205E+02  0.83756465043E+02  0.00000000000E+00 0. -1.
         -3    1    6    6    0  503 -0.60804964273E+02  0.52656874292E+03  0.17896532338E+03  0.55946445077E+03  0.00000000000E+00 0.  1.
<mgrwt>
<rscale>  0 0.13399028E+04</rscale>
<asrwt>0</asrwt>
<pdfrwt beam="1">  1        1 0.13105467E+00 0.13399028E+04</pdfrwt>
<pdfrwt beam="2">  1       -1 0.81060151E-01 0.13399028E+04</pdfrwt>
<totfact> 0.29658043E+01</totfact>
</mgrwt>
</event>
<event>
12    2  0.8147979E-008  0.2268269E+04  0.7818608E-02  0.8490538E-01
         -1   -1    0    0    0  501 -0.00000000000E+00  0.00000000000E+00  0.62080192772E+03  0.62080192772E+03  0.00000000000E+00 0.  1.
          1   -1    0    0  501    0  0.00000000000E+00 -0.00000000000E+00 -0.20719342477E+04  0.20719342477E+04  0.00000000000E+00 0. -1.
         23    2    1    2    0    0 -0.86689116022E+03  0.22866390503E+03 -0.99209605988E+03  0.13415557081E+04  0.10830355845E+03 0.  0.
        254    2    1    2    0    0  0.86689116022E+03 -0.22866390503E+03 -0.45903626015E+03  0.13511804674E+04  0.90065914870E+03 0.  0.
         23    2    4    4    0    0  0.10316052264E+04 -0.95941962731E+02 -0.38952618232E+03  0.11108210076E+04  0.93693440715E+02 0.  0.
         23    2    4    4    0    0 -0.16471406617E+03 -0.13272194230E+03 -0.69510077831E+02  0.24035945979E+03  0.90527241353E+02 0.  0.
          3    1    3    3  502    0 -0.59542830410E+03  0.17966569047E+03 -0.75186045652E+03  0.97576061190E+03  0.00000000000E+00 0. -1.
         -3    1    3    3    0  502 -0.27146285612E+03  0.48998214563E+02 -0.24023560336E+03  0.36579509620E+03  0.00000000000E+00 0.  1.
         11    1    5    5    0    0  0.28155047408E+03  0.69712675551E+01 -0.78787208804E+02  0.29244946964E+03  0.00000000000E+00 0. -1.
        -11    1    5    5    0    0  0.75005475231E+03 -0.10291323029E+03 -0.31073897352E+03  0.81837153793E+03  0.00000000000E+00 0.  1.
          3    1    6    6  503    0 -0.12382765555E+03 -0.12418235525E+03 -0.21436332307E+02  0.17667501798E+03  0.00000000000E+00 0. -1.
         -3    1    6    6    0  503 -0.40886410621E+02 -0.85395870565E+01 -0.48073745524E+02  0.63684441815E+02  0.00000000000E+00 0.  1.
<mgrwt>
<rscale>  0 0.22682687E+04</rscale>
<asrwt>0</asrwt>
<pdfrwt beam="1">  1        1 0.31875911E+00 0.22682687E+04</pdfrwt>
<pdfrwt beam="2">  1       -1 0.95507990E-01 0.22682687E+04</pdfrwt>
<totfact> 0.25530006E+00</totfact>
</mgrwt>
</event>
<event>
12    2  0.8147979E-008  0.1322431E+04  0.7818608E-02  0.9011964E-01
          2   -1    0    0  501    0  0.00000000000E+00  0.00000000000E+00  0.30171539449E+04  0.30171539449E+04  0.00000000000E+00 0. -1.
         -2   -1    0    0    0  501 -0.00000000000E+00 -0.00000000000E+00 -0.14490677240E+03  0.14490677240E+03  0.00000000000E+00 0.  1.
         23    2    1    2    0    0 -0.26802240371E+03 -0.14273859381E+02  0.25028726207E+03  0.37754592352E+03  0.88642308514E+02 0.  0.
        254    2    1    2    0    0  0.26802240371E+03  0.14273859381E+02  0.26219599104E+04  0.27845147937E+04  0.89822553563E+03 0.  0.
         23    2    4    4    0    0 -0.89559365010E+01  0.39425449324E+03  0.74236364759E+03  0.84486862086E+03  0.84748964664E+02 0.  0.
         23    2    4    4    0    0  0.27697834022E+03 -0.37998063385E+03  0.18795962628E+04  0.19396461729E+04  0.90790317531E+02 0.  0.
          2    1    3    3  502    0  0.71158394818E+01  0.26993442242E+00  0.56595468148E+01  0.90960709250E+01  0.00000000000E+00 0. -1.
         -2    1    3    3    0  502 -0.27513824320E+03 -0.14543793804E+02  0.24462771525E+03  0.36844985260E+03  0.00000000000E+00 0.  1.
         11    1    5    5    0    0  0.32909925755E+02  0.27448954588E+03  0.50380654578E+03  0.57467261078E+03  0.00000000000E+00 0.  1.
        -11    1    5    5    0    0 -0.41865862256E+02  0.11976494736E+03  0.23855710181E+03  0.27019601008E+03  0.00000000000E+00 0. -1.
          1    1    6    6  503    0  0.72798224872E+02 -0.17248036928E+03  0.68979221557E+03  0.71474636060E+03  0.00000000000E+00 0. -1.
         -1    1    6    6    0  503  0.20418011534E+03 -0.20750026458E+03  0.11898040472E+04  0.12248998123E+04  0.00000000000E+00 0.  1.
<mgrwt>
<rscale>  0 0.13224312E+04</rscale>
<asrwt>0</asrwt>
<pdfrwt beam="1">  1        2 0.46417748E+00 0.13224312E+04</pdfrwt>
<pdfrwt beam="2">  1       -2 0.22293352E-01 0.13224312E+04</pdfrwt>
<totfact> 0.29639403E+01</totfact>
</mgrwt>
</event>
<event>
12    2  0.8147979E-008  0.4322861E+04  0.7818608E-02  0.7942404E-01
         -2   -1    0    0    0  501 -0.00000000000E+00  0.00000000000E+00  0.17045957165E+04  0.17045957165E+04  0.00000000000E+00 0.  1.
          2   -1    0    0  501    0  0.00000000000E+00 -0.00000000000E+00 -0.27406978487E+04  0.27406978487E+04  0.00000000000E+00 0. -1.
         23    2    1    2    0    0  0.14346877549E+04  0.18047914693E+03  0.10224816274E+04  0.17729765605E+04  0.84116166236E+02 0.  0.
        254    2    1    2    0    0 -0.14346877549E+04 -0.18047914693E+03 -0.20585837596E+04  0.26723170047E+04  0.90144850200E+03 0.  0.
         23    2    4    4    0    0 -0.12593609013E+04 -0.15450425095E+03 -0.10653162933E+04  0.16591674422E+04  0.89868533435E+02 0.  0.
         23    2    4    4    0    0 -0.17532685357E+03 -0.25974895982E+02 -0.99326746627E+03  0.10131495624E+04  0.92073750337E+02 0.  0.
          4    1    3    3  502    0  0.49096124966E+03  0.71157451881E+02  0.30373474916E+03  0.58168817202E+03  0.00000000000E+00 0. -1.
         -4    1    3    3    0  502  0.94372650520E+03  0.10932169505E+03  0.71874687824E+03  0.11912883885E+04  0.00000000000E+00 0.  1.
         11    1    5    5    0    0 -0.10008918780E+04 -0.96812453128E+02 -0.87616516196E+03  0.13337250817E+04  0.00000000000E+00 0. -1.
        -11    1    5    5    0    0 -0.25846902328E+03 -0.57691797823E+02 -0.18915113138E+03  0.32544236054E+03  0.00000000000E+00 0.  1.
          4    1    6    6  503    0 -0.14405642706E+03 -0.47299462789E+02 -0.89671624228E+03  0.90944461762E+03  0.00000000000E+00 0. -1.
         -4    1    6    6    0  503 -0.31270426505E+02  0.21324566807E+02 -0.96551223990E+02  0.10370494481E+03  0.00000000000E+00 0.  1.
<mgrwt>
<rscale>  0 0.43228610E+04</rscale>
<asrwt>0</asrwt>
<pdfrwt beam="1">  1        2 0.42164582E+00 0.43228610E+04</pdfrwt>
<pdfrwt beam="2">  1       -2 0.26224550E+00 0.43228610E+04</pdfrwt>
<totfact> 0.10430038E-01</totfact>
</mgrwt>
</event>
<event>
12    2  0.8147979E-008  0.1035044E+04  0.7818608E-02  0.9270922E-01
          2   -1    0    0  501    0  0.00000000000E+00  0.00000000000E+00  0.23863082842E+04  0.23863082842E+04  0.00000000000E+00 0. -1.
         -2   -1    0    0    0  501 -0.00000000000E+00 -0.00000000000E+00 -0.11223578621E+03  0.11223578621E+03  0.00000000000E+00 0.  1.
         23    2    1    2    0    0 -0.42472482646E+02 -0.75731806965E+02  0.36730980926E+03  0.38817903662E+03  0.90704190219E+02 0.  0.
        254    2    1    2    0    0  0.42472482646E+02  0.75731806965E+02  0.19067626888E+04  0.21103650338E+04  0.90019853720E+03 0.  0.
         23    2    4    4    0    0  0.11304101249E+03  0.69001058967E+02 -0.36060033902E+02  0.16408201546E+03  0.89906424182E+02 0.  0.
         23    2    4    4    0    0 -0.70568529847E+02  0.67307479976E+01  0.19428227227E+04  0.19462830184E+04  0.91827204586E+02 0.  0.
          2    1    3    3  502    0  0.24077908126E+02 -0.30684197403E+02  0.18301166936E+03  0.18712171641E+03  0.00000000000E+00 0. -1.
         -2    1    3    3    0  502 -0.66550390772E+02 -0.45047609562E+02  0.18429813990E+03  0.20105732021E+03  0.00000000000E+00 0.  1.
         11    1    5    5    0    0  0.90255614786E+02  0.82408803538E+02 -0.52427036720E+02  0.13298827422E+03  0.00000000000E+00 0.  1.
        -11    1    5    5    0    0  0.22785397708E+02 -0.13407744571E+02  0.16367002818E+02  0.31093741242E+02  0.00000000000E+00 0. -1.
          1    1    6    6  503    0  0.87221424959E+01  0.15238651868E+02  0.87340400264E+02  0.89087809485E+02  0.00000000000E+00 0. -1.
         -1    1    6    6    0  503 -0.79290672343E+02 -0.85079038703E+01  0.18554823224E+04  0.18571952089E+04  0.00000000000E+00 0.  1.
<mgrwt>
<rscale>  0 0.10350443E+04</rscale>
<asrwt>0</asrwt>
<pdfrwt beam="1">  1        2 0.36712431E+00 0.10350443E+04</pdfrwt>
<pdfrwt beam="2">  1       -2 0.17267046E-01 0.10350443E+04</pdfrwt>
<totfact> 0.11235031E+02</totfact>
</mgrwt>
</event>
<event>
12    2  0.8147979E-008  0.2734362E+04  0.7818608E-02  0.8323941E-01
          1   -1    0    0  501    0  0.00000000000E+00  0.00000000000E+00  0.16236461926E+04  0.16236461926E+04  0.00000000000E+00 0. -1.
         -1   -1    0    0    0  501 -0.00000000000E+00 -0.00000000000E+00 -0.11512259194E+04  0.11512259194E+04  0.00000000000E+00 0.  1.
         23    2    1    2    0    0  0.14401394431E+03  0.97477292477E+03  0.93562691751E+03  0.13619955817E+04  0.93337905972E+02 0.  0.
        254    2    1    2    0    0 -0.14401394431E+03 -0.97477292477E+03 -0.46320664422E+03  0.14128765303E+04  0.90040958661E+03 0.  0.
         23    2    4    4    0    0 -0.15565364021E+03  0.10276239116E+03  0.52921477748E+02  0.21481627868E+03  0.92505059488E+02 0.  0.
         23    2    4    4    0    0  0.11639695901E+02 -0.10775353159E+04 -0.51612812197E+03  0.11980602516E+04  0.87990276111E+02 0.  0.
          1    1    3    3  502    0  0.71888124262E+02  0.45429089164E+03  0.50073508894E+03  0.67991451370E+03  0.00000000000E+00 0. -1.
         -1    1    3    3    0  502  0.72125820046E+02  0.52048203313E+03  0.43489182857E+03  0.68208106797E+03  0.00000000000E+00 0.  1.
         11    1    5    5    0    0 -0.74006666819E+02  0.23640954155E+02  0.63899046178E+02  0.10059308897E+03  0.00000000000E+00 0. -1.
        -11    1    5    5    0    0 -0.81646973390E+02  0.79121437004E+02 -0.10977568430E+02  0.11422318970E+03  0.00000000000E+00 0.  1.
          1    1    6    6  503    0 -0.33984285912E+02 -0.30871386240E+03 -0.16373178329E+03  0.35109439954E+03  0.00000000000E+00 0. -1.
         -1    1    6    6    0  503  0.45623981813E+02 -0.76882145353E+03 -0.35239633868E+03  0.84696585211E+03  0.00000000000E+00 0.  1.
<mgrwt>
<rscale>  0 0.27343618E+04</rscale>
<asrwt>0</asrwt>
<pdfrwt beam="1">  1        1 0.24979172E+00 0.27343618E+04</pdfrwt>
<pdfrwt beam="2">  1       -1 0.17711168E+00 0.27343618E+04</pdfrwt>
<totfact> 0.10218282E+00</totfact>
</mgrwt>
</event>
<event>
12    2  0.8147979E-008  0.2106602E+04  0.7818608E-02  0.8558341E-01
          3   -1    0    0  501    0  0.00000000000E+00  0.00000000000E+00  0.20097829634E+04  0.20097829634E+04  0.00000000000E+00 0. -1.
         -3   -1    0    0    0  501 -0.00000000000E+00 -0.00000000000E+00 -0.55202133140E+03  0.55202133140E+03  0.00000000000E+00 0.  1.
         23    2    1    2    0    0 -0.56166401869E+02 -0.84688601696E+03  0.75373215626E+03  0.11392178718E+04  0.96615762621E+02 0.  0.
        254    2    1    2    0    0  0.56166401869E+02  0.84688601696E+03  0.70402947579E+03  0.14225864231E+04  0.89873468715E+03 0.  0.
         23    2    4    4    0    0  0.16515105204E+03 -0.28622399686E+02  0.46711745409E+03  0.50450410980E+03  0.90727995298E+02 0.  0.
         23    2    4    4    0    0 -0.10898465017E+03  0.87550841665E+03  0.23691202170E+03  0.91808231327E+03  0.91406708278E+02 0.  0.
          3    1    3    3  502    0 -0.24764641461E+01 -0.25692716032E+03  0.28569928919E+03  0.38424182806E+03  0.00000000000E+00 0. -1.
         -3    1    3    3    0  502 -0.53689937723E+02 -0.58995885664E+03  0.46803286707E+03  0.75497604373E+03  0.00000000000E+00 0.  1.
         11    1    5    5    0    0  0.16237897512E+03 -0.48530505432E+02  0.43179322999E+03  0.46386154721E+03  0.00000000000E+00 0.  1.
        -11    1    5    5    0    0  0.27720769155E+01  0.19908105746E+02  0.35324224108E+02  0.40642562587E+02  0.00000000000E+00 0. -1.
          3    1    6    6  503    0 -0.12561718629E+02  0.44128453980E+03  0.99467899613E+02  0.45253033589E+03  0.00000000000E+00 0. -1.
         -3    1    6    6    0  503 -0.96422931539E+02  0.43422387684E+03  0.13744412208E+03  0.46555197738E+03  0.00000000000E+00 0.  1.
<mgrwt>
<rscale>  0 0.21066021E+04</rscale>
<asrwt>0</asrwt>
<pdfrwt beam="1">  1        3 0.30919738E+00 0.21066021E+04</pdfrwt>
<pdfrwt beam="2">  1       -3 0.84926360E-01 0.21066021E+04</pdfrwt>
<totfact> 0.10540527E-01</totfact>
</mgrwt>
</event>
<event>
12    2  0.8147979E-008  0.1516313E+04  0.7818608E-02  0.8873677E-01
         -1   -1    0    0    0  501 -0.00000000000E+00  0.00000000000E+00  0.47392051081E+03  0.47392051081E+03  0.00000000000E+00 0.  1.
          1   -1    0    0  501    0  0.00000000000E+00 -0.00000000000E+00 -0.12128639352E+04  0.12128639352E+04  0.00000000000E+00 0. -1.
         23    2    1    2    0    0  0.45524767510E+03  0.46490756830E+02 -0.16015578820E+02  0.46671740707E+03  0.90315021719E+02 0.  0.
        254    2    1    2    0    0 -0.45524767510E+03 -0.46490756830E+02 -0.72292784557E+03  0.12200670389E+04  0.86978564799E+03 0.  0.
         23    2    4    4    0    0 -0.59544121016E+03  0.15017396314E+03 -0.22810768460E+03  0.66178341134E+03  0.93923978765E+02 0.  0.
         23    2    4    4    0    0  0.14019353506E+03 -0.19666471997E+03 -0.49482016097E+03  0.55828362760E+03  0.92208339025E+02 0.  0.
          4    1    3    3  502    0  0.18944345427E+03  0.42519034107E+02 -0.45015124117E+02  0.19930642746E+03  0.00000000000E+00 0. -1.
         -4    1    3    3    0  502  0.26580422082E+03  0.39717227230E+01  0.28999545297E+02  0.26741097961E+03  0.00000000000E+00 0.  1.
         11    1    5    5    0    0 -0.40716359474E+03  0.64474123424E+02 -0.17744824856E+03  0.44880617909E+03  0.00000000000E+00 0.  1.
        -11    1    5    5    0    0 -0.18827761542E+03  0.85699839717E+02 -0.50659436033E+02  0.21297723225E+03  0.00000000000E+00 0. -1.
          4    1    6    6  503    0 -0.13445101455E+02 -0.22613783246E+02 -0.53850480356E+02  0.59933531352E+02  0.00000000000E+00 0. -1.
         -4    1    6    6    0  503  0.15363863652E+03 -0.17405093673E+03 -0.44096968062E+03  0.49835009625E+03  0.00000000000E+00 0.  1.
<mgrwt>
<rscale>  0 0.15163128E+04</rscale>
<asrwt>0</asrwt>
<pdfrwt beam="1">  1        1 0.18659445E+00 0.15163128E+04</pdfrwt>
<pdfrwt beam="2">  1       -1 0.72910848E-01 0.15163128E+04</pdfrwt>
<totfact> 0.19159501E+01</totfact>
</mgrwt>
</event>
<event>
12    2  0.8147979E-008  0.1912546E+04  0.7818608E-02  0.8648636E-01
         -1   -1    0    0    0  501 -0.00000000000E+00  0.00000000000E+00  0.99178420023E+03  0.99178420023E+03  0.00000000000E+00 0.  1.
          1   -1    0    0  501    0  0.00000000000E+00 -0.00000000000E+00 -0.92203373600E+03  0.92203373600E+03  0.00000000000E+00 0. -1.
         23    2    1    2    0    0 -0.28080674833E+03 -0.40829615390E+03  0.58434144503E+03  0.77150575837E+03  0.90598187761E+02 0.  0.
        254    2    1    2    0    0  0.28080674833E+03  0.40829615390E+03 -0.51459098080E+03  0.11423121778E+04  0.89135573984E+03 0.  0.
         23    2    4    4    0    0  0.54798070991E+03  0.25817253262E+03 -0.10345782333E+03  0.62129512368E+03  0.91477835925E+02 0.  0.
         23    2    4    4    0    0 -0.26717396158E+03  0.15012362128E+03 -0.41113315747E+03  0.52101705417E+03  0.92245705327E+02 0.  0.
          1    1    3    3  502    0 -0.43556806020E+02 -0.31041041020E+02  0.34115949235E+02  0.63440047056E+02  0.00000000000E+00 0. -1.
         -1    1    3    3    0  502 -0.23724994231E+03 -0.37725511288E+03  0.55022549579E+03  0.70806571132E+03  0.00000000000E+00 0.  1.
         11    1    5    5    0    0  0.46604676766E+03  0.25348742147E+03 -0.91658466605E+02  0.53838344792E+03  0.00000000000E+00 0. -1.
        -11    1    5    5    0    0  0.81933942251E+02  0.46851111590E+01 -0.11799356724E+02  0.82911675767E+02  0.00000000000E+00 0.  1.
          1    1    6    6  503    0 -0.25028112933E+03  0.16190076137E+03 -0.37103963109E+03  0.47594422790E+03  0.00000000000E+00 0. -1.
         -1    1    6    6    0  503 -0.16892832248E+02 -0.11777140095E+02 -0.40093526377E+02  0.45072826265E+02  0.00000000000E+00 0.  1.
<mgrwt>
<rscale>  0 0.19125465E+04</rscale>
<asrwt>0</asrwt>
<pdfrwt beam="1">  1        1 0.14185134E+00 0.19125465E+04</pdfrwt>
<pdfrwt beam="2">  1       -1 0.15258218E+00 0.19125465E+04</pdfrwt>
<totfact> 0.54359046E+00</totfact>
</mgrwt>
</event>
<event>
12    2  0.8147979E-008  0.1528133E+04  0.7818608E-02  0.8865957E-01
         -2   -1    0    0    0  501 -0.00000000000E+00  0.00000000000E+00  0.13164269545E+04  0.13164269545E+04  0.00000000000E+00 0.  1.
          2   -1    0    0  501    0  0.00000000000E+00 -0.00000000000E+00 -0.44347160979E+03  0.44347160979E+03  0.00000000000E+00 0. -1.
         23    2    1    2    0    0  0.37267110173E+03  0.32467745183E+03  0.28092534022E+03  0.57621088297E+03  0.93812243776E+02 0.  0.
        254    2    1    2    0    0 -0.37267110173E+03 -0.32467745183E+03  0.59203000453E+03  0.11836876814E+04  0.89795200481E+03 0.  0.
         23    2    4    4    0    0 -0.22564489092E+03 -0.62775512758E+03  0.36353182220E+03  0.76659889661E+03  0.10259807767E+03 0.  0.
         23    2    4    4    0    0 -0.14702621081E+03  0.30307767575E+03  0.22849818233E+03  0.41708878475E+03  0.90988190610E+02 0.  0.
          2    1    3    3  502    0  0.12099856147E+03  0.16443260639E+03  0.10062050578E+03  0.22760320759E+03  0.00000000000E+00 0.  1.
         -2    1    3    3    0  502  0.25167254026E+03  0.16024484544E+03  0.18030483443E+03  0.34860767538E+03  0.00000000000E+00 0. -1.
         11    1    5    5    0    0 -0.62557603818E+02 -0.31711510579E+03  0.19350530293E+03  0.37672237307E+03  0.00000000000E+00 0. -1.
        -11    1    5    5    0    0 -0.16308728710E+03 -0.31064002179E+03  0.17002651927E+03  0.38987652354E+03  0.00000000000E+00 0.  1.
          1    1    6    6  503    0 -0.41416045121E+02  0.28301673572E+02  0.58859164753E+02  0.77334822660E+02  0.00000000000E+00 0. -1.
         -1    1    6    6    0  503 -0.10561016569E+03  0.27477600217E+03  0.16963901758E+03  0.33975396209E+03  0.00000000000E+00 0.  1.
<mgrwt>
<rscale>  0 0.15281335E+04</rscale>
<asrwt>0</asrwt>
<pdfrwt beam="1">  1        2 0.68226402E-01 0.15281335E+04</pdfrwt>
<pdfrwt beam="2">  1       -2 0.20252722E+00 0.15281335E+04</pdfrwt>
<totfact> 0.87208862E+00</totfact>
</mgrwt>
</event>
<event>
12    2  0.8147979E-008  0.3385130E+04  0.7818608E-02  0.8141566E-01
          1   -1    0    0  501    0  0.00000000000E+00  0.00000000000E+00  0.12015666095E+04  0.12015666095E+04  0.00000000000E+00 0. -1.
         -1   -1    0    0    0  501 -0.00000000000E+00 -0.00000000000E+00 -0.23842010058E+04  0.23842010058E+04  0.00000000000E+00 0.  1.
         23    2    1    2    0    0  0.77092310458E+03 -0.73743689496E+03 -0.17719363564E+04  0.20703414370E+04  0.91758417268E+02 0.  0.
        254    2    1    2    0    0 -0.77092310458E+03  0.73743689496E+03  0.58930196015E+03  0.15154261783E+04  0.90061317685E+03 0.  0.
         23    2    4    4    0    0 -0.52777034341E+03 -0.76621719275E+02  0.19873090855E+03  0.57665650266E+03  0.92878010255E+02 0.  0.
         23    2    4    4    0    0 -0.24315276116E+03  0.81405861424E+03  0.39057105160E+03  0.93876967561E+03  0.83234997612E+02 0.  0.
          2    1    3    3  502    0  0.60618574711E+03 -0.62322809377E+03 -0.14057153411E+04  0.16528490667E+04  0.00000000000E+00 0. -1.
         -2    1    3    3    0  502  0.16473735747E+03 -0.11420880120E+03 -0.36622101529E+03  0.41749237030E+03  0.00000000000E+00 0.  1.
         11    1    5    5    0    0 -0.34039729207E+03 -0.81206529686E+02  0.95808845025E+02  0.36282799189E+03  0.00000000000E+00 0. -1.
        -11    1    5    5    0    0 -0.18737305134E+03  0.45848104106E+01  0.10292206353E+03  0.21382851077E+03  0.00000000000E+00 0.  1.
          3    1    6    6  503    0 -0.18783671314E+03  0.52645373860E+03  0.22685089857E+03  0.60323917303E+03  0.00000000000E+00 0. -1.
         -3    1    6    6    0  503 -0.55316048020E+02  0.28760487564E+03  0.16372015303E+03  0.33553050259E+03  0.00000000000E+00 0.  1.
<mgrwt>
<rscale>  0 0.33851300E+04</rscale>
<asrwt>0</asrwt>
<pdfrwt beam="1">  1        1 0.18485640E+00 0.33851300E+04</pdfrwt>
<pdfrwt beam="2">  1       -1 0.36680015E+00 0.33851300E+04</pdfrwt>
<totfact> 0.10532905E-01</totfact>
</mgrwt>
</event>
<event>
12    2  0.8147979E-008  0.4465840E+04  0.7818608E-02  0.7916645E-01
          2   -1    0    0  501    0  0.00000000000E+00  0.00000000000E+00  0.26137823766E+04  0.26137823766E+04  0.00000000000E+00 0. -1.
         -2   -1    0    0    0  501 -0.00000000000E+00 -0.00000000000E+00 -0.19075545213E+04  0.19075545213E+04  0.00000000000E+00 0.  1.
         23    2    1    2    0    0 -0.19207077590E+04 -0.21237486775E+03 -0.59612080727E+03  0.20239518116E+04  0.82459316991E+02 0.  0.
        254    2    1    2    0    0  0.19207077590E+04  0.21237486775E+03  0.13023486626E+04  0.24973850862E+04  0.89810848442E+03 0.  0.
         23    2    4    4    0    0  0.15228199510E+04  0.28267179637E+03  0.56385417340E+03  0.16506818552E+04  0.89079239184E+02 0.  0.
         23    2    4    4    0    0  0.39788780805E+03 -0.70296928619E+02  0.73849448918E+03  0.84670323094E+03  0.90971890022E+02 0.  0.
          1    1    3    3  502    0 -0.14573481029E+04 -0.15333065968E+03 -0.41571712712E+03  0.15232184722E+04  0.00000000000E+00 0. -1.
         -1    1    3    3    0  502 -0.46335965609E+03 -0.59044208072E+02 -0.18040368016E+03  0.50073333943E+03  0.00000000000E+00 0.  1.
         11    1    5    5    0    0  0.20759544013E+03  0.46524288021E+02  0.46482430008E+02  0.21776361597E+03  0.00000000000E+00 0. -1.
        -11    1    5    5    0    0  0.13152245108E+04  0.23614750835E+03  0.51737174339E+03  0.14329182393E+04  0.00000000000E+00 0.  1.
          2    1    6    6  503    0  0.10152677093E+03  0.64452138154E+01  0.12581751311E+03  0.16180010075E+03  0.00000000000E+00 0. -1.
         -2    1    6    6    0  503  0.29636103712E+03 -0.76742142434E+02  0.61267697606E+03  0.68490313019E+03  0.00000000000E+00 0.  1.
<mgrwt>
<rscale>  0 0.44658403E+04</rscale>
<asrwt>0</asrwt>
<pdfrwt beam="1">  1        2 0.40212037E+00 0.44658403E+04</pdfrwt>
<pdfrwt beam="2">  1       -2 0.29346993E+00 0.44658403E+04</pdfrwt>
<totfact> 0.79078600E-02</totfact>
</mgrwt>
</event>
<event>
12    2  0.8147979E-008  0.1205279E+04  0.7818608E-02  0.9108248E-01
          1   -1    0    0  501    0  0.00000000000E+00  0.00000000000E+00  0.36227373772E+03  0.36227373772E+03  0.00000000000E+00 0. -1.
         -1   -1    0    0    0  501 -0.00000000000E+00 -0.00000000000E+00 -0.10024862563E+04  0.10024862563E+04  0.00000000000E+00 0.  1.
         23    2    1    2    0    0 -0.18719568853E+03  0.15572421895E+03 -0.22423256207E+03  0.34341996797E+03  0.91459140248E+02 0.  0.
        254    2    1    2    0    0  0.18719568853E+03 -0.15572421895E+03 -0.41597995653E+03  0.10213400261E+04  0.90044648173E+03 0.  0.
         23    2    4    4    0    0 -0.20992712349E+03 -0.29803012798E+02  0.17700219373E+03  0.29115800854E+03  0.92117276368E+02 0.  0.
         23    2    4    4    0    0  0.39712281202E+03 -0.12592120615E+03 -0.59298215026E+03  0.73018201753E+03  0.89304368427E+02 0.  0.
          3    1    3    3  502    0 -0.22449408111E+02  0.51283546318E+02 -0.16282654673E+02  0.58301825792E+02  0.00000000000E+00 0. -1.
         -3    1    3    3    0  502 -0.16474628042E+03  0.10444067263E+03 -0.20794990740E+03  0.28511814218E+03  0.00000000000E+00 0.  1.
         11    1    5    5    0    0 -0.17079492802E+03 -0.44488929174E+02  0.17614266925E+03  0.24935198453E+03  0.00000000000E+00 0. -1.
        -11    1    5    5    0    0 -0.39132195465E+02  0.14685916376E+02  0.85952448169E+00  0.41806024017E+02  0.00000000000E+00 0.  1.
          2    1    6    6  503    0  0.11957218079E+02 -0.13510805728E+02 -0.56957424578E+01  0.18919789051E+02  0.00000000000E+00 0.  1.
         -2    1    6    6    0  503  0.38516559394E+03 -0.11241040042E+03 -0.58728640780E+03  0.71126222848E+03  0.00000000000E+00 0. -1.
<mgrwt>
<rscale>  0 0.12052791E+04</rscale>
<asrwt>0</asrwt>
<pdfrwt beam="1">  1        1 0.55734422E-01 0.12052791E+04</pdfrwt>
<pdfrwt beam="2">  1       -1 0.15422865E+00 0.12052791E+04</pdfrwt>
<totfact> 0.21904157E+01</totfact>
</mgrwt>
</event>
<event>
12    2  0.8147979E-008  0.1446336E+04  0.7818608E-02  0.8920945E-01
         -2   -1    0    0    0  501 -0.00000000000E+00  0.00000000000E+00  0.31518676530E+03  0.31518676530E+03  0.00000000000E+00 0. -1.
          2   -1    0    0  501    0  0.00000000000E+00 -0.00000000000E+00 -0.16592444377E+04  0.16592444377E+04  0.00000000000E+00 0.  1.
         23    2    1    2    0    0 -0.58235628265E+02  0.23733135181E+03 -0.90870888212E+03  0.94534202724E+03  0.90565761000E+02 0.  0.
        254    2    1    2    0    0  0.58235628265E+02 -0.23733135181E+03 -0.43534879033E+03  0.10290891758E+04  0.89987688246E+03 0.  0.
         23    2    4    4    0    0  0.72040682864E+02 -0.24726786373E+03  0.23052511035E+03  0.35665416387E+03  0.87915355178E+02 0.  0.
         23    2    4    4    0    0 -0.13805054600E+02  0.99365119253E+01 -0.66587390068E+03  0.67243501194E+03  0.92149226146E+02 0.  0.
          1    1    3    3  502    0  0.21299605594E+01  0.17050920335E+03 -0.58670195800E+03  0.61098045197E+03  0.00000000000E+00 0. -1.
         -1    1    3    3    0  502 -0.60365588824E+02  0.66822148458E+02 -0.32200692412E+03  0.33436157527E+03  0.00000000000E+00 0.  1.
         11    1    5    5    0    0  0.51341641074E+01 -0.79805096254E+02  0.26249779554E+02  0.84168069692E+02  0.00000000000E+00 0. -1.
        -11    1    5    5    0    0  0.66906518757E+02 -0.16746276748E+03  0.20427533080E+03  0.27248609417E+03  0.00000000000E+00 0.  1.
          3    1    6    6  503    0 -0.34912303962E+02 -0.18938203936E+02 -0.14520535684E+03  0.15053943068E+03  0.00000000000E+00 0. -1.
         -3    1    6    6    0  503  0.21107249363E+02  0.28874715861E+02 -0.52066854384E+03  0.52189558126E+03  0.00000000000E+00 0.  1.
<mgrwt>
<rscale>  0 0.14463359E+04</rscale>
<asrwt>0</asrwt>
<pdfrwt beam="1">  1        2 0.25526838E+00 0.14463359E+04</pdfrwt>
<pdfrwt beam="2">  1       -2 0.48490271E-01 0.14463359E+04</pdfrwt>
<totfact> 0.40371049E+01</totfact>
</mgrwt>
</event>
<event>
12    2  0.8147979E-008  0.2032043E+04  0.7818608E-02  0.8591784E-01
          3   -1    0    0  501    0  0.00000000000E+00  0.00000000000E+00  0.73365059024E+03  0.73365059024E+03  0.00000000000E+00 0. -1.
         -3   -1    0    0    0  501 -0.00000000000E+00 -0.00000000000E+00 -0.14070722730E+04  0.14070722730E+04  0.00000000000E+00 0.  1.
         23    2    1    2    0    0 -0.16617540710E+02  0.71026813186E+03 -0.70484235539E+03  0.10054776448E+04  0.97085459018E+02 0.  0.
        254    2    1    2    0    0  0.16617540710E+02 -0.71026813186E+03  0.31420672639E+02  0.11352452185E+04  0.88489405332E+03 0.  0.
         23    2    4    4    0    0 -0.11792611629E+03 -0.87626801343E+03  0.94955272251E+02  0.89383450362E+03  0.90395884158E+02 0.  0.
         23    2    4    4    0    0  0.13454365700E+03  0.16599988157E+03 -0.63534599613E+02  0.24141071485E+03  0.92652747263E+02 0.  0.
          3    1    3    3  502    0  0.58110764158E+01  0.46443777262E+03 -0.39803354832E+03  0.61169184958E+03  0.00000000000E+00 0. -1.
         -3    1    3    3    0  502 -0.22428617126E+02  0.24583035924E+03 -0.30680880707E+03  0.39378579518E+03  0.00000000000E+00 0.  1.
         11    1    5    5    0    0 -0.73454551736E+02 -0.76132380867E+03  0.93732719398E+02  0.77058116737E+03  0.00000000000E+00 0. -1.
        -11    1    5    5    0    0 -0.44471564556E+02 -0.11494420476E+03  0.12225528529E+01  0.12325333626E+03  0.00000000000E+00 0.  1.
          3    1    6    6  503    0  0.42234613975E+02  0.12476405240E+03 -0.39091846876E+02  0.13739724844E+03  0.00000000000E+00 0. -1.
         -3    1    6    6    0  503  0.92309043027E+02  0.41235829173E+02 -0.24442752736E+02  0.10401346640E+03  0.00000000000E+00 0.  1.
<mgrwt>
<rscale>  0 0.20320427E+04</rscale>
<asrwt>0</asrwt>
<pdfrwt beam="1">  1        3 0.11286932E+00 0.20320427E+04</pdfrwt>
<pdfrwt beam="2">  1       -3 0.21647266E+00 0.20320427E+04</pdfrwt>
<totfact> 0.18387070E-01</totfact>
</mgrwt>
</event>
<event>
12    2  0.8147979E-008  0.2752541E+04  0.7818608E-02  0.8318156E-01
          1   -1    0    0  501    0  0.00000000000E+00  0.00000000000E+00  0.47719126576E+03  0.47719126576E+03  0.00000000000E+00 0. -1.
         -1   -1    0    0    0  501 -0.00000000000E+00 -0.00000000000E+00 -0.39693098792E+04  0.39693098792E+04  0.00000000000E+00 0.  1.
         23    2    1    2    0    0 -0.86293695237E+02 -0.64596440766E+03  0.11901302446E+03  0.66884343214E+03  0.92037051866E+02 0.  0.
        254    2    1    2    0    0  0.86293695237E+02  0.64596440766E+03 -0.36111316379E+04  0.37776577128E+04  0.89761320804E+03 0.  0.
         23    2    4    4    0    0 -0.67220042082E+02  0.71723605236E+03 -0.15985550516E+04  0.17558670512E+04  0.93513418412E+02 0.  0.
         23    2    4    4    0    0  0.15351373732E+03 -0.71271644696E+02 -0.20125765863E+04  0.20217906617E+04  0.92340939449E+02 0.  0.
          3    1    3    3  502    0 -0.41947379658E+02 -0.12484282473E+03  0.51862398700E+02  0.14154512336E+03  0.00000000000E+00 0. -1.
         -3    1    3    3    0  502 -0.44346315579E+02 -0.52112158293E+03  0.67150625759E+02  0.52729830878E+03  0.00000000000E+00 0.  1.
         11    1    5    5    0    0  0.16035076955E+02  0.32738615118E+03 -0.71838150899E+03  0.78962700570E+03  0.00000000000E+00 0. -1.
        -11    1    5    5    0    0 -0.83255119037E+02  0.38984990118E+03 -0.88017354265E+03  0.96624004547E+03  0.00000000000E+00 0.  1.
          4    1    6    6  503    0 -0.71037377283E+01 -0.23311259547E+02 -0.19985149456E+03  0.20133181018E+03  0.00000000000E+00 0. -1.
         -4    1    6    6    0  503  0.16061747505E+03 -0.47960385149E+02 -0.18127250917E+04  0.18204588515E+04  0.00000000000E+00 0.  1.
<mgrwt>
<rscale>  0 0.27525406E+04</rscale>
<asrwt>0</asrwt>
<pdfrwt beam="1">  1        1 0.73414043E-01 0.27525406E+04</pdfrwt>
<pdfrwt beam="2">  1       -1 0.61066304E+00 0.27525406E+04</pdfrwt>
<totfact> 0.16232529E-02</totfact>
</mgrwt>
</event>
<event>
12    2  0.8147979E-008  0.1222666E+04  0.7818608E-02  0.9093245E-01
         -2   -1    0    0    0  501 -0.00000000000E+00  0.00000000000E+00  0.66318377442E+03  0.66318377442E+03  0.00000000000E+00 0.  1.
          2   -1    0    0  501    0  0.00000000000E+00 -0.00000000000E+00 -0.56353626908E+03  0.56353626908E+03  0.00000000000E+00 0. -1.
         23    2    1    2    0    0 -0.11873125251E+03 -0.12731899459E+03 -0.17273571262E+03  0.26860199134E+03  0.10955440033E+03 0.  0.
        254    2    1    2    0    0  0.11873125251E+03  0.12731899459E+03  0.27238321796E+03  0.95811805216E+03  0.90193699766E+03 0.  0.
         23    2    4    4    0    0  0.21593389993E+01  0.38937181460E+03 -0.16090555187E+03  0.43108302469E+03  0.91251875592E+02 0.  0.
         23    2    4    4    0    0  0.11657191351E+03 -0.26205282001E+03  0.43328876984E+03  0.52703502747E+03  0.88125312030E+02 0.  0.
          1    1    3    3  502    0 -0.38886784525E+02 -0.72883920117E+02 -0.14696282065E+03  0.16858920035E+03  0.00000000000E+00 0. -1.
         -1    1    3    3    0  502 -0.79844467989E+02 -0.54435074472E+02 -0.25772891973E+02  0.10001279099E+03  0.00000000000E+00 0.  1.
         11    1    5    5    0    0  0.35637266179E+02  0.67610440249E+02 -0.31215195849E+02  0.82556494738E+02  0.00000000000E+00 0. -1.
        -11    1    5    5    0    0 -0.33477927180E+02  0.32176137435E+03 -0.12969035602E+03  0.34852652995E+03  0.00000000000E+00 0.  1.
          3    1    6    6  503    0  0.40511575435E+01  0.20769667986E+01  0.39170062700E+02  0.39433735309E+02  0.00000000000E+00 0. -1.
         -3    1    6    6    0  503  0.11252075597E+03 -0.26412978681E+03  0.39411870714E+03  0.48760129216E+03  0.00000000000E+00 0.  1.
<mgrwt>
<rscale>  0 0.12226661E+04</rscale>
<asrwt>0</asrwt>
<pdfrwt beam="1">  1        2 0.86697888E-01 0.12226661E+04</pdfrwt>
<pdfrwt beam="2">  1       -2 0.10202827E+00 0.12226661E+04</pdfrwt>
<totfact> 0.41500656E+01</totfact>
</mgrwt>
</event>
<event>
12    2  0.8147979E-008  0.2342627E+04  0.7818608E-02  0.8461301E-01
         -1   -1    0    0    0  501 -0.00000000000E+00  0.00000000000E+00  0.12072487675E+04  0.12072487675E+04  0.00000000000E+00 0.  1.
          1   -1    0    0  501    0  0.00000000000E+00 -0.00000000000E+00 -0.11364476798E+04  0.11364476798E+04  0.00000000000E+00 0. -1.
         23    2    1    2    0    0  0.49306686303E+03  0.15587666296E+03  0.88163437036E+03  0.10261915896E+04  0.91528957265E+02 0.  0.
        254    2    1    2    0    0 -0.49306686303E+03 -0.15587666296E+03 -0.81083328271E+03  0.13175048578E+04  0.90053093919E+03 0.  0.
         23    2    4    4    0    0 -0.43226527843E+03 -0.33794500964E+03 -0.87024731489E+02  0.56301816043E+03  0.91411403085E+02 0.  0.
         23    2    4    4    0    0 -0.60801584597E+02  0.18206834668E+03 -0.72380855122E+03  0.75448669734E+03  0.92226038045E+02 0.  0.
          3    1    3    3  502    0  0.31158876271E+03  0.14250512733E+03  0.59802802454E+03  0.68922622302E+03  0.00000000000E+00 0. -1.
         -3    1    3    3    0  502  0.18147810032E+03  0.13371535625E+02  0.28360634582E+03  0.33696536654E+03  0.00000000000E+00 0.  1.
         11    1    5    5    0    0 -0.32357390683E+03 -0.19960132843E+03 -0.53767721748E+02  0.38396839895E+03  0.00000000000E+00 0.  1.
        -11    1    5    5    0    0 -0.10869137160E+03 -0.13834368121E+03 -0.33257009741E+02  0.17904976148E+03  0.00000000000E+00 0. -1.
          1    1    6    6  503    0 -0.31063555520E+02  0.89938855010E+02 -0.19603325216E+03  0.21790589270E+03  0.00000000000E+00 0. -1.
         -1    1    6    6    0  503 -0.29738029077E+02  0.92129491671E+02 -0.52777529906E+03  0.53658080464E+03  0.00000000000E+00 0.  1.
<mgrwt>
<rscale>  0 0.23426268E+04</rscale>
<asrwt>0</asrwt>
<pdfrwt beam="1">  1        1 0.17483810E+00 0.23426268E+04</pdfrwt>
<pdfrwt beam="2">  1       -1 0.18573058E+00 0.23426268E+04</pdfrwt>
<totfact> 0.20307362E+00</totfact>
</mgrwt>
</event>
<event>
12    2  0.8147979E-008  0.1271735E+04  0.7818608E-02  0.9052284E-01
          1   -1    0    0  501    0  0.00000000000E+00  0.00000000000E+00  0.70917392198E+03  0.70917392198E+03  0.00000000000E+00 0. -1.
         -1   -1    0    0    0  501 -0.00000000000E+00 -0.00000000000E+00 -0.57013904406E+03  0.57013904406E+03  0.00000000000E+00 0.  1.
         23    2    1    2    0    0  0.15254050687E+03  0.26904346487E+03  0.27965124358E+02  0.32365117370E+03  0.91186851183E+02 0.  0.
        254    2    1    2    0    0 -0.15254050687E+03 -0.26904346487E+03  0.11106975356E+03  0.95566179234E+03  0.89738507841E+03 0.  0.
         23    2    4    4    0    0 -0.37459694100E+03 -0.27599749152E+03 -0.23906885147E+03  0.53104502101E+03  0.91418898839E+02 0.  0.
         23    2    4    4    0    0  0.22205643414E+03  0.69540266434E+01  0.35013860503E+03  0.42461677133E+03  0.91350650437E+02 0.  0.
          4    1    3    3  502    0  0.10663765998E+03  0.19965305504E+03  0.60538420867E+02  0.23430286663E+03  0.00000000000E+00 0. -1.
         -4    1    3    3    0  502  0.45902846887E+02  0.69390409836E+02 -0.32573296509E+02  0.89348307062E+02  0.00000000000E+00 0.  1.
         11    1    5    5    0    0 -0.32935132785E+02 -0.57958532186E+02 -0.16608126731E+02  0.68700395183E+02  0.00000000000E+00 0. -1.
        -11    1    5    5    0    0 -0.34166180822E+03 -0.21803895933E+03 -0.22246072474E+03  0.46234462583E+03  0.00000000000E+00 0.  1.
          3    1    6    6  503    0  0.13425280698E+02 -0.20921316695E+02  0.69520844210E+02  0.73831479964E+02  0.00000000000E+00 0. -1.
         -3    1    6    6    0  503  0.20863115344E+03  0.27875343339E+02  0.28061776082E+03  0.35078529136E+03  0.00000000000E+00 0.  1.
<mgrwt>
<rscale>  0 0.12717354E+04</rscale>
<asrwt>0</asrwt>
<pdfrwt beam="1">  1        1 0.10910368E+00 0.12717354E+04</pdfrwt>
<pdfrwt beam="2">  1       -1 0.87713699E-01 0.12717354E+04</pdfrwt>
<totfact> 0.33632346E+01</totfact>
</mgrwt>
</event>
<event>
12    2  0.8147979E-008  0.2387374E+04  0.7818608E-02  0.8444246E-01
         -1   -1    0    0    0  501 -0.00000000000E+00  0.00000000000E+00  0.72605234701E+03  0.72605234701E+03  0.00000000000E+00 0.  1.
          1   -1    0    0  501    0  0.00000000000E+00 -0.00000000000E+00 -0.19625158106E+04  0.19625158106E+04  0.00000000000E+00 0. -1.
         23    2    1    2    0    0  0.64981341081E+03  0.78710014006E+03 -0.49006392049E+03  0.11358899296E+04  0.91099871285E+02 0.  0.
        254    2    1    2    0    0 -0.64981341081E+03 -0.78710014006E+03 -0.74639954312E+03  0.15526782281E+04  0.90106231896E+03 0.  0.
         23    2    4    4    0    0 -0.24114564037E+03 -0.74449335717E+02  0.17077892125E+03  0.31804301868E+03  0.91060410327E+02 0.  0.
         23    2    4    4    0    0 -0.40866777044E+03 -0.71265080434E+03 -0.91717846437E+03  0.12346352094E+04  0.90704185602E+02 0.  0.
          1    1    3    3  502    0  0.44279431566E+03  0.49736969818E+03 -0.27943257927E+03  0.72216756297E+03  0.00000000000E+00 0. -1.
         -1    1    3    3    0  502  0.20701909515E+03  0.28973044188E+03 -0.21063134122E+03  0.41372236659E+03  0.00000000000E+00 0.  1.
         11    1    5    5    0    0 -0.16258467393E+03 -0.10143032900E+02  0.13086305348E+03  0.20895405256E+03  0.00000000000E+00 0. -1.
        -11    1    5    5    0    0 -0.78560966441E+02 -0.64306302817E+02  0.39915867769E+02  0.10908896612E+03  0.00000000000E+00 0.  1.
          2    1    6    6  503    0 -0.18979713837E+03 -0.41547386343E+03 -0.48282158622E+03  0.66464890660E+03  0.00000000000E+00 0. -1.
         -2    1    6    6    0  503 -0.21887063207E+03 -0.29717694091E+03 -0.43435687815E+03  0.56998630280E+03  0.00000000000E+00 0.  1.
<mgrwt>
<rscale>  0 0.23873745E+04</rscale>
<asrwt>0</asrwt>
<pdfrwt beam="1">  1        1 0.30192551E+00 0.23873745E+04</pdfrwt>
<pdfrwt beam="2">  1       -1 0.11170036E+00 0.23873745E+04</pdfrwt>
<totfact> 0.20856204E+00</totfact>
</mgrwt>
</event>
<event>
12    2  0.8147979E-008  0.1924984E+04  0.7818608E-02  0.8642519E-01
          2   -1    0    0  501    0  0.00000000000E+00  0.00000000000E+00  0.55077493866E+03  0.55077493866E+03  0.00000000000E+00 0. -1.
         -2   -1    0    0    0  501 -0.00000000000E+00 -0.00000000000E+00 -0.16819777884E+04  0.16819777884E+04  0.00000000000E+00 0.  1.
         23    2    1    2    0    0 -0.36731704303E+01 -0.60272720987E+03 -0.95794779534E+03  0.11358026495E+04  0.95342007082E+02 0.  0.
        254    2    1    2    0    0  0.36731704303E+01  0.60272720987E+03 -0.17325505438E+03  0.10969500775E+04  0.89999365389E+03 0.  0.
         23    2    4    4    0    0 -0.25953024575E+03 -0.65734298028E+02 -0.23836765182E+03  0.36995769979E+03  0.91501998871E+02 0.  0.
         23    2    4    4    0    0  0.26320341618E+03  0.66846150790E+03  0.65112597446E+02  0.72699237775E+03  0.90340694740E+02 0.  0.
          1    1    3    3  502    0  0.19803882018E+02 -0.31017175109E+03 -0.57139462334E+03  0.65045409100E+03  0.00000000000E+00 0. -1.
         -1    1    3    3    0  502 -0.23477052448E+02 -0.29255545878E+03 -0.38655317200E+03  0.48534855850E+03  0.00000000000E+00 0.  1.
         11    1    5    5    0    0 -0.79208421334E+01 -0.15829758130E+02  0.27497255900E+01  0.17913178762E+02  0.00000000000E+00 0. -1.
        -11    1    5    5    0    0 -0.25160940362E+03 -0.49904539899E+02 -0.24111737741E+03  0.35204452102E+03  0.00000000000E+00 0.  1.
          4    1    6    6  503    0  0.38476325688E+02  0.89710823855E+02  0.40420382771E+02  0.10565162989E+03  0.00000000000E+00 0. -1.
         -4    1    6    6    0  503  0.22472709049E+03  0.57875068404E+03  0.24692214675E+02  0.62134074786E+03  0.00000000000E+00 0.  1.
<mgrwt>
<rscale>  0 0.19249844E+04</rscale>
<asrwt>0</asrwt>
<pdfrwt beam="1">  1        2 0.84734608E-01 0.19249844E+04</pdfrwt>
<pdfrwt beam="2">  1       -2 0.25876581E+00 0.19249844E+04</pdfrwt>
<totfact> 0.29165192E+00</totfact>
</mgrwt>
</event>
<event>
12    2  0.8147979E-008  0.2040089E+04  0.7818608E-02  0.8588104E-01
         -2   -1    0    0    0  501 -0.00000000000E+00  0.00000000000E+00  0.27424828391E+04  0.27424828391E+04  0.00000000000E+00 0.  1.
          2   -1    0    0  501    0  0.00000000000E+00 -0.00000000000E+00 -0.37939736466E+03  0.37939736466E+03  0.00000000000E+00 0. -1.
         23    2    1    2    0    0  0.42261931406E+03 -0.70334095930E+03  0.92881016570E+03  0.12428638609E+04  0.93416610239E+02 0.  0.
        254    2    1    2    0    0 -0.42261931406E+03  0.70334095930E+03  0.14342753087E+04  0.18790163429E+04  0.89457317532E+03 0.  0.
         23    2    4    4    0    0  0.18600183016E+03  0.39758530689E+03  0.91075569142E+03  0.10155352439E+04  0.95734763923E+02 0.  0.
         23    2    4    4    0    0 -0.60862114422E+03  0.30575565240E+03  0.52351961732E+03  0.86348109903E+03  0.87296062247E+02 0.  0.
          3    1    3    3  502    0  0.32546087845E+03 -0.57057713312E+03  0.68802858437E+03  0.95124464842E+03  0.00000000000E+00 0. -1.
         -3    1    3    3    0  502  0.97158435610E+02 -0.13276382617E+03  0.24078158134E+03  0.29161921244E+03  0.00000000000E+00 0.  1.
         11    1    5    5    0    0 -0.10772039449E+02  0.35327195866E+02  0.80198815875E+02  0.88294380735E+02  0.00000000000E+00 0.  1.
        -11    1    5    5    0    0  0.19677386961E+03  0.36225811103E+03  0.83055687554E+03  0.92724086314E+03  0.00000000000E+00 0. -1.
          4    1    6    6  503    0 -0.38724309471E+03  0.14698940443E+03  0.32100511580E+03  0.52402994551E+03  0.00000000000E+00 0. -1.
         -4    1    6    6    0  503 -0.22137804951E+03  0.15876624797E+03  0.20251450152E+03  0.33945115352E+03  0.00000000000E+00 0.  1.
<mgrwt>
<rscale>  0 0.20400890E+04</rscale>
<asrwt>0</asrwt>
<pdfrwt beam="1">  1        2 0.58368827E-01 0.20400890E+04</pdfrwt>
<pdfrwt beam="2">  1       -2 0.42192043E+00 0.20400890E+04</pdfrwt>
<totfact> 0.41720973E-01</totfact>
</mgrwt>
</event>
<event>
12    2  0.8147979E-008  0.1809917E+04  0.7818608E-02  0.8701043E-01
         -2   -1    0    0    0  501 -0.00000000000E+00  0.00000000000E+00  0.16088136346E+04  0.16088136346E+04  0.00000000000E+00 0.  1.
          2   -1    0    0  501    0  0.00000000000E+00 -0.00000000000E+00 -0.50903986991E+03  0.50903986991E+03  0.00000000000E+00 0. -1.
         23    2    1    2    0    0  0.66663497718E+03 -0.38418982539E+02  0.40963174046E+03  0.78873451976E+03  0.91791986860E+02 0.  0.
        254    2    1    2    0    0 -0.66663497718E+03  0.38418982539E+02  0.69014202426E+03  0.13291189848E+04  0.91890317828E+03 0.  0.
         23    2    4    4    0    0 -0.73362653768E+03 -0.79790066935E+01  0.12367669378E+03  0.74959918862E+03  0.91276818843E+02 0.  0.
         23    2    4    4    0    0  0.66991560503E+02  0.46397989233E+02  0.56646533048E+03  0.57951979617E+03  0.91211736784E+02 0.  0.
          2    1    3    3  502    0  0.57059912041E+03 -0.60947282923E+02  0.36774036440E+03  0.68156503954E+03  0.00000000000E+00 0. -1.
         -2    1    3    3    0  502  0.96035856763E+02  0.22528300384E+02  0.41891376062E+02  0.10716948022E+03  0.00000000000E+00 0.  1.
         11    1    5    5    0    0 -0.36318447369E+03  0.96052209998E+00  0.15225395848E+02  0.36350474166E+03  0.00000000000E+00 0. -1.
        -11    1    5    5    0    0 -0.37044206399E+03 -0.89395287935E+01  0.10845129793E+03  0.38609444696E+03  0.00000000000E+00 0.  1.
          1    1    6    6  503    0  0.42844261960E+02 -0.19379942316E+02  0.31437532873E+03  0.31787271078E+03  0.00000000000E+00 0. -1.
         -1    1    6    6    0  503  0.24147298542E+02  0.65777931549E+02  0.25209000176E+03  0.26164708539E+03  0.00000000000E+00 0.  1.
<mgrwt>
<rscale>  0 0.18099174E+04</rscale>
<asrwt>0</asrwt>
<pdfrwt beam="1">  1        2 0.78313827E-01 0.18099174E+04</pdfrwt>
<pdfrwt beam="2">  1       -2 0.24750979E+00 0.18099174E+04</pdfrwt>
<totfact> 0.37865810E+00</totfact>
</mgrwt>
</event>
<event>
12    2  0.8147979E-008  0.2600422E+04  0.7818608E-02  0.8368058E-01
         -1   -1    0    0    0  501 -0.00000000000E+00  0.00000000000E+00  0.10005380504E+04  0.10005380504E+04  0.00000000000E+00 0.  1.
          1   -1    0    0  501    0  0.00000000000E+00 -0.00000000000E+00 -0.16896397004E+04  0.16896397004E+04  0.00000000000E+00 0. -1.
         23    2    1    2    0    0 -0.10128873273E+04  0.46305560025E+03 -0.44887583048E+02  0.11185261127E+04  0.93405261294E+02 0.  0.
        254    2    1    2    0    0  0.10128873273E+04 -0.46305560025E+03 -0.64421406704E+03  0.15716516381E+04  0.90261613142E+03 0.  0.
         23    2    4    4    0    0  0.11096724108E+04 -0.57682564221E+03 -0.52109695763E+03  0.13577054019E+04  0.87870576902E+02 0.  0.
         23    2    4    4    0    0 -0.96785083462E+02  0.11377004196E+03 -0.12311710941E+03  0.21394623625E+03  0.91127353461E+02 0.  0.
          3    1    3    3  502    0 -0.16556696388E+03  0.64995906379E+02 -0.40183162916E+02  0.18235014109E+03  0.00000000000E+00 0.  1.
         -3    1    3    3    0  502 -0.84732036344E+03  0.39805969387E+03 -0.47044201325E+01  0.93617597158E+03  0.00000000000E+00 0. -1.
         11    1    5    5    0    0  0.39468422360E+03 -0.22784416253E+03 -0.14977125915E+03  0.47970827471E+03  0.00000000000E+00 0. -1.
        -11    1    5    5    0    0  0.71498818717E+03 -0.34898147968E+03 -0.37132569848E+03  0.87799712717E+03  0.00000000000E+00 0.  1.
          1    1    6    6  503    0 -0.20566293443E+02  0.58957662145E+02 -0.98949369187E+02  0.11700408546E+03  0.00000000000E+00 0. -1.
         -1    1    6    6    0  503 -0.76218790019E+02  0.54812379814E+02 -0.24167740222E+02  0.96942150792E+02  0.00000000000E+00 0.  1.
<mgrwt>
<rscale>  0 0.26004221E+04</rscale>
<asrwt>0</asrwt>
<pdfrwt beam="1">  1        1 0.25994457E+00 0.26004221E+04</pdfrwt>
<pdfrwt beam="2">  1       -1 0.15392893E+00 0.26004221E+04</pdfrwt>
<totfact> 0.13876124E+00</totfact>
</mgrwt>
</event>
<event>
12    2  0.8147979E-008  0.1303105E+04  0.7818608E-02  0.9027107E-01
         -2   -1    0    0    0  501 -0.00000000000E+00  0.00000000000E+00  0.18244384633E+03  0.18244384633E+03  0.00000000000E+00 0.  1.
          2   -1    0    0  501    0  0.00000000000E+00 -0.00000000000E+00 -0.23268564887E+04  0.23268564887E+04  0.00000000000E+00 0. -1.
         23    2    1    2    0    0  0.32866488854E+03  0.30238180065E+02 -0.59598589495E+03  0.68716539249E+03  0.89789382249E+02 0.  0.
        254    2    1    2    0    0 -0.32866488854E+03 -0.30238180065E+02 -0.15484267474E+04  0.18221349425E+04  0.90200631935E+03 0.  0.
         23    2    4    4    0    0 -0.28127724516E+03 -0.22573706790E+03 -0.14212797569E+03  0.39867335144E+03  0.93091176848E+02 0.  0.
         23    2    4    4    0    0 -0.47387643384E+02  0.19549888783E+03 -0.14062987717E+04  0.14234615911E+04  0.90007011116E+02 0.  0.
          2    1    3    3  502    0  0.18271913840E+03 -0.16779628358E+02 -0.38347145388E+03  0.42510962752E+03  0.00000000000E+00 0. -1.
         -2    1    3    3    0  502  0.14594575015E+03  0.47017808423E+02 -0.21251444106E+03  0.26205576497E+03  0.00000000000E+00 0.  1.
         11    1    5    5    0    0 -0.18680125697E+01 -0.53701639370E+01 -0.22567139953E+02  0.23272385725E+02  0.00000000000E+00 0. -1.
        -11    1    5    5    0    0 -0.27940923259E+03 -0.22036690396E+03 -0.11956083574E+03  0.37540096572E+03  0.00000000000E+00 0.  1.
          3    1    6    6  503    0  0.24114239053E+02  0.23991941895E+02 -0.18367599169E+03  0.18679930333E+03  0.00000000000E+00 0. -1.
         -3    1    6    6    0  503 -0.71501882437E+02  0.17150694594E+03 -0.12226227800E+04  0.12366622877E+04  0.00000000000E+00 0.  1.
<mgrwt>
<rscale>  0 0.13031050E+04</rscale>
<asrwt>0</asrwt>
<pdfrwt beam="1">  1        2 0.35797792E+00 0.13031050E+04</pdfrwt>
<pdfrwt beam="2">  1       -2 0.28068284E-01 0.13031050E+04</pdfrwt>
<totfact> 0.49930229E+01</totfact>
</mgrwt>
</event>
<event>
12    2  0.8147979E-008  0.4194847E+04  0.7818608E-02  0.7966353E-01
         -1   -1    0    0    0  501 -0.00000000000E+00  0.00000000000E+00  0.16246821415E+04  0.16246821415E+04  0.00000000000E+00 0.  1.
          1   -1    0    0  501    0  0.00000000000E+00 -0.00000000000E+00 -0.27077207904E+04  0.27077207904E+04  0.00000000000E+00 0. -1.
         23    2    1    2    0    0 -0.16954671953E+04  0.99771674890E+03 -0.88713191579E+03  0.21599832285E+04  0.92069484553E+02 0.  0.
        254    2    1    2    0    0  0.16954671953E+04 -0.99771674890E+03 -0.19590673314E+03  0.21724197033E+04  0.90054438979E+03 0.  0.
         23    2    4    4    0    0  0.11232806057E+04 -0.48881507336E+03 -0.52236868168E+03  0.13350667249E+04  0.93992687897E+02 0.  0.
         23    2    4    4    0    0  0.57218658966E+03 -0.50890167554E+03  0.32646194854E+03  0.83735297843E+03  0.90577027402E+02 0.  0.
          3    1    3    3  502    0 -0.34914218867E+03  0.16498533445E+03 -0.18594693810E+03  0.42859852110E+03  0.00000000000E+00 0.  1.
         -3    1    3    3    0  502 -0.13463250066E+04  0.83273141445E+03 -0.70118497769E+03  0.17313847074E+04  0.00000000000E+00 0. -1.
         11    1    5    5    0    0  0.60712671456E+03 -0.29866916498E+03 -0.25061709619E+03  0.72153658711E+03  0.00000000000E+00 0. -1.
        -11    1    5    5    0    0  0.51615389109E+03 -0.19014590837E+03 -0.27175158550E+03  0.61353013780E+03  0.00000000000E+00 0.  1.
          3    1    6    6  503    0  0.33468141965E+03 -0.29383302227E+03  0.23793021853E+03  0.50493592319E+03  0.00000000000E+00 0. -1.
         -3    1    6    6    0  503  0.23750517000E+03 -0.21506865327E+03  0.88531730015E+02  0.33241705524E+03  0.00000000000E+00 0.  1.
<mgrwt>
<rscale>  0 0.41948471E+04</rscale>
<asrwt>0</asrwt>
<pdfrwt beam="1">  1        1 0.41657243E+00 0.41948471E+04</pdfrwt>
<pdfrwt beam="2">  1       -1 0.24995110E+00 0.41948471E+04</pdfrwt>
<totfact> 0.52082152E-02</totfact>
</mgrwt>
</event>
<event>
12    2  0.8147979E-008  0.1275495E+04  0.7818608E-02  0.9049227E-01
          1   -1    0    0  501    0  0.00000000000E+00  0.00000000000E+00  0.24766154225E+04  0.24766154225E+04  0.00000000000E+00 0. -1.
         -1   -1    0    0    0  501 -0.00000000000E+00 -0.00000000000E+00 -0.16422495656E+03  0.16422495656E+03  0.00000000000E+00 0.  1.
         23    2    1    2    0    0 -0.29105959137E+03 -0.10791084357E+03  0.66877258768E+03  0.74253204500E+03  0.87958103259E+02 0.  0.
        254    2    1    2    0    0  0.29105959137E+03  0.10791084357E+03  0.16436178783E+04  0.18983083341E+04  0.89762707488E+03 0.  0.
         23    2    4    4    0    0 -0.16226362901E+03  0.21583515581E+03  0.12501438829E+04  0.12818711004E+04  0.86136463190E+02 0.  0.
         23    2    4    4    0    0  0.45332322037E+03 -0.10792431224E+03  0.39347399533E+03  0.61643723364E+03  0.89573872933E+02 0.  0.
          3    1    3    3  502    0 -0.23111466836E+03 -0.57115699010E+02  0.55856999945E+03  0.60718748117E+03  0.00000000000E+00 0. -1.
         -3    1    3    3    0  502 -0.59944923009E+02 -0.50795144556E+02  0.11020258823E+03  0.13534456383E+03  0.00000000000E+00 0.  1.
         11    1    5    5    0    0 -0.31133153865E+02  0.79853909670E+02  0.25683269910E+03  0.27075626583E+03  0.00000000000E+00 0.  1.
        -11    1    5    5    0    0 -0.13113047514E+03  0.13598124614E+03  0.99331118383E+03  0.10111148346E+04  0.00000000000E+00 0. -1.
          3    1    6    6  503    0  0.43863531413E+03 -0.95060986851E+02  0.39353192211E+03  0.59691281084E+03  0.00000000000E+00 0. -1.
         -3    1    6    6    0  503  0.14687906245E+02 -0.12863325393E+02 -0.57926787691E-01  0.19524422797E+02  0.00000000000E+00 0.  1.
<mgrwt>
<rscale>  0 0.12754953E+04</rscale>
<asrwt>0</asrwt>
<pdfrwt beam="1">  1        1 0.38101773E+00 0.12754953E+04</pdfrwt>
<pdfrwt beam="2">  1       -1 0.25265380E-01 0.12754953E+04</pdfrwt>
<totfact> 0.19131669E+01</totfact>
</mgrwt>
</event>
<event>
12    2  0.8147979E-008  0.1764454E+04  0.7818608E-02  0.8725434E-01
          2   -1    0    0  501    0  0.00000000000E+00  0.00000000000E+00  0.93205908564E+03  0.93205908564E+03  0.00000000000E+00 0. -1.
         -2   -1    0    0    0  501 -0.00000000000E+00 -0.00000000000E+00 -0.83505903016E+03  0.83505903016E+03  0.00000000000E+00 0.  1.
         23    2    1    2    0    0  0.98274914485E+02  0.64252370727E+03  0.44726774822E+02  0.65797146473E+03  0.91822060456E+02 0.  0.
        254    2    1    2    0    0 -0.98274914485E+02 -0.64252370727E+03  0.52273280649E+02  0.11091466511E+04  0.89720628871E+03 0.  0.
         23    2    4    4    0    0 -0.44856431253E+03 -0.13864576501E+03 -0.45423074435E+02  0.48101081452E+03  0.94210176545E+02 0.  0.
         23    2    4    4    0    0  0.35028939804E+03 -0.50387794226E+03  0.97696355084E+02  0.62813583656E+03  0.91730083917E+02 0.  0.
          3    1    3    3  502    0  0.36976393259E+02  0.49293817838E+03  0.44399693185E+02  0.49631304045E+03  0.00000000000E+00 0. -1.
         -3    1    3    3    0  502  0.61298521226E+02  0.14958552889E+03  0.32708163717E+00  0.16165842428E+03  0.00000000000E+00 0.  1.
         11    1    5    5    0    0 -0.29292849426E+03 -0.46761330638E+02 -0.46577170146E+02  0.30027180616E+03  0.00000000000E+00 0.  1.
        -11    1    5    5    0    0 -0.15563581826E+03 -0.91884434371E+02  0.11540957106E+01  0.18073900836E+03  0.00000000000E+00 0. -1.
          3    1    6    6  503    0  0.13214745208E+03 -0.13948668199E+03  0.62189222567E+02  0.20195787419E+03  0.00000000000E+00 0. -1.
         -3    1    6    6    0  503  0.21814194596E+03 -0.36439126027E+03  0.35507132517E+02  0.42617796237E+03  0.00000000000E+00 0.  1.
<mgrwt>
<rscale>  0 0.17644539E+04</rscale>
<asrwt>0</asrwt>
<pdfrwt beam="1">  1        2 0.14339371E+00 0.17644539E+04</pdfrwt>
<pdfrwt beam="2">  1       -2 0.12847062E+00 0.17644539E+04</pdfrwt>
<totfact> 0.11821324E+01</totfact>
</mgrwt>
</event>
<event>
12    2  0.8147979E-008  0.1362852E+04  0.7818608E-02  0.8981156E-01
          2   -1    0    0  501    0  0.00000000000E+00  0.00000000000E+00  0.60143842520E+03  0.60143842520E+03  0.00000000000E+00 0.  1.
         -2   -1    0    0    0  501 -0.00000000000E+00 -0.00000000000E+00 -0.77205131487E+03  0.77205131487E+03  0.00000000000E+00 0. -1.
         23    2    1    2    0    0  0.80423512730E+02 -0.41634317125E+02 -0.41595818002E+03  0.43520956331E+03  0.90469877354E+02 0.  0.
        254    2    1    2    0    0 -0.80423512730E+02  0.41634317125E+02  0.24534529035E+03  0.93828017676E+03  0.90109601089E+03 0.  0.
         23    2    4    4    0    0  0.29818626253E+03  0.15558542352E+03  0.37670913604E+03  0.51354141474E+03  0.93237011434E+02 0.  0.
         23    2    4    4    0    0 -0.37860977526E+03 -0.11395110639E+03 -0.13136384569E+03  0.42473876202E+03  0.82561125481E+02 0.  0.
          3    1    3    3  502    0  0.90595332619E+02 -0.55489279593E+02 -0.38893302246E+03  0.40318168411E+03  0.00000000000E+00 0. -1.
         -3    1    3    3    0  502 -0.10171819888E+02  0.13854962468E+02 -0.27025157554E+02  0.32027879194E+02  0.00000000000E+00 0.  1.
         11    1    5    5    0    0  0.20234417324E+02  0.45946425873E+02  0.52216291350E+02  0.72436501691E+02  0.00000000000E+00 0.  1.
        -11    1    5    5    0    0  0.27795184520E+03  0.10963899765E+03  0.32449284470E+03  0.44110491305E+03  0.00000000000E+00 0. -1.
          3    1    6    6  503    0 -0.35260614701E+03 -0.10765787337E+03 -0.97063851486E+02  0.38123838195E+03  0.00000000000E+00 0. -1.
         -3    1    6    6    0  503 -0.26003628253E+02 -0.62932330212E+01 -0.34299994205E+02  0.43500380075E+02  0.00000000000E+00 0.  1.
<mgrwt>
<rscale>  0 0.13628519E+04</rscale>
<asrwt>0</asrwt>
<pdfrwt beam="1">  1        2 0.92528989E-01 0.13628519E+04</pdfrwt>
<pdfrwt beam="2">  1       -2 0.11877712E+00 0.13628519E+04</pdfrwt>
<totfact> 0.26282021E+01</totfact>
</mgrwt>
</event>
<event>
12    2  0.8147979E-008  0.1500613E+04  0.7818608E-02  0.8884045E-01
         -2   -1    0    0    0  501 -0.00000000000E+00  0.00000000000E+00  0.55690858472E+03  0.55690858472E+03  0.00000000000E+00 0.  1.
          2   -1    0    0  501    0  0.00000000000E+00 -0.00000000000E+00 -0.10108659103E+04  0.10108659103E+04  0.00000000000E+00 0. -1.
         23    2    1    2    0    0 -0.28876779012E+03  0.34908984063E+03 -0.29045782580E+03  0.54618119744E+03  0.93260915904E+02 0.  0.
        254    2    1    2    0    0  0.28876779012E+03 -0.34908984063E+03 -0.16349949980E+03  0.10215932976E+04  0.90092742538E+03 0.  0.
         23    2    4    4    0    0 -0.17463164167E+03 -0.22297186606E+02  0.24597407068E+03  0.31595137049E+03  0.91261439095E+02 0.  0.
         23    2    4    4    0    0  0.46339943178E+03 -0.32679265402E+03 -0.40947357047E+03  0.70564192710E+03  0.93431537869E+02 0.  0.
          3    1    3    3  502    0 -0.14271161588E+03  0.18092390893E+03 -0.20228663139E+03  0.30662672318E+03  0.00000000000E+00 0. -1.
         -3    1    3    3    0  502 -0.14605617424E+03  0.16816593170E+03 -0.88171194410E+02  0.23955447426E+03  0.00000000000E+00 0.  1.
         11    1    5    5    0    0 -0.18098983251E+03 -0.34733244709E+02  0.22701783529E+03  0.29240522447E+03  0.00000000000E+00 0.  1.
        -11    1    5    5    0    0  0.63581908454E+01  0.12436058103E+02  0.18956235386E+02  0.23546146011E+02  0.00000000000E+00 0. -1.
          3    1    6    6  503    0  0.16794091010E+03 -0.10099704719E+03 -0.19454363297E+03  0.27613724478E+03  0.00000000000E+00 0. -1.
         -3    1    6    6    0  503  0.29545852168E+03 -0.22579560684E+03 -0.21492993750E+03  0.42950468232E+03  0.00000000000E+00 0.  1.
<mgrwt>
<rscale>  0 0.15006131E+04</rscale>
<asrwt>0</asrwt>
<pdfrwt beam="1">  1        2 0.15551783E+00 0.15006131E+04</pdfrwt>
<pdfrwt beam="2">  1       -2 0.85678245E-01 0.15006131E+04</pdfrwt>
<totfact> 0.28343477E+01</totfact>
</mgrwt>
</event>
<event>
12    2  0.8147979E-008  0.2808005E+04  0.7818608E-02  0.8300787E-01
          2   -1    0    0  501    0  0.00000000000E+00  0.00000000000E+00  0.16222995266E+04  0.16222995266E+04  0.00000000000E+00 0. -1.
         -2   -1    0    0    0  501 -0.00000000000E+00 -0.00000000000E+00 -0.12150797365E+04  0.12150797365E+04  0.00000000000E+00 0.  1.
         23    2    1    2    0    0  0.11885590546E+04  0.40793449575E+03  0.20888806786E+03  0.12773321334E+04  0.94127440675E+02 0.  0.
        254    2    1    2    0    0 -0.11885590546E+04 -0.40793449575E+03  0.19833172217E+03  0.15600471297E+04  0.90295536746E+03 0.  0.
         23    2    4    4    0    0 -0.90940692132E+03 -0.18264658069E+03  0.52239720443E+03  0.10681853437E+04  0.87979357203E+02 0.  0.
         23    2    4    4    0    0 -0.27915213331E+03 -0.22528791505E+03 -0.32406548227E+03  0.49186178598E+03  0.90713954360E+02 0.  0.
          2    1    3    3  502    0  0.77072081811E+03  0.21823653274E+03  0.12106141317E+03  0.81011951553E+03  0.00000000000E+00 0. -1.
         -2    1    3    3    0  502  0.41783823652E+03  0.18969796300E+03  0.87826654690E+02  0.46721261792E+03  0.00000000000E+00 0.  1.
         11    1    5    5    0    0 -0.71719979021E+03 -0.11613803656E+03  0.43502726660E+03  0.84682483743E+03  0.00000000000E+00 0.  1.
        -11    1    5    5    0    0 -0.19220713112E+03 -0.66508544139E+02  0.87369937836E+02  0.22136050626E+03  0.00000000000E+00 0. -1.
          4    1    6    6  503    0 -0.44681337008E+02 -0.32309445464E+02 -0.10098088667E+03  0.11505416818E+03  0.00000000000E+00 0. -1.
         -4    1    6    6    0  503 -0.23447079630E+03 -0.19297846959E+03 -0.22308459559E+03  0.37680761780E+03  0.00000000000E+00 0.  1.
<mgrwt>
<rscale>  0 0.28080052E+04</rscale>
<asrwt>0</asrwt>
<pdfrwt beam="1">  1        2 0.24958454E+00 0.28080052E+04</pdfrwt>
<pdfrwt beam="2">  1       -2 0.18693534E+00 0.28080052E+04</pdfrwt>
<totfact> 0.15319699E+00</totfact>
</mgrwt>
</event>
<event>
12    2  0.8147979E-008  0.2710946E+04  0.7818608E-02  0.8331462E-01
         -1   -1    0    0    0  501 -0.00000000000E+00  0.00000000000E+00  0.16731065236E+04  0.16731065236E+04  0.00000000000E+00 0.  1.
          1   -1    0    0  501    0  0.00000000000E+00 -0.00000000000E+00 -0.10981407078E+04  0.10981407078E+04  0.00000000000E+00 0. -1.
         23    2    1    2    0    0  0.10271062180E+04  0.49378420057E+03  0.65446331789E+03  0.13170386682E+04  0.86594452870E+02 0.  0.
        254    2    1    2    0    0 -0.10271062180E+04 -0.49378420057E+03 -0.79497502056E+02  0.14542085632E+04  0.89979590608E+03 0.  0.
         23    2    4    4    0    0 -0.19186091174E+03  0.23535934666E+03 -0.12537991643E+03  0.34077698437E+03  0.90577028646E+02 0.  0.
         23    2    4    4    0    0 -0.83524530630E+03 -0.72914354723E+03  0.45882414371E+02  0.11134315788E+04  0.91321687697E+02 0.  0.
          2    1    3    3  502    0  0.79458937068E+03  0.34471642127E+03  0.51404045858E+03  0.10071937610E+04  0.00000000000E+00 0. -1.
         -2    1    3    3    0  502  0.23251684736E+03  0.14906777930E+03  0.14042285931E+03  0.30984490725E+03  0.00000000000E+00 0.  1.
         11    1    5    5    0    0 -0.14786256379E+02  0.68113054659E+02 -0.72620523519E+01  0.70076807840E+02  0.00000000000E+00 0.  1.
        -11    1    5    5    0    0 -0.17707465536E+03  0.16724629200E+03 -0.11811786407E+03  0.27070017653E+03  0.00000000000E+00 0. -1.
          3    1    6    6  503    0 -0.24246450397E+03 -0.17242196752E+03  0.39939059986E+02  0.30018910553E+03  0.00000000000E+00 0. -1.
         -3    1    6    6    0  503 -0.59278080234E+03 -0.55672157971E+03  0.59433543849E+01  0.81324247331E+03  0.00000000000E+00 0.  1.
<mgrwt>
<rscale>  0 0.27109455E+04</rscale>
<asrwt>0</asrwt>
<pdfrwt beam="1">  1        1 0.16894473E+00 0.27109455E+04</pdfrwt>
<pdfrwt beam="2">  1       -1 0.25740100E+00 0.27109455E+04</pdfrwt>
<totfact> 0.69217046E-01</totfact>
</mgrwt>
</event>
<event>
12    2  0.8147979E-008  0.1565938E+04  0.7818608E-02  0.8841751E-01
          2   -1    0    0  501    0  0.00000000000E+00  0.00000000000E+00  0.91529597016E+03  0.91529597016E+03  0.00000000000E+00 0. -1.
         -2   -1    0    0    0  501 -0.00000000000E+00 -0.00000000000E+00 -0.66977257480E+03  0.66977257480E+03  0.00000000000E+00 0.  1.
         23    2    1    2    0    0 -0.18561270894E+03 -0.20024707838E+03 -0.36261866016E+03  0.46502685569E+03  0.10102828166E+03 0.  0.
        254    2    1    2    0    0  0.18561270894E+03  0.20024707838E+03  0.60814205552E+03  0.11200416893E+04  0.90005869581E+03 0.  0.
         23    2    4    4    0    0  0.30068049024E+03 -0.44921403679E+02 -0.11852776398E+03  0.33903245615E+03  0.92018942454E+02 0.  0.
         23    2    4    4    0    0 -0.11506778130E+03  0.24516848206E+03  0.72666981950E+03  0.78100923312E+03  0.92618663164E+02 0.  0.
          2    1    3    3  502    0 -0.13651675581E+03 -0.78168703200E+02 -0.16854586474E+03  0.23055341962E+03  0.00000000000E+00 0. -1.
         -2    1    3    3    0  502 -0.49095953129E+02 -0.12207837518E+03 -0.19407279542E+03  0.23447343607E+03  0.00000000000E+00 0.  1.
         11    1    5    5    0    0 -0.49093914072E+01  0.39773591198E+01  0.24125156069E+01  0.67632640870E+01  0.00000000000E+00 0. -1.
        -11    1    5    5    0    0  0.30558988164E+03 -0.48898762799E+02 -0.12094027959E+03  0.33226919206E+03  0.00000000000E+00 0.  1.
          2    1    6    6  503    0  0.40825581740E+00  0.42659593215E+02  0.20843153580E+03  0.21275270311E+03  0.00000000000E+00 0. -1.
         -2    1    6    6    0  503 -0.11547603712E+03  0.20250888884E+03  0.51823828370E+03  0.56825653002E+03  0.00000000000E+00 0.  1.
<mgrwt>
<rscale>  0 0.15659376E+04</rscale>
<asrwt>0</asrwt>
<pdfrwt beam="1">  1        2 0.14081476E+00 0.15659376E+04</pdfrwt>
<pdfrwt beam="2">  1       -2 0.10304193E+00 0.15659376E+04</pdfrwt>
<totfact> 0.21173738E+01</totfact>
</mgrwt>
</event>
<event>
12    2  0.8147979E-008  0.2014680E+04  0.7818608E-02  0.8599788E-01
         -2   -1    0    0    0  501 -0.00000000000E+00  0.00000000000E+00  0.60980767414E+03  0.60980767414E+03  0.00000000000E+00 0.  1.
          2   -1    0    0  501    0  0.00000000000E+00 -0.00000000000E+00 -0.16640221174E+04  0.16640221174E+04  0.00000000000E+00 0. -1.
         23    2    1    2    0    0  0.22562605666E+03  0.73749537422E+03 -0.16728713247E+03  0.79378759788E+03  0.85482287232E+02 0.  0.
        254    2    1    2    0    0 -0.22562605666E+03 -0.73749537422E+03 -0.88692731076E+03  0.14800421936E+04  0.89948779642E+03 0.  0.
         23    2    4    4    0    0  0.29991727898E+03 -0.52403437414E+03 -0.45914251478E+03  0.76391402825E+03  0.90500796490E+02 0.  0.
         23    2    4    4    0    0 -0.52554333564E+03 -0.21346100008E+03 -0.42778479598E+03  0.71612816538E+03  0.89879482530E+02 0.  0.
          1    1    3    3  502    0  0.83940462846E+02  0.21983884421E+03 -0.88151311298E+02  0.25128822577E+03  0.00000000000E+00 0. -1.
         -1    1    3    3    0  502  0.14168559382E+03  0.51765653001E+03 -0.79135821167E+02  0.54249937212E+03  0.00000000000E+00 0.  1.
         11    1    5    5    0    0  0.18509327122E+03 -0.39733204299E+03 -0.35154405143E+03  0.56188565699E+03  0.00000000000E+00 0. -1.
        -11    1    5    5    0    0  0.11482400776E+03 -0.12670233115E+03 -0.10759846335E+03  0.20202837126E+03  0.00000000000E+00 0.  1.
          1    1    6    6  503    0 -0.38082520661E+03 -0.11234010402E+03 -0.27935336131E+03  0.48547547563E+03  0.00000000000E+00 0. -1.
         -1    1    6    6    0  503 -0.14471812904E+03 -0.10112089605E+03 -0.14843143468E+03  0.23065268975E+03  0.00000000000E+00 0.  1.
<mgrwt>
<rscale>  0 0.20146796E+04</rscale>
<asrwt>0</asrwt>
<pdfrwt beam="1">  1        2 0.25600340E+00 0.20146796E+04</pdfrwt>
<pdfrwt beam="2">  1       -2 0.93816567E-01 0.20146796E+04</pdfrwt>
<totfact> 0.91464457E+00</totfact>
</mgrwt>
</event>
<event>
12    2  0.8147979E-008  0.1494266E+04  0.7818608E-02  0.8888275E-01
         -2   -1    0    0    0  501 -0.00000000000E+00  0.00000000000E+00  0.48076137733E+03  0.48076137733E+03  0.00000000000E+00 0.  1.
          2   -1    0    0  501    0  0.00000000000E+00 -0.00000000000E+00 -0.11610905857E+04  0.11610905857E+04  0.00000000000E+00 0. -1.
         23    2    1    2    0    0 -0.22507962335E+03 -0.23872024944E+03 -0.58537893492E+03  0.67737689540E+03  0.92318831442E+02 0.  0.
        254    2    1    2    0    0  0.22507962335E+03  0.23872024944E+03 -0.94950273497E+02  0.96447506768E+03  0.90196918318E+03 0.  0.
         23    2    4    4    0    0 -0.38547298967E+02  0.45550486303E+03 -0.30173381055E+03  0.55495066700E+03  0.89198519459E+02 0.  0.
         23    2    4    4    0    0  0.26362692231E+03 -0.21678461359E+03  0.20678353705E+03  0.40952440069E+03  0.91956950287E+02 0.  0.
          2    1    3    3  502    0 -0.51190610008E+02 -0.11918124438E+03 -0.23142377945E+03  0.26529533214E+03  0.00000000000E+00 0. -1.
         -2    1    3    3    0  502 -0.17388901334E+03 -0.11953900506E+03 -0.35395515547E+03  0.41208156326E+03  0.00000000000E+00 0.  1.
         11    1    5    5    0    0 -0.38986360869E+02  0.12342441792E+03 -0.52196855998E+02  0.13956373113E+03  0.00000000000E+00 0.  1.
        -11    1    5    5    0    0  0.43906190193E+00  0.33208044511E+03 -0.24953695455E+03  0.41538693586E+03  0.00000000000E+00 0. -1.
          4    1    6    6  503    0  0.22994332490E+03 -0.18667103595E+03  0.21172830487E+03  0.36407263481E+03  0.00000000000E+00 0. -1.
         -4    1    6    6    0  503  0.33683597414E+02 -0.30113577639E+02 -0.49447678259E+01  0.45451765882E+02  0.00000000000E+00 0.  1.
<mgrwt>
<rscale>  0 0.14942657E+04</rscale>
<asrwt>0</asrwt>
<pdfrwt beam="1">  1        2 0.17862932E+00 0.14942657E+04</pdfrwt>
<pdfrwt beam="2">  1       -2 0.73963290E-01 0.14942657E+04</pdfrwt>
<totfact> 0.31825718E+01</totfact>
</mgrwt>
</event>
<event>
12    2  0.8147979E-008  0.1323374E+04  0.7818608E-02  0.9011232E-01
          1   -1    0    0  501    0  0.00000000000E+00  0.00000000000E+00  0.25434146186E+04  0.25434146186E+04  0.00000000000E+00 0. -1.
         -1   -1    0    0    0  501 -0.00000000000E+00 -0.00000000000E+00 -0.17214240832E+03  0.17214240832E+03  0.00000000000E+00 0.  1.
         23    2    1    2    0    0  0.10040646014E+03  0.29846342726E+03  0.34667142805E+03  0.47723985382E+03  0.91732897045E+02 0.  0.
        254    2    1    2    0    0 -0.10040646014E+03 -0.29846342726E+03  0.20246007822E+04  0.22383171730E+04  0.90105136664E+03 0.  0.
         23    2    4    4    0    0  0.15559683758E+03  0.16570326334E+03  0.13641976007E+04  0.13865255837E+04  0.98742864107E+02 0.  0.
         23    2    4    4    0    0 -0.25600329772E+03 -0.46416669060E+03  0.66040318151E+03  0.85179158936E+03  0.91804926090E+02 0.  0.
          3    1    3    3  502    0  0.87837280602E+02  0.22396214739E+03  0.20242713018E+03  0.31440606603E+03  0.00000000000E+00 0.  1.
         -3    1    3    3    0  502  0.12569179536E+02  0.74501279872E+02  0.14424429788E+03  0.16283378779E+03  0.00000000000E+00 0. -1.
         11    1    5    5    0    0  0.60927681454E+02  0.11445729817E+02  0.48060843534E+03  0.48459019307E+03  0.00000000000E+00 0. -1.
        -11    1    5    5    0    0  0.94669156125E+02  0.15425753352E+03  0.88358916533E+03  0.90193539062E+03  0.00000000000E+00 0.  1.
          4    1    6    6  503    0 -0.17007328527E+03 -0.23926706226E+03  0.31300259424E+03  0.42912034844E+03  0.00000000000E+00 0. -1.
         -4    1    6    6    0  503 -0.85930012448E+02 -0.22489962834E+03  0.34740058726E+03  0.42267124092E+03  0.00000000000E+00 0.  1.
<mgrwt>
<rscale>  0 0.13233737E+04</rscale>
<asrwt>0</asrwt>
<pdfrwt beam="1">  1        1 0.39129453E+00 0.13233737E+04</pdfrwt>
<pdfrwt beam="2">  1       -1 0.26483449E-01 0.13233737E+04</pdfrwt>
<totfact> 0.15793950E+01</totfact>
</mgrwt>
</event>
<event>
12    2  0.8147979E-008  0.2646231E+04  0.7818608E-02  0.8352665E-01
          3   -1    0    0  501    0  0.00000000000E+00  0.00000000000E+00  0.57066052802E+03  0.57066052802E+03  0.00000000000E+00 0. -1.
         -3   -1    0    0    0  501 -0.00000000000E+00 -0.00000000000E+00 -0.30677331548E+04  0.30677331548E+04  0.00000000000E+00 0.  1.
         23    2    1    2    0    0 -0.42545335017E+03 -0.91264021339E+03 -0.19182529777E+04  0.21684345166E+04  0.92146915949E+02 0.  0.
        254    2    1    2    0    0  0.42545335017E+03  0.91264021339E+03 -0.57881964910E+03  0.14699591662E+04  0.90101334723E+03 0.  0.
         23    2    4    4    0    0  0.47070916270E+03  0.99365306875E+03 -0.26682604140E+03  0.11342089852E+04  0.79500621876E+02 0.  0.
         23    2    4    4    0    0 -0.45255812532E+02 -0.81012855365E+02 -0.31199360770E+03  0.33575018100E+03  0.82322545493E+02 0.  0.
          3    1    3    3  502    0 -0.68871453398E+02 -0.24185595977E+03 -0.47870405495E+03  0.54073575302E+03  0.00000000000E+00 0. -1.
         -3    1    3    3    0  502 -0.35658189677E+03 -0.67078425362E+03 -0.14395489228E+04  0.16276987636E+04  0.00000000000E+00 0.  1.
         11    1    5    5    0    0  0.46906264524E+02  0.13467651725E+03 -0.57499941922E+02  0.15376672355E+03  0.00000000000E+00 0.  1.
        -11    1    5    5    0    0  0.42380289818E+03  0.85897655150E+03 -0.20932609948E+03  0.98044226166E+03  0.00000000000E+00 0. -1.
          3    1    6    6  503    0 -0.15488722197E+02 -0.39095210176E+02 -0.25719452350E+03  0.26060959095E+03  0.00000000000E+00 0. -1.
         -3    1    6    6    0  503 -0.29767090334E+02 -0.41917645188E+02 -0.54799084194E+02  0.75140590054E+02  0.00000000000E+00 0.  1.
<mgrwt>
<rscale>  0 0.26462307E+04</rscale>
<asrwt>0</asrwt>
<pdfrwt beam="1">  1        3 0.87793927E-01 0.26462307E+04</pdfrwt>
<pdfrwt beam="2">  1       -3 0.47195895E+00 0.26462307E+04</pdfrwt>
<totfact> 0.11601490E-02</totfact>
</mgrwt>
</event>
<event>
12    2  0.8147979E-008  0.1757457E+04  0.7818608E-02  0.8729256E-01
         -2   -1    0    0    0  501 -0.00000000000E+00  0.00000000000E+00  0.48644124555E+03  0.48644124555E+03  0.00000000000E+00 0.  1.
          2   -1    0    0  501    0  0.00000000000E+00 -0.00000000000E+00 -0.15873726298E+04  0.15873726298E+04  0.00000000000E+00 0. -1.
         23    2    1    2    0    0  0.11676216381E+03  0.36808150854E+03 -0.10120345186E+04  0.10870798587E+04  0.91713426521E+02 0.  0.
        254    2    1    2    0    0 -0.11676216381E+03 -0.36808150854E+03 -0.88896865659E+02  0.98673401661E+03  0.90367248879E+03 0.  0.
         23    2    4    4    0    0  0.43417832093E+01  0.12912579327E+03  0.29915779445E+03  0.33812330219E+03  0.90220063943E+02 0.  0.
         23    2    4    4    0    0 -0.12110394702E+03 -0.49720730180E+03 -0.38805466011E+03  0.64861071442E+03  0.90709275613E+02 0.  0.
          2    1    3    3  502    0  0.72493892364E+02  0.11793218194E+03 -0.28279559916E+03  0.31485983369E+03  0.00000000000E+00 0.  1.
         -2    1    3    3    0  502  0.44268271444E+02  0.25014932660E+03 -0.72923891943E+03  0.77222002504E+03  0.00000000000E+00 0. -1.
         11    1    5    5    0    0 -0.38918137777E+02  0.49583592925E+02  0.16141353940E+03  0.17328440448E+03  0.00000000000E+00 0. -1.
        -11    1    5    5    0    0  0.43259920987E+02  0.79542200344E+02  0.13774425505E+03  0.16483889771E+03  0.00000000000E+00 0.  1.
          3    1    6    6  503    0  0.11422029413E+02 -0.12237044816E+02 -0.92510198288E+01  0.19125621287E+02  0.00000000000E+00 0. -1.
         -3    1    6    6    0  503 -0.13252597643E+03 -0.48497025699E+03 -0.37880364028E+03  0.62948509314E+03  0.00000000000E+00 0.  1.
<mgrwt>
<rscale>  0 0.17574567E+04</rscale>
<asrwt>0</asrwt>
<pdfrwt beam="1">  1        2 0.24421118E+00 0.17574567E+04</pdfrwt>
<pdfrwt beam="2">  1       -2 0.74837114E-01 0.17574567E+04</pdfrwt>
<totfact> 0.17227112E+01</totfact>
</mgrwt>
</event>
<event>
12    2  0.8147979E-008  0.3192808E+04  0.7818608E-02  0.8190719E-01
          2   -1    0    0  501    0  0.00000000000E+00  0.00000000000E+00  0.15208509171E+04  0.15208509171E+04  0.00000000000E+00 0. -1.
         -2   -1    0    0    0  501 -0.00000000000E+00 -0.00000000000E+00 -0.16757106271E+04  0.16757106271E+04  0.00000000000E+00 0.  1.
         23    2    1    2    0    0 -0.14487558289E+04  0.23463322460E+03 -0.57599222960E+02  0.14715694510E+04  0.90844794330E+02 0.  0.
        254    2    1    2    0    0  0.14487558289E+04 -0.23463322460E+03 -0.97260487042E+02  0.17249920932E+04  0.90121690919E+03 0.  0.
         23    2    4    4    0    0  0.12307886867E+04 -0.15389057683E+03 -0.42401926422E+03  0.13139427080E+04  0.90166525846E+02 0.  0.
         23    2    4    4    0    0  0.21796714220E+03 -0.80742647773E+02  0.32675877718E+03  0.41104938526E+03  0.90339628126E+02 0.  0.
          4    1    3    3  502    0 -0.41224749242E+03  0.10739655388E+03 -0.72811417664E+01  0.42606927818E+03  0.00000000000E+00 0.  1.
         -4    1    3    3    0  502 -0.10365083365E+04  0.12723667072E+03 -0.50318081193E+02  0.10455001728E+04  0.00000000000E+00 0. -1.
         11    1    5    5    0    0  0.10484676365E+04 -0.13975379459E+03 -0.32818267991E+03  0.11074833540E+04  0.00000000000E+00 0. -1.
        -11    1    5    5    0    0  0.18232105021E+03 -0.14136782235E+02 -0.95836584309E+02  0.20645935400E+03  0.00000000000E+00 0.  1.
          1    1    6    6  503    0  0.17949204589E+03 -0.52545482923E+02  0.30686306911E+03  0.35936522577E+03  0.00000000000E+00 0. -1.
         -1    1    6    6    0  503  0.38475096316E+02 -0.28197164849E+02  0.19895708065E+02  0.51684159483E+02  0.00000000000E+00 0.  1.
<mgrwt>
<rscale>  0 0.31928082E+04</rscale>
<asrwt>0</asrwt>
<pdfrwt beam="1">  1        2 0.23397706E+00 0.31928082E+04</pdfrwt>
<pdfrwt beam="2">  1       -2 0.25780164E+00 0.31928082E+04</pdfrwt>
<totfact> 0.59905691E-01</totfact>
</mgrwt>
</event>
<event>
12    2  0.8147979E-008  0.1610535E+04  0.7818608E-02  0.8814102E-01
          1   -1    0    0  501    0  0.00000000000E+00  0.00000000000E+00  0.44892518428E+03  0.44892518428E+03  0.00000000000E+00 0. -1.
         -1   -1    0    0    0  501 -0.00000000000E+00 -0.00000000000E+00 -0.14444630070E+04  0.14444630070E+04  0.00000000000E+00 0.  1.
         23    2    1    2    0    0  0.49271792693E+03  0.60416505292E+02 -0.67111708083E+02  0.50971765311E+03  0.94270859266E+02 0.  0.
        254    2    1    2    0    0 -0.49271792693E+03 -0.60416505292E+02 -0.92842611459E+03  0.13836705381E+04  0.89785744870E+03 0.  0.
         23    2    4    4    0    0  0.15288110331E+03  0.24306368229E+03 -0.21062009060E+03  0.36751468237E+03  0.90849511835E+02 0.  0.
         23    2    4    4    0    0 -0.64559903023E+03 -0.30348018758E+03 -0.71780602399E+03  0.10161558557E+04  0.91809057318E+02 0.  0.
          3    1    3    3  502    0  0.46365225658E+03  0.36235007334E+02 -0.48537102255E+02  0.46759196003E+03  0.00000000000E+00 0. -1.
         -3    1    3    3    0  502  0.29065670345E+02  0.24181497957E+02 -0.18574605827E+02  0.42125693083E+02  0.00000000000E+00 0.  1.
         11    1    5    5    0    0  0.19306810192E+02  0.47918627513E+02 -0.12650361927E+01  0.51677346092E+02  0.00000000000E+00 0.  1.
        -11    1    5    5    0    0  0.13357429311E+03  0.19514505477E+03 -0.20935505441E+03  0.31583733628E+03  0.00000000000E+00 0. -1.
          3    1    6    6  503    0 -0.41262916742E+03 -0.14476798865E+03 -0.44347114680E+03  0.62280595564E+03  0.00000000000E+00 0. -1.
         -3    1    6    6    0  503 -0.23296986281E+03 -0.15871219893E+03 -0.27433487719E+03  0.39334990010E+03  0.00000000000E+00 0.  1.
<mgrwt>
<rscale>  0 0.16105351E+04</rscale>
<asrwt>0</asrwt>
<pdfrwt beam="1">  1        1 0.69065414E-01 0.16105351E+04</pdfrwt>
<pdfrwt beam="2">  1       -1 0.22222508E+00 0.16105351E+04</pdfrwt>
<totfact> 0.52367524E+00</totfact>
</mgrwt>
</event>
<event>
12    2  0.8147979E-008  0.2200411E+04  0.7818608E-02  0.8518257E-01
         -1   -1    0    0    0  501 -0.00000000000E+00  0.00000000000E+00  0.64620300535E+03  0.64620300535E+03  0.00000000000E+00 0.  1.
          1   -1    0    0  501    0  0.00000000000E+00 -0.00000000000E+00 -0.18731764723E+04  0.18731764723E+04  0.00000000000E+00 0. -1.
         23    2    1    2    0    0 -0.22067359839E+03  0.67642096652E+03 -0.11684156240E+04  0.13710551974E+04  0.91406362645E+02 0.  0.
        254    2    1    2    0    0  0.22067359839E+03 -0.67642096652E+03 -0.58557842984E+02  0.11483242802E+04  0.89943174869E+03 0.  0.
         23    2    4    4    0    0  0.53262680135E+02 -0.29849419144E+03  0.40946495217E+03  0.51751309728E+03  0.90678351210E+02 0.  0.
         23    2    4    4    0    0  0.16741091826E+03 -0.37792677508E+03 -0.46802279516E+03  0.63081118292E+03  0.89567565779E+02 0.  0.
          4    1    3    3  502    0 -0.10730621929E+03  0.32762766348E+03 -0.65374227706E+03  0.73907609581E+03  0.00000000000E+00 0. -1.
         -4    1    3    3    0  502 -0.11336737910E+03  0.34879330305E+03 -0.51467334690E+03  0.63197910163E+03  0.00000000000E+00 0.  1.
         11    1    5    5    0    0 -0.55801703087E+01  0.46711385664E+01  0.13728049687E+02  0.15537605490E+02  0.00000000000E+00 0.  1.
        -11    1    5    5    0    0  0.58842850444E+02 -0.30316533001E+03  0.39573690249E+03  0.50197549179E+03  0.00000000000E+00 0. -1.
          3    1    6    6  503    0 -0.10743652152E+02 -0.13180310153E+02 -0.18227701946E+02  0.24927810886E+02  0.00000000000E+00 0. -1.
         -3    1    6    6    0  503  0.17815457041E+03 -0.36474646493E+03 -0.44979509321E+03  0.60588337204E+03  0.00000000000E+00 0.  1.
<mgrwt>
<rscale>  0 0.22004111E+04</rscale>
<asrwt>0</asrwt>
<pdfrwt beam="1">  1        1 0.28818099E+00 0.22004111E+04</pdfrwt>
<pdfrwt beam="2">  1       -1 0.99415848E-01 0.22004111E+04</pdfrwt>
<totfact> 0.31992810E+00</totfact>
</mgrwt>
</event>
<event>
12    2  0.8147979E-008  0.2354199E+04  0.7818608E-02  0.8456853E-01
          2   -1    0    0  501    0  0.00000000000E+00  0.00000000000E+00  0.21339722286E+04  0.21339722286E+04  0.00000000000E+00 0. -1.
         -2   -1    0    0    0  501 -0.00000000000E+00 -0.00000000000E+00 -0.64928833607E+03  0.64928833607E+03  0.00000000000E+00 0.  1.
         23    2    1    2    0    0  0.64217819431E+03  0.73979767604E+03  0.38339443379E+03  0.10564575339E+04  0.97045320949E+02 0.  0.
        254    2    1    2    0    0 -0.64217819431E+03 -0.73979767604E+03  0.11012894587E+04  0.17268030308E+04  0.89962036463E+03 0.  0.
         23    2    4    4    0    0 -0.96622796771E+01 -0.68230224296E+03  0.57209961886E+03  0.89515780210E+03  0.91541282334E+02 0.  0.
         23    2    4    4    0    0 -0.63251591464E+03 -0.57495433088E+02  0.52918983986E+03  0.83164522866E+03  0.90607906169E+02 0.  0.
          4    1    3    3  502    0  0.48400038813E+03  0.53446102116E+03  0.23824164746E+03  0.75938398814E+03  0.00000000000E+00 0. -1.
         -4    1    3    3    0  502  0.15817780618E+03  0.20533665488E+03  0.14515278633E+03  0.29707354575E+03  0.00000000000E+00 0.  1.
         11    1    5    5    0    0 -0.49528096137E+02 -0.31173354201E+03  0.27111439098E+03  0.41609355501E+03  0.00000000000E+00 0.  1.
        -11    1    5    5    0    0  0.39865816460E+02 -0.37056870094E+03  0.30098522788E+03  0.47906424709E+03  0.00000000000E+00 0. -1.
          3    1    6    6  503    0 -0.25413293395E+03 -0.67809163327E+02  0.21508315028E+03  0.33976814490E+03  0.00000000000E+00 0. -1.
         -3    1    6    6    0  503 -0.37838298068E+03  0.10313730239E+02  0.31410668957E+03  0.49187708377E+03  0.00000000000E+00 0.  1.
<mgrwt>
<rscale>  0 0.23541990E+04</rscale>
<asrwt>0</asrwt>
<pdfrwt beam="1">  1        2 0.32830342E+00 0.23541990E+04</pdfrwt>
<pdfrwt beam="2">  1       -2 0.99890514E-01 0.23541990E+04</pdfrwt>
<totfact> 0.42036264E+00</totfact>
</mgrwt>
</event>
<event>
12    2  0.8147979E-008  0.2119650E+04  0.7818608E-02  0.8552636E-01
          2   -1    0    0  501    0  0.00000000000E+00  0.00000000000E+00  0.29352850398E+04  0.29352850398E+04  0.00000000000E+00 0. -1.
         -2   -1    0    0    0  501 -0.00000000000E+00 -0.00000000000E+00 -0.38266439961E+03  0.38266439961E+03  0.00000000000E+00 0.  1.
         23    2    1    2    0    0 -0.50516772527E+02  0.61593488473E+03  0.10020708637E+03  0.63319458529E+03  0.94690000267E+02 0.  0.
        254    2    1    2    0    0  0.50516772527E+02 -0.61593488473E+03  0.24524135538E+04  0.26847548541E+04  0.90091545731E+03 0.  0.
         23    2    4    4    0    0 -0.14618282355E+03 -0.54996533533E+03  0.23756338631E+04  0.24445330599E+04  0.90963408123E+02 0.  0.
         23    2    4    4    0    0  0.19669959608E+03 -0.65969549399E+02  0.76779690733E+02  0.24022179420E+03  0.93641213977E+02 0.  0.
          1    1    3    3  502    0 -0.26189511981E+02  0.15401946814E+03  0.65286181538E+02  0.16932268780E+03  0.00000000000E+00 0. -1.
         -1    1    3    3    0  502 -0.24327260546E+02  0.46191541658E+03  0.34920904832E+02  0.46387189749E+03  0.00000000000E+00 0.  1.
         11    1    5    5    0    0 -0.98243541463E+02 -0.40282951640E+03  0.15487504244E+04  0.16032938876E+04  0.00000000000E+00 0. -1.
        -11    1    5    5    0    0 -0.47939282087E+02 -0.14713581893E+03  0.82688343865E+03  0.84123917235E+03  0.00000000000E+00 0.  1.
          3    1    6    6  503    0  0.13926430237E+03 -0.19486444479E+02  0.87407861095E+02  0.16557294952E+03  0.00000000000E+00 0. -1.
         -3    1    6    6    0  503  0.57435293707E+02 -0.46483104920E+02 -0.10628170362E+02  0.74648844676E+02  0.00000000000E+00 0.  1.
<mgrwt>
<rscale>  0 0.21196501E+04</rscale>
<asrwt>0</asrwt>
<pdfrwt beam="1">  1        2 0.45158230E+00 0.21196501E+04</pdfrwt>
<pdfrwt beam="2">  1       -2 0.58871448E-01 0.21196501E+04</pdfrwt>
<totfact> 0.47462227E+00</totfact>
</mgrwt>
</event>
<event>
12    2  0.8147979E-008  0.2183378E+04  0.7818608E-02  0.8525379E-01
          2   -1    0    0  501    0  0.00000000000E+00  0.00000000000E+00  0.93896412701E+03  0.93896412701E+03  0.00000000000E+00 0. -1.
         -2   -1    0    0    0  501 -0.00000000000E+00 -0.00000000000E+00 -0.12692549686E+04  0.12692549686E+04  0.00000000000E+00 0.  1.
         23    2    1    2    0    0  0.74022366653E+03  0.28229467889E+03  0.30405649696E+03  0.85402984358E+03  0.96411919240E+02 0.  0.
        254    2    1    2    0    0 -0.74022366653E+03 -0.28229467889E+03 -0.63434733854E+03  0.13541892520E+04  0.89655486289E+03 0.  0.
         23    2    4    4    0    0 -0.54989750057E+03 -0.57238443832E+03 -0.58854150610E+03  0.99222038824E+03  0.90049919867E+02 0.  0.
         23    2    4    4    0    0 -0.19032616595E+03  0.29008975943E+03 -0.45805832432E+02  0.36196886378E+03  0.92450884755E+02 0.  0.
          1    1    3    3  502    0  0.51374559612E+03  0.14868266729E+03  0.21460529320E+03  0.57627814895E+03  0.00000000000E+00 0. -1.
         -1    1    3    3    0  502  0.22647807041E+03  0.13361201160E+03  0.89451203755E+02  0.27775169463E+03  0.00000000000E+00 0.  1.
         11    1    5    5    0    0 -0.25324350271E+03 -0.30014442023E+03 -0.33686870934E+03  0.51739682256E+03  0.00000000000E+00 0. -1.
        -11    1    5    5    0    0 -0.29665399786E+03 -0.27224001808E+03 -0.25167279676E+03  0.47482356568E+03  0.00000000000E+00 0.  1.
          3    1    6    6  503    0 -0.15728297222E+03  0.15817711011E+03 -0.29454517995E+02  0.22500111143E+03  0.00000000000E+00 0. -1.
         -3    1    6    6    0  503 -0.33043193736E+02  0.13191264931E+03 -0.16351314437E+02  0.13696775235E+03  0.00000000000E+00 0.  1.
<mgrwt>
<rscale>  0 0.21833780E+04</rscale>
<asrwt>0</asrwt>
<pdfrwt beam="1">  1        2 0.14445602E+00 0.21833780E+04</pdfrwt>
<pdfrwt beam="2">  1       -2 0.19526999E+00 0.21833780E+04</pdfrwt>
<totfact> 0.36108063E+00</totfact>
</mgrwt>
</event>
<event>
12    2  0.8147979E-008  0.4265618E+04  0.7818608E-02  0.7953006E-01
         -1   -1    0    0    0  501 -0.00000000000E+00  0.00000000000E+00  0.27726738058E+04  0.27726738058E+04  0.00000000000E+00 0.  1.
          1   -1    0    0  501    0  0.00000000000E+00 -0.00000000000E+00 -0.16406095972E+04  0.16406095972E+04  0.00000000000E+00 0. -1.
         23    2    1    2    0    0 -0.15497750581E+04  0.12934490700E+04  0.26071157825E+03  0.20375855760E+04  0.94716551362E+02 0.  0.
        254    2    1    2    0    0  0.15497750581E+04 -0.12934490700E+04  0.87135263033E+03  0.23756978269E+04  0.89992862546E+03 0.  0.
         23    2    4    4    0    0  0.11303739464E+04 -0.49100176910E+03  0.21657280677E+03  0.12546024448E+04  0.91079733992E+02 0.  0.
         23    2    4    4    0    0  0.41940111172E+03 -0.80244730094E+03  0.65477982356E+03  0.11210953821E+04  0.91100357657E+02 0.  0.
          3    1    3    3  502    0 -0.79016573259E+03  0.70525861173E+03  0.10478404371E+03  0.10642984968E+04  0.00000000000E+00 0. -1.
         -3    1    3    3    0  502 -0.75960932551E+03  0.58819045831E+03  0.15592753455E+03  0.97328707928E+03  0.00000000000E+00 0.  1.
         11    1    5    5    0    0  0.83292592979E+03 -0.31768572027E+03  0.15086319828E+03  0.90412915337E+03  0.00000000000E+00 0. -1.
        -11    1    5    5    0    0  0.29744801660E+03 -0.17331604883E+03  0.65709608489E+02  0.35047329143E+03  0.00000000000E+00 0.  1.
          4    1    6    6  503    0  0.16776355399E+03 -0.23311569206E+03  0.19256120454E+03  0.34578512609E+03  0.00000000000E+00 0. -1.
         -4    1    6    6    0  503  0.25163755773E+03 -0.56933160889E+03  0.46221861902E+03  0.77531025603E+03  0.00000000000E+00 0.  1.
<mgrwt>
<rscale>  0 0.42656185E+04</rscale>
<asrwt>0</asrwt>
<pdfrwt beam="1">  1        1 0.25240148E+00 0.42656185E+04</pdfrwt>
<pdfrwt beam="2">  1       -1 0.42656520E+00 0.42656185E+04</pdfrwt>
<totfact> 0.18824463E-02</totfact>
</mgrwt>
</event>
<event>
12    2  0.8147979E-008  0.2702611E+04  0.7818608E-02  0.8334158E-01
         -1   -1    0    0    0  501 -0.00000000000E+00  0.00000000000E+00  0.23271051396E+04  0.23271051396E+04  0.00000000000E+00 0.  1.
          1   -1    0    0  501    0  0.00000000000E+00 -0.00000000000E+00 -0.78467715773E+03  0.78467715773E+03  0.00000000000E+00 0. -1.
         23    2    1    2    0    0  0.11572799701E+04 -0.31129242407E+03  0.64164013320E+03  0.13623946964E+04  0.90649576707E+02 0.  0.
        254    2    1    2    0    0 -0.11572799701E+04  0.31129242407E+03  0.90078784864E+03  0.17493876009E+04  0.90152000954E+03 0.  0.
         23    2    4    4    0    0 -0.68975459677E+03 -0.36620107883E+02  0.92602933315E+03  0.11588734810E+04  0.91405596834E+02 0.  0.
         23    2    4    4    0    0 -0.46752537330E+03  0.34791253196E+03 -0.25241484512E+02  0.59051411988E+03  0.91905868524E+02 0.  0.
          4    1    3    3  502    0  0.72157502383E+03 -0.17846611438E+03  0.35059827228E+03  0.82185145709E+03  0.00000000000E+00 0. -1.
         -4    1    3    3    0  502  0.43570494624E+03 -0.13282630969E+03  0.29104186091E+03  0.54054323928E+03  0.00000000000E+00 0.  1.
         11    1    5    5    0    0 -0.54286823297E+03 -0.23452081220E+01  0.67768945811E+03  0.86831700432E+03  0.00000000000E+00 0. -1.
        -11    1    5    5    0    0 -0.14688636380E+03 -0.34274899761E+02  0.24833987505E+03  0.29055647672E+03  0.00000000000E+00 0.  1.
          1    1    6    6  503    0 -0.28613769154E+03  0.17859769792E+03 -0.50661906154E+02  0.34108436633E+03  0.00000000000E+00 0. -1.
         -1    1    6    6    0  503 -0.18138768176E+03  0.16931483404E+03  0.25420421642E+02  0.24942975355E+03  0.00000000000E+00 0.  1.
<mgrwt>
<rscale>  0 0.27026108E+04</rscale>
<asrwt>0</asrwt>
<pdfrwt beam="1">  1        1 0.12071956E+00 0.27026108E+04</pdfrwt>
<pdfrwt beam="2">  1       -1 0.35801617E+00 0.27026108E+04</pdfrwt>
<totfact> 0.27359172E-01</totfact>
</mgrwt>
</event>
<event>
12    2  0.8147979E-008  0.1737755E+04  0.7818608E-02  0.8740120E-01
         -1   -1    0    0    0  501 -0.00000000000E+00  0.00000000000E+00  0.50510134178E+03  0.50510134178E+03  0.00000000000E+00 0.  1.
          1   -1    0    0  501    0  0.00000000000E+00 -0.00000000000E+00 -0.14946464174E+04  0.14946464174E+04  0.00000000000E+00 0. -1.
         23    2    1    2    0    0 -0.11983802888E+03  0.55311129723E+03 -0.40179932658E+02  0.57454451731E+03  0.90519142164E+02 0.  0.
        254    2    1    2    0    0  0.11983802888E+03 -0.55311129723E+03 -0.94936514297E+03  0.14252032419E+04  0.89978711131E+03 0.  0.
         23    2    4    4    0    0  0.25278957357E+03 -0.38196248446E+03 -0.21011679637E+02  0.46749255006E+03  0.91158574137E+02 0.  0.
         23    2    4    4    0    0 -0.13295154469E+03 -0.17114881276E+03 -0.92835346334E+03  0.95771069182E+03  0.91660171214E+02 0.  0.
          3    1    3    3  502    0 -0.30786515828E+02  0.33714702675E+03 -0.40306552094E+02  0.34094067716E+03  0.00000000000E+00 0. -1.
         -3    1    3    3    0  502 -0.89051513050E+02  0.21596427048E+03  0.12661943563E+00  0.23360384015E+03  0.00000000000E+00 0.  1.
         11    1    5    5    0    0  0.18081708608E+03 -0.19285416394E+03 -0.20425362036E+02  0.26515041502E+03  0.00000000000E+00 0.  1.
        -11    1    5    5    0    0  0.71972487482E+02 -0.18910832052E+03 -0.58631760117E+00  0.20234213504E+03  0.00000000000E+00 0. -1.
          2    1    6    6  503    0 -0.93067257513E+02 -0.15863244531E+03 -0.84093064661E+03  0.86080782962E+03  0.00000000000E+00 0. -1.
         -2    1    6    6    0  503 -0.39884287176E+02 -0.12516367448E+02 -0.87422816730E+02  0.96902862201E+02  0.00000000000E+00 0.  1.
<mgrwt>
<rscale>  0 0.17377548E+04</rscale>
<asrwt>0</asrwt>
<pdfrwt beam="1">  1        1 0.22994560E+00 0.17377548E+04</pdfrwt>
<pdfrwt beam="2">  1       -1 0.77707900E-01 0.17377548E+04</pdfrwt>
<totfact> 0.10384472E+01</totfact>
</mgrwt>
</event>
<event>
12    2  0.8147979E-008  0.1100452E+04  0.7818608E-02  0.9204751E-01
         -1   -1    0    0    0  501 -0.00000000000E+00  0.00000000000E+00  0.19190406593E+03  0.19190406593E+03  0.00000000000E+00 0.  1.
          1   -1    0    0  501    0  0.00000000000E+00 -0.00000000000E+00 -0.15776044118E+04  0.15776044118E+04  0.00000000000E+00 0. -1.
         23    2    1    2    0    0 -0.10486553172E+03  0.12319102245E+03 -0.24038285954E+03  0.30305970248E+03  0.88816982366E+02 0.  0.
        254    2    1    2    0    0  0.10486553172E+03 -0.12319102245E+03 -0.11453174863E+04  0.14664487752E+04  0.90141392164E+03 0.  0.
         23    2    4    4    0    0  0.27528934114E+03 -0.27981101318E+03 -0.11486885428E+04  0.12173674381E+04  0.91758849807E+02 0.  0.
         23    2    4    4    0    0 -0.17042380942E+03  0.15661999073E+03  0.33710565217E+01  0.24908133710E+03  0.91956795041E+02 0.  0.
          1    1    3    3  502    0 -0.27982438552E+00  0.62994747104E+02 -0.96925439717E+02  0.11559825833E+03  0.00000000000E+00 0. -1.
         -1    1    3    3    0  502 -0.10458570733E+03  0.60196275346E+02 -0.14345741982E+03  0.18746144416E+03  0.00000000000E+00 0.  1.
         11    1    5    5    0    0  0.25965883692E+03 -0.22334577497E+03 -0.10200529474E+04  0.10760176868E+04  0.00000000000E+00 0.  1.
        -11    1    5    5    0    0  0.15630504214E+02 -0.56465238208E+02 -0.12863559543E+03  0.14134975132E+03  0.00000000000E+00 0. -1.
          2    1    6    6  503    0 -0.60036310344E+01 -0.82566688823E+01 -0.11965434141E+02  0.15728565758E+02  0.00000000000E+00 0. -1.
         -2    1    6    6    0  503 -0.16442017839E+03  0.16487665961E+03  0.15336490663E+02  0.23335277134E+03  0.00000000000E+00 0.  1.
<mgrwt>
<rscale>  0 0.11004521E+04</rscale>
<asrwt>0</asrwt>
<pdfrwt beam="1">  1        1 0.24270836E+00 0.11004521E+04</pdfrwt>
<pdfrwt beam="2">  1       -1 0.29523704E-01 0.11004521E+04</pdfrwt>
<totfact> 0.60464367E+01</totfact>
</mgrwt>
</event>
<event>
12    2  0.8147979E-008  0.1809448E+04  0.7818608E-02  0.8701291E-01
         -1   -1    0    0    0  501 -0.00000000000E+00  0.00000000000E+00  0.37896935179E+03  0.37896935179E+03  0.00000000000E+00 0.  1.
          1   -1    0    0  501    0  0.00000000000E+00 -0.00000000000E+00 -0.21598726704E+04  0.21598726704E+04  0.00000000000E+00 0. -1.
         23    2    1    2    0    0 -0.27841101465E+03 -0.46861053426E+03 -0.10811533291E+03  0.56305712706E+03  0.90751734031E+02 0.  0.
        254    2    1    2    0    0  0.27841101465E+03  0.46861053426E+03 -0.16727879857E+04  0.19757848951E+04  0.89910943760E+03 0.  0.
         23    2    4    4    0    0 -0.26469977476E+03  0.12668351015E+03 -0.98177245195E+03  0.10283202159E+04  0.86317069953E+02 0.  0.
         23    2    4    4    0    0  0.54311078941E+03  0.34192702411E+03 -0.69101553370E+03  0.94746467916E+03  0.91123164158E+02 0.  0.
          3    1    3    3  502    0 -0.16979392776E+03 -0.20649138617E+03 -0.31661560319E+02  0.26920461524E+03  0.00000000000E+00 0. -1.
         -3    1    3    3    0  502 -0.10861708689E+03 -0.26211914809E+03 -0.76453772590E+02  0.29385251182E+03  0.00000000000E+00 0.  1.
         11    1    5    5    0    0 -0.18672658367E+02  0.49142336068E+00 -0.16415116803E+03  0.16521051914E+03  0.00000000000E+00 0.  1.
        -11    1    5    5    0    0 -0.24602711639E+03  0.12619208679E+03 -0.81762128392E+03  0.86310969679E+03  0.00000000000E+00 0. -1.
          2    1    6    6  503    0  0.12687959808E+03  0.10947370387E+03 -0.13612508219E+03  0.21590035260E+03  0.00000000000E+00 0.  1.
         -2    1    6    6    0  503  0.41623119132E+03  0.23245332024E+03 -0.55489045151E+03  0.73156432656E+03  0.00000000000E+00 0. -1.
<mgrwt>
<rscale>  0 0.18094480E+04</rscale>
<asrwt>0</asrwt>
<pdfrwt beam="1">  1        1 0.33228810E+00 0.18094480E+04</pdfrwt>
<pdfrwt beam="2">  1       -1 0.58302978E-01 0.18094480E+04</pdfrwt>
<totfact> 0.65228739E+00</totfact>
</mgrwt>
</event>
<event>
12    2  0.8147979E-008  0.2860677E+04  0.7818608E-02  0.8284674E-01
         -2   -1    0    0    0  501 -0.00000000000E+00  0.00000000000E+00  0.11820252026E+04  0.11820252026E+04  0.00000000000E+00 0. -1.
          2   -1    0    0  501    0  0.00000000000E+00 -0.00000000000E+00 -0.17308166014E+04  0.17308166014E+04  0.00000000000E+00 0.  1.
         23    2    1    2    0    0 -0.15025521072E+03  0.75222908688E+03  0.80481126760E+03  0.11155746085E+04  0.91434693909E+02 0.  0.
        254    2    1    2    0    0  0.15025521072E+03 -0.75222908688E+03 -0.13536026664E+04  0.17972671955E+04  0.89972438345E+03 0.  0.
         23    2    4    4    0    0  0.44893444000E+03 -0.20743539597E+03 -0.34813361403E+03  0.61173582937E+03  0.91935503449E+02 0.  0.
         23    2    4    4    0    0 -0.29867922929E+03 -0.54479369091E+03 -0.10054690523E+04  0.11855313661E+04  0.92234251916E+02 0.  0.
          2    1    3    3  502    0 -0.72364722285E+02  0.49363444307E+03  0.57199137208E+03  0.75900312658E+03  0.00000000000E+00 0. -1.
         -2    1    3    3    0  502 -0.77890488431E+02  0.25859464381E+03  0.23281989552E+03  0.35657148196E+03  0.00000000000E+00 0.  1.
         11    1    5    5    0    0  0.27080496356E+03 -0.16306436683E+03 -0.25353412733E+03  0.40522200056E+03  0.00000000000E+00 0. -1.
        -11    1    5    5    0    0  0.17812947645E+03 -0.44371029140E+02 -0.94599486701E+02  0.20651382881E+03  0.00000000000E+00 0.  1.
          1    1    6    6  503    0 -0.12153773790E+03 -0.15618301694E+03 -0.26522615325E+03  0.33092214928E+03  0.00000000000E+00 0. -1.
         -1    1    6    6    0  503 -0.17714149138E+03 -0.38861067398E+03 -0.74024289909E+03  0.85460921686E+03  0.00000000000E+00 0.  1.
<mgrwt>
<rscale>  0 0.28606774E+04</rscale>
<asrwt>0</asrwt>
<pdfrwt beam="1">  1        2 0.26627948E+00 0.28606774E+04</pdfrwt>
<pdfrwt beam="2">  1       -2 0.18185003E+00 0.28606774E+04</pdfrwt>
<totfact> 0.14374588E+00</totfact>
</mgrwt>
</event>
<event>
12    2  0.8147979E-008  0.1906593E+04  0.7818608E-02  0.8651582E-01
         -2   -1    0    0    0  501 -0.00000000000E+00  0.00000000000E+00  0.39400064793E+03  0.39400064793E+03  0.00000000000E+00 0.  1.
          2   -1    0    0  501    0  0.00000000000E+00 -0.00000000000E+00 -0.23065288790E+04  0.23065288790E+04  0.00000000000E+00 0. -1.
         23    2    1    2    0    0 -0.39530179692E+03  0.33076169774E+03 -0.14925293155E+04  0.15815939813E+04  0.90160705367E+02 0.  0.
        254    2    1    2    0    0  0.39530179692E+03 -0.33076169774E+03 -0.41999891558E+03  0.11189355456E+04  0.89997269670E+03 0.  0.
         23    2    4    4    0    0  0.62937092511E+03 -0.39447084196E+03 -0.18881674863E+03  0.77171138527E+03  0.90397406353E+02 0.  0.
         23    2    4    4    0    0 -0.23406912819E+03  0.63709144220E+02 -0.23118216695E+03  0.34722416034E+03  0.90951698049E+02 0.  0.
          2    1    3    3  502    0 -0.18665998649E+03  0.12742055340E+03 -0.77173287022E+03  0.80414524246E+03  0.00000000000E+00 0. -1.
         -2    1    3    3    0  502 -0.20864181042E+03  0.20334114434E+03 -0.72079644528E+03  0.77744873887E+03  0.00000000000E+00 0.  1.
         11    1    5    5    0    0  0.14655178987E+03 -0.87190591199E+02 -0.49702518651E+01  0.17059991123E+03  0.00000000000E+00 0.  1.
        -11    1    5    5    0    0  0.48281913523E+03 -0.30728025076E+03 -0.18384649676E+03  0.60111147404E+03  0.00000000000E+00 0. -1.
          2    1    6    6  503    0 -0.22762587573E+03  0.78324551578E+02 -0.20327743675E+03  0.31507140615E+03  0.00000000000E+00 0. -1.
         -2    1    6    6    0  503 -0.64432524643E+01 -0.14615407358E+02 -0.27904730199E+02  0.32152754191E+02  0.00000000000E+00 0.  1.
<mgrwt>
<rscale>  0 0.19065926E+04</rscale>
<asrwt>0</asrwt>
<pdfrwt beam="1">  1        2 0.35485060E+00 0.19065926E+04</pdfrwt>
<pdfrwt beam="2">  1       -2 0.60615484E-01 0.19065926E+04</pdfrwt>
<totfact> 0.10667861E+01</totfact>
</mgrwt>
</event>
<event>
12    2  0.8147979E-008  0.3948633E+04  0.7818608E-02  0.8014990E-01
         -2   -1    0    0    0  501 -0.00000000000E+00  0.00000000000E+00  0.12083739689E+04  0.12083739689E+04  0.00000000000E+00 0.  1.
          2   -1    0    0  501    0  0.00000000000E+00 -0.00000000000E+00 -0.32257611506E+04  0.32257611506E+04  0.00000000000E+00 0. -1.
         23    2    1    2    0    0 -0.60441804914E+03  0.16540944729E+04 -0.16650070983E+04  0.24252150042E+04  0.89830260529E+02 0.  0.
        254    2    1    2    0    0  0.60441804914E+03 -0.16540944729E+04 -0.35238008336E+03  0.20089201153E+04  0.90013254760E+03 0.  0.
         23    2    4    4    0    0  0.61846651442E+03 -0.10177596183E+04  0.13473344266E+03  0.12020384014E+04  0.91693771746E+02 0.  0.
         23    2    4    4    0    0 -0.14048465277E+02 -0.63633485455E+03 -0.48711352602E+03  0.80688171389E+03  0.93054320115E+02 0.  0.
          1    1    3    3  502    0 -0.38714833777E+02  0.11890588201E+03 -0.15125220517E+03  0.19625156483E+03  0.00000000000E+00 0. -1.
         -1    1    3    3    0  502 -0.56570321537E+03  0.15351885909E+04 -0.15137548932E+04  0.22289634393E+04  0.00000000000E+00 0.  1.
         11    1    5    5    0    0  0.40824922232E+03 -0.59083267091E+03  0.65240131357E+02  0.72111507215E+03  0.00000000000E+00 0.  1.
        -11    1    5    5    0    0  0.21021729210E+03 -0.42692694741E+03  0.69493311306E+02  0.48092332927E+03  0.00000000000E+00 0. -1.
          2    1    6    6  503    0  0.24288309125E+02 -0.67999286554E+02 -0.72635742813E+02  0.10241960782E+03  0.00000000000E+00 0. -1.
         -2    1    6    6    0  503 -0.38336774402E+02 -0.56833556800E+03 -0.41447778321E+03  0.70446210607E+03  0.00000000000E+00 0.  1.
<mgrwt>
<rscale>  0 0.39486331E+04</rscale>
<asrwt>0</asrwt>
<pdfrwt beam="1">  1        2 0.49627094E+00 0.39486331E+04</pdfrwt>
<pdfrwt beam="2">  1       -2 0.18590369E+00 0.39486331E+04</pdfrwt>
<totfact> 0.16305393E-01</totfact>
</mgrwt>
</event>
<event>
12    2  0.8147979E-008  0.2720079E+04  0.7818608E-02  0.8328519E-01
         -1   -1    0    0    0  501 -0.00000000000E+00  0.00000000000E+00  0.97341800527E+03  0.97341800527E+03  0.00000000000E+00 0. -1.
          1   -1    0    0  501    0  0.00000000000E+00 -0.00000000000E+00 -0.19002187761E+04  0.19002187761E+04  0.00000000000E+00 0.  1.
         23    2    1    2    0    0 -0.26293575187E+03  0.11746163382E+04 -0.53522117443E+03  0.13204659149E+04  0.91157968866E+02 0.  0.
        254    2    1    2    0    0  0.26293575187E+03 -0.11746163382E+04 -0.39157959642E+03  0.15531708665E+04  0.90008133439E+03 0.  0.
         23    2    4    4    0    0  0.87289519437E+02 -0.12701572961E+04 -0.38571949694E+03  0.13331873858E+04  0.87692976929E+02 0.  0.
         23    2    4    4    0    0  0.17564623243E+03  0.95540957932E+02 -0.58600994784E+01  0.21998348066E+03  0.91535334107E+02 0.  0.
          3    1    3    3  502    0 -0.23411810182E+03  0.10099890058E+04 -0.42639368757E+03  0.11210266073E+04  0.00000000000E+00 0. -1.
         -3    1    3    3    0  502 -0.28817650047E+02  0.16462733239E+03 -0.10882748686E+03  0.19943930761E+03  0.00000000000E+00 0.  1.
         11    1    5    5    0    0 -0.90902762475E+01 -0.47328984628E+03 -0.13435014561E+03  0.49207303659E+03  0.00000000000E+00 0. -1.
        -11    1    5    5    0    0  0.96379795685E+02 -0.79686744987E+03 -0.25136935134E+03  0.84111434922E+03  0.00000000000E+00 0.  1.
          4    1    6    6  503    0  0.13998796926E+03  0.91432831706E+02 -0.38377793300E+02  0.17155013632E+03  0.00000000000E+00 0. -1.
         -4    1    6    6    0  503  0.35658263164E+02  0.41081262266E+01  0.32517693821E+02  0.48433344345E+02  0.00000000000E+00 0.  1.
<mgrwt>
<rscale>  0 0.27200788E+04</rscale>
<asrwt>0</asrwt>
<pdfrwt beam="1">  1        1 0.29234135E+00 0.27200788E+04</pdfrwt>
<pdfrwt beam="2">  1       -1 0.14975662E+00 0.27200788E+04</pdfrwt>
<totfact> 0.10638124E+00</totfact>
</mgrwt>
</event>
<event>
12    2  0.8147979E-008  0.1724489E+04  0.7818608E-02  0.8747520E-01
          2   -1    0    0  501    0  0.00000000000E+00  0.00000000000E+00  0.25291123813E+04  0.25291123813E+04  0.00000000000E+00 0. -1.
         -2   -1    0    0    0  501 -0.00000000000E+00 -0.00000000000E+00 -0.29396288925E+03  0.29396288925E+03  0.00000000000E+00 0.  1.
         23    2    1    2    0    0  0.61225614612E+02 -0.10651102958E+03 -0.17891826153E+03  0.24400044439E+03  0.11149572747E+03 0.  0.
        254    2    1    2    0    0 -0.61225614612E+02  0.10651102958E+03  0.24140677536E+04  0.25790748262E+04  0.89933901549E+03 0.  0.
         23    2    4    4    0    0 -0.18043787587E+03 -0.88761121338E+01  0.50194418248E+02  0.20766238959E+03  0.89261279467E+02 0.  0.
         23    2    4    4    0    0  0.11921226125E+03  0.11538714171E+03  0.23638733354E+04  0.23714124366E+04  0.90410415121E+02 0.  0.
          3    1    3    3  502    0  0.55727171838E+02 -0.17334014266E+02 -0.20008330379E+02  0.61695372729E+02  0.00000000000E+00 0. -1.
         -3    1    3    3    0  502  0.54984427738E+01 -0.89177015313E+02 -0.15890993115E+03  0.18230507166E+03  0.00000000000E+00 0.  1.
         11    1    5    5    0    0 -0.73342597212E+02 -0.47494276220E+01  0.66668440660E+02  0.99228900067E+02  0.00000000000E+00 0.  1.
        -11    1    5    5    0    0 -0.10709527865E+03 -0.41266845118E+01 -0.16474022412E+02  0.10843348952E+03  0.00000000000E+00 0. -1.
          1    1    6    6  503    0  0.94904759857E+02  0.12733625889E+03  0.21446777530E+04  0.21505497206E+04  0.00000000000E+00 0. -1.
         -1    1    6    6    0  503  0.24307501397E+02 -0.11949117174E+02  0.21919558231E+03  0.22086271603E+03  0.00000000000E+00 0.  1.
<mgrwt>
<rscale>  0 0.17244885E+04</rscale>
<asrwt>0</asrwt>
<pdfrwt beam="1">  1        2 0.38909420E+00 0.17244885E+04</pdfrwt>
<pdfrwt beam="2">  1       -2 0.45225061E-01 0.17244885E+04</pdfrwt>
<totfact> 0.14767741E+01</totfact>
</mgrwt>
</event>
<event>
12    2  0.8147979E-008  0.3000517E+04  0.7818608E-02  0.8243583E-01
          1   -1    0    0  501    0  0.00000000000E+00  0.00000000000E+00  0.21267350312E+04  0.21267350312E+04  0.00000000000E+00 0.  1.
         -1   -1    0    0    0  501 -0.00000000000E+00 -0.00000000000E+00 -0.10583244507E+04  0.10583244507E+04  0.00000000000E+00 0. -1.
         23    2    1    2    0    0 -0.75073605606E+03 -0.10578432869E+04  0.38664060612E+02  0.13008804854E+04  0.90322103005E+02 0.  0.
        254    2    1    2    0    0  0.75073605606E+03  0.10578432869E+04  0.10297465199E+04  0.18841789965E+04  0.89839609861E+03 0.  0.
         23    2    4    4    0    0  0.60981818893E+03  0.71947533549E+03  0.19317368821E+03  0.96692413916E+03  0.90017971238E+02 0.  0.
         23    2    4    4    0    0  0.14091786714E+03  0.33836795143E+03  0.83657283169E+03  0.91725485732E+03  0.84567456721E+02 0.  0.
          2    1    3    3  502    0 -0.65641722321E+03 -0.87529261157E+03  0.48601048336E+02  0.10951633616E+04  0.00000000000E+00 0. -1.
         -2    1    3    3    0  502 -0.94318832855E+02 -0.18255067535E+03 -0.99369877240E+01  0.20571712380E+03  0.00000000000E+00 0.  1.
         11    1    5    5    0    0  0.44009056961E+03  0.56478061064E+03  0.12063014366E+03  0.72609123337E+03  0.00000000000E+00 0.  1.
        -11    1    5    5    0    0  0.16972761932E+03  0.15469472485E+03  0.72543544544E+02  0.24083290579E+03  0.00000000000E+00 0. -1.
          3    1    6    6  503    0 -0.59783299722E+00  0.92293767129E+02  0.20277105651E+03  0.22278823626E+03  0.00000000000E+00 0. -1.
         -3    1    6    6    0  503  0.14151570013E+03  0.24607418430E+03  0.63380177517E+03  0.69446662107E+03  0.00000000000E+00 0.  1.
<mgrwt>
<rscale>  0 0.30005171E+04</rscale>
<asrwt>0</asrwt>
<pdfrwt beam="1">  1        1 0.32719000E+00 0.30005171E+04</pdfrwt>
<pdfrwt beam="2">  1       -1 0.16281915E+00 0.30005171E+04</pdfrwt>
<totfact> 0.57868021E-01</totfact>
</mgrwt>
</event>
<event>
12    2  0.8147979E-008  0.2498970E+04  0.7818608E-02  0.8403353E-01
          2   -1    0    0  501    0  0.00000000000E+00  0.00000000000E+00  0.12710818620E+04  0.12710818620E+04  0.00000000000E+00 0. -1.
         -2   -1    0    0    0  501 -0.00000000000E+00 -0.00000000000E+00 -0.12282551228E+04  0.12282551228E+04  0.00000000000E+00 0.  1.
         23    2    1    2    0    0 -0.87158602742E+03 -0.19800819653E+03 -0.59547698822E+03  0.10773484262E+04  0.84954922792E+02 0.  0.
        254    2    1    2    0    0  0.87158602742E+03  0.19800819653E+03  0.63830372741E+03  0.14219885586E+04  0.90318899645E+03 0.  0.
         23    2    4    4    0    0  0.24095058674E+03 -0.13689298979E+03  0.63860109211E+03  0.70246150764E+03  0.94042219060E+02 0.  0.
         23    2    4    4    0    0  0.63063544068E+03  0.33490118632E+03 -0.29736469720E+00  0.71952705097E+03  0.88652270232E+02 0.  0.
          1    1    3    3  502    0 -0.84442933818E+03 -0.19372226942E+03 -0.55667703873E+03  0.10297953924E+04  0.00000000000E+00 0. -1.
         -1    1    3    3    0  502 -0.27156689242E+02 -0.42859271039E+01 -0.38799949486E+02  0.47553033781E+02  0.00000000000E+00 0.  1.
         11    1    5    5    0    0  0.47189397419E+02  0.10427854671E+02  0.86483996958E+02  0.99070990262E+02  0.00000000000E+00 0. -1.
        -11    1    5    5    0    0  0.19376118932E+03 -0.14732084446E+03  0.55211709515E+03  0.60339051738E+03  0.00000000000E+00 0.  1.
          1    1    6    6  503    0  0.77789904455E+00  0.72773278683E+01  0.61004539383E+01  0.95278626186E+01  0.00000000000E+00 0. -1.
         -1    1    6    6    0  503  0.62985754164E+03  0.32762385845E+03 -0.63978186355E+01  0.70999918836E+03  0.00000000000E+00 0.  1.
<mgrwt>
<rscale>  0 0.24989700E+04</rscale>
<asrwt>0</asrwt>
<pdfrwt beam="1">  1        2 0.19555106E+00 0.24989700E+04</pdfrwt>
<pdfrwt beam="2">  1       -2 0.18896233E+00 0.24989700E+04</pdfrwt>
<totfact> 0.24150198E+00</totfact>
</mgrwt>
</event>
<event>
12    2  0.8147979E-008  0.2923148E+04  0.7818608E-02  0.8266023E-01
          1   -1    0    0  501    0  0.00000000000E+00  0.00000000000E+00  0.11714212277E+04  0.11714212277E+04  0.00000000000E+00 0. -1.
         -1   -1    0    0    0  501 -0.00000000000E+00 -0.00000000000E+00 -0.18235952436E+04  0.18235952436E+04  0.00000000000E+00 0.  1.
         23    2    1    2    0    0  0.73157427031E+03 -0.10983173958E+04 -0.22152175050E+03  0.13410310104E+04  0.88262505958E+02 0.  0.
        254    2    1    2    0    0 -0.73157427031E+03  0.10983173958E+04 -0.43065226542E+03  0.16539854609E+04  0.89927999875E+03 0.  0.
         23    2    4    4    0    0  0.16632027038E+03  0.42818106579E+03 -0.17771606202E+03  0.50182979887E+03  0.96170114356E+02 0.  0.
         23    2    4    4    0    0 -0.89789454069E+03  0.67013633001E+03 -0.25293620341E+03  0.11521556620E+04  0.90491101667E+02 0.  0.
          3    1    3    3  502    0  0.18208397163E+03 -0.33279635287E+03 -0.40793852962E+02  0.38153915087E+03  0.00000000000E+00 0. -1.
         -3    1    3    3    0  502  0.54949029868E+03 -0.76552104292E+03 -0.18072789754E+03  0.95949185950E+03  0.00000000000E+00 0.  1.
         11    1    5    5    0    0  0.15488733417E+03  0.37325111835E+03 -0.18644351546E+03  0.44504793909E+03  0.00000000000E+00 0. -1.
        -11    1    5    5    0    0  0.11432936214E+02  0.54929947440E+02  0.87274534407E+01  0.56781859777E+02  0.00000000000E+00 0.  1.
          1    1    6    6  503    0 -0.77621750712E+03  0.59879839397E+03 -0.19433760720E+03  0.99941995205E+03  0.00000000000E+00 0. -1.
         -1    1    6    6    0  503 -0.12167703357E+03  0.71337936043E+02 -0.58598596202E+02  0.15273570995E+03  0.00000000000E+00 0.  1.
<mgrwt>
<rscale>  0 0.29231477E+04</rscale>
<asrwt>0</asrwt>
<pdfrwt beam="1">  1        1 0.18021865E+00 0.29231477E+04</pdfrwt>
<pdfrwt beam="2">  1       -1 0.28055311E+00 0.29231477E+04</pdfrwt>
<totfact> 0.42406594E-01</totfact>
</mgrwt>
</event>
<event>
12    2  0.8147979E-008  0.1830006E+04  0.7818608E-02  0.8690503E-01
          2   -1    0    0  501    0  0.00000000000E+00  0.00000000000E+00  0.13261797809E+04  0.13261797809E+04  0.00000000000E+00 0. -1.
         -2   -1    0    0    0  501 -0.00000000000E+00 -0.00000000000E+00 -0.63131022699E+03  0.63131022699E+03  0.00000000000E+00 0.  1.
         23    2    1    2    0    0  0.25414915654E+03 -0.44286898438E+03  0.76073026059E+03  0.92100177940E+03  0.93856364658E+02 0.  0.
        254    2    1    2    0    0 -0.25414915654E+03  0.44286898438E+03 -0.65860706725E+02  0.10364882285E+04  0.89958072675E+03 0.  0.
         23    2    4    4    0    0 -0.16951518051E+03  0.51860744451E+03  0.30927303076E+03  0.63394851805E+03  0.92476148598E+02 0.  0.
         23    2    4    4    0    0 -0.84633976030E+02 -0.75738460133E+02 -0.37513373748E+03  0.40253971040E+03  0.91726077055E+02 0.  0.
          1    1    3    3  502    0  0.59675480926E+02 -0.74891497405E+02  0.20898235784E+03  0.22987719612E+03  0.00000000000E+00 0. -1.
         -1    1    3    3    0  502  0.19447367561E+03 -0.36797748697E+03  0.55174790275E+03  0.69112458328E+03  0.00000000000E+00 0.  1.
         11    1    5    5    0    0 -0.81936416923E+02  0.14024736355E+03  0.63790922788E+02  0.17450553353E+03  0.00000000000E+00 0.  1.
        -11    1    5    5    0    0 -0.87578763583E+02  0.37836008096E+03  0.24548210797E+03  0.45944298452E+03  0.00000000000E+00 0. -1.
          1    1    6    6  503    0 -0.59611707496E+02 -0.75027771070E+02 -0.16412956783E+03  0.19005587899E+03  0.00000000000E+00 0. -1.
         -1    1    6    6    0  503 -0.25022268534E+02 -0.71068906353E+00 -0.21100416966E+03  0.21248383142E+03  0.00000000000E+00 0.  1.
<mgrwt>
<rscale>  0 0.18300064E+04</rscale>
<asrwt>0</asrwt>
<pdfrwt beam="1">  1        2 0.20402766E+00 0.18300064E+04</pdfrwt>
<pdfrwt beam="2">  1       -2 0.97124650E-01 0.18300064E+04</pdfrwt>
<totfact> 0.13303941E+01</totfact>
</mgrwt>
</event>
<event>
12    2  0.8147979E-008  0.1100960E+04  0.7818608E-02  0.9204257E-01
         -1   -1    0    0    0  501 -0.00000000000E+00  0.00000000000E+00  0.18389064774E+03  0.18389064774E+03  0.00000000000E+00 0.  1.
          1   -1    0    0  501    0  0.00000000000E+00 -0.00000000000E+00 -0.16478710334E+04  0.16478710334E+04  0.00000000000E+00 0. -1.
         23    2    1    2    0    0 -0.14014390940E+03 -0.10386305764E+02 -0.15033712239E+03  0.23007711130E+03  0.10288846430E+03 0.  0.
        254    2    1    2    0    0  0.14014390940E+03  0.10386305764E+02 -0.13136432633E+04  0.16016845698E+04  0.90553114107E+03 0.  0.
         23    2    4    4    0    0  0.32001731654E+02  0.31268852093E+03 -0.12094854624E+04  0.12528894801E+04  0.89881831866E+02 0.  0.
         23    2    4    4    0    0  0.10814217775E+03 -0.30230221516E+03 -0.10415780086E+03  0.34879508971E+03  0.87907947445E+02 0.  0.
          4    1    3    3  502    0 -0.10150655111E+03 -0.27800827534E+02 -0.15509273179E+03  0.18743057750E+03  0.00000000000E+00 0. -1.
         -4    1    3    3    0  502 -0.38637358290E+02  0.17414521770E+02  0.47556093944E+01  0.42646533796E+02  0.00000000000E+00 0.  1.
         11    1    5    5    0    0  0.67305169006E+00  0.18826655684E+02 -0.20996632818E+02  0.28209121796E+02  0.00000000000E+00 0. -1.
        -11    1    5    5    0    0  0.31328679964E+02  0.29386186524E+03 -0.11884888296E+04  0.12246803583E+04  0.00000000000E+00 0.  1.
          1    1    6    6  503    0  0.28050829310E+02 -0.19573965885E+02  0.64617465674E+01  0.34810103909E+02  0.00000000000E+00 0. -1.
         -1    1    6    6    0  503  0.80091348436E+02 -0.28272824928E+03 -0.11061954743E+03  0.31398498580E+03  0.00000000000E+00 0.  1.
<mgrwt>
<rscale>  0 0.11009597E+04</rscale>
<asrwt>0</asrwt>
<pdfrwt beam="1">  1        1 0.25351861E+00 0.11009597E+04</pdfrwt>
<pdfrwt beam="2">  1       -1 0.28290870E-01 0.11009597E+04</pdfrwt>
<totfact> 0.58316027E+01</totfact>
</mgrwt>
</event>
<event>
12    2  0.8147979E-008  0.1651830E+04  0.7818608E-02  0.8789325E-01
          2   -1    0    0  501    0  0.00000000000E+00  0.00000000000E+00  0.56533752703E+03  0.56533752703E+03  0.00000000000E+00 0. -1.
         -2   -1    0    0    0  501 -0.00000000000E+00 -0.00000000000E+00 -0.12065981798E+04  0.12065981798E+04  0.00000000000E+00 0.  1.
         23    2    1    2    0    0  0.27810130000E+03  0.12512877939E+02  0.31122860901E+03  0.42726104856E+03  0.90508846922E+02 0.  0.
        254    2    1    2    0    0 -0.27810130000E+03 -0.12512877939E+02 -0.95248926176E+03  0.13446746582E+04  0.90742340591E+03 0.  0.
         23    2    4    4    0    0 -0.38159414940E+03 -0.40414877437E+02 -0.12659525275E+02  0.39429132365E+03  0.89765957642E+02 0.  0.
         23    2    4    4    0    0  0.10349284940E+03  0.27901999498E+02 -0.93982973648E+03  0.95038333460E+03  0.91974222773E+02 0.  0.
          1    1    3    3  502    0  0.25484563292E+03  0.37743261442E+02  0.28413479209E+03  0.38354065037E+03  0.00000000000E+00 0. -1.
         -1    1    3    3    0  502  0.23255667072E+02 -0.25230383503E+02  0.27093816919E+02  0.43720398190E+02  0.00000000000E+00 0.  1.
         11    1    5    5    0    0 -0.10810849878E+03 -0.16247543680E+02 -0.44229508404E+02  0.11793082548E+03  0.00000000000E+00 0. -1.
        -11    1    5    5    0    0 -0.27348565061E+03 -0.24167333757E+02  0.31569983130E+02  0.27636049817E+03  0.00000000000E+00 0.  1.
          3    1    6    6  503    0 -0.84877893379E+01 -0.15161264101E+02 -0.61852457005E+02  0.64246656991E+02  0.00000000000E+00 0. -1.
         -3    1    6    6    0  503  0.11198063874E+03  0.43063263599E+02 -0.87797727948E+03  0.88613667761E+03  0.00000000000E+00 0.  1.
<mgrwt>
<rscale>  0 0.16518296E+04</rscale>
<asrwt>0</asrwt>
<pdfrwt beam="1">  1        2 0.86975006E-01 0.16518296E+04</pdfrwt>
<pdfrwt beam="2">  1       -2 0.18563049E+00 0.16518296E+04</pdfrwt>
<totfact> 0.84341121E+00</totfact>
</mgrwt>
</event>
<event>
12    2  0.8147979E-008  0.1813719E+04  0.7818608E-02  0.8699038E-01
         -2   -1    0    0    0  501 -0.00000000000E+00  0.00000000000E+00  0.10872024727E+04  0.10872024727E+04  0.00000000000E+00 0.  1.
          2   -1    0    0  501    0  0.00000000000E+00 -0.00000000000E+00 -0.75643152982E+03  0.75643152982E+03  0.00000000000E+00 0. -1.
         23    2    1    2    0    0  0.40915152314E+03  0.22972176388E+03  0.63716626172E+03  0.79675674542E+03  0.93077433429E+02 0.  0.
        254    2    1    2    0    0 -0.40915152314E+03 -0.22972176388E+03 -0.30639531881E+03  0.10468772571E+04  0.88424931010E+03 0.  0.
         23    2    4    4    0    0 -0.27267174438E+03 -0.55375850699E+03 -0.10938299278E+03  0.63346619121E+03  0.91194364169E+02 0.  0.
         23    2    4    4    0    0 -0.13647977876E+03  0.32403674310E+03 -0.19701232603E+03  0.41341106591E+03  0.92023431364E+02 0.  0.
          1    1    3    3  502    0  0.11994007211E+03  0.11611486679E+03  0.20227171966E+03  0.26226347775E+03  0.00000000000E+00 0. -1.
         -1    1    3    3    0  502  0.28921145103E+03  0.11360689709E+03  0.43489454206E+03  0.53449326767E+03  0.00000000000E+00 0.  1.
         11    1    5    5    0    0 -0.21966662372E+01 -0.45871206038E+01  0.86419212540E+01  0.10027453363E+02  0.00000000000E+00 0.  1.
        -11    1    5    5    0    0 -0.27047507814E+03 -0.54917138638E+03 -0.11802491404E+03  0.62343873785E+03  0.00000000000E+00 0. -1.
          1    1    6    6  503    0 -0.13145892488E+03  0.30015180254E+03 -0.14986778586E+03  0.36032333637E+03  0.00000000000E+00 0. -1.
         -1    1    6    6    0  503 -0.50208538814E+01  0.23884940565E+02 -0.47144540175E+02  0.53087729540E+02  0.00000000000E+00 0.  1.
<mgrwt>
<rscale>  0 0.18137191E+04</rscale>
<asrwt>0</asrwt>
<pdfrwt beam="1">  1        2 0.11637408E+00 0.18137191E+04</pdfrwt>
<pdfrwt beam="2">  1       -2 0.16726192E+00 0.18137191E+04</pdfrwt>
<totfact> 0.77934563E+00</totfact>
</mgrwt>
</event>
<event>
12    2  0.8147979E-008  0.1570286E+04  0.7818608E-02  0.8839013E-01
          2   -1    0    0  501    0  0.00000000000E+00  0.00000000000E+00  0.10110288823E+04  0.10110288823E+04  0.00000000000E+00 0.  1.
         -2   -1    0    0    0  501 -0.00000000000E+00 -0.00000000000E+00 -0.60972478770E+03  0.60972478770E+03  0.00000000000E+00 0. -1.
         23    2    1    2    0    0  0.14865875786E+03 -0.44249334312E+03  0.37897222326E+03  0.60823595108E+03  0.91821790400E+02 0.  0.
        254    2    1    2    0    0 -0.14865875786E+03  0.44249334312E+03  0.22331871322E+02  0.10125177189E+04  0.89821691901E+03 0.  0.
         23    2    4    4    0    0  0.16940428304E+02  0.28673525444E+03 -0.41366341980E+03  0.51171028173E+03  0.90696765635E+02 0.  0.
         23    2    4    4    0    0 -0.16559918616E+03  0.15575808868E+03  0.43599529112E+03  0.50080743716E+03  0.95039584322E+02 0.  0.
          3    1    3    3  502    0  0.98181684068E+02 -0.35960194049E+03  0.33693337645E+03  0.50247119207E+03  0.00000000000E+00 0. -1.
         -3    1    3    3    0  502  0.50477073788E+02 -0.82891402634E+02  0.42038846807E+02  0.10576475902E+03  0.00000000000E+00 0.  1.
         11    1    5    5    0    0  0.48306153519E+01  0.67151368707E+02 -0.40507388257E+02  0.78571557623E+02  0.00000000000E+00 0.  1.
        -11    1    5    5    0    0  0.12109812952E+02  0.21958388573E+03 -0.37315603154E+03  0.43313872411E+03  0.00000000000E+00 0. -1.
          2    1    6    6  503    0 -0.91443261736E+02  0.14475913656E+03  0.29340659846E+03  0.33971239270E+03  0.00000000000E+00 0. -1.
         -2    1    6    6    0  503 -0.74155924424E+02  0.10998952126E+02  0.14258869266E+03  0.16109504446E+03  0.00000000000E+00 0.  1.
<mgrwt>
<rscale>  0 0.15702858E+04</rscale>
<asrwt>0</asrwt>
<pdfrwt beam="1">  1        2 0.15554290E+00 0.15702858E+04</pdfrwt>
<pdfrwt beam="2">  1       -2 0.93803814E-01 0.15702858E+04</pdfrwt>
<totfact> 0.22869534E+01</totfact>
</mgrwt>
</event>
<event>
12    2  0.8147979E-008  0.1235803E+04  0.7818608E-02  0.9082083E-01
         -2   -1    0    0    0  501 -0.00000000000E+00  0.00000000000E+00  0.27399274454E+03  0.27399274454E+03  0.00000000000E+00 0. -1.
          2   -1    0    0  501    0  0.00000000000E+00 -0.00000000000E+00 -0.13934760608E+04  0.13934760608E+04  0.00000000000E+00 0.  1.
         23    2    1    2    0    0 -0.28352158626E+03 -0.12635015818E+02 -0.21978185614E+03  0.37035773245E+03  0.91195680784E+02 0.  0.
        254    2    1    2    0    0  0.28352158626E+03  0.12635015818E+02 -0.89970146016E+03  0.12971110729E+04  0.89021923403E+03 0.  0.
         23    2    4    4    0    0 -0.27275647265E+03  0.16247607310E+03 -0.46112895013E+03  0.56707542318E+03  0.90222276730E+02 0.  0.
         23    2    4    4    0    0  0.55627805891E+03 -0.14984105728E+03 -0.43857251002E+03  0.73003564977E+03  0.93319784160E+02 0.  0.
          1    1    3    3  502    0 -0.81572271721E+02  0.11212762861E+02 -0.18827145940E+02  0.84464329684E+02  0.00000000000E+00 0. -1.
         -1    1    3    3    0  502 -0.20194931454E+03 -0.23847778680E+02 -0.20095471020E+03  0.28589340276E+03  0.00000000000E+00 0.  1.
         11    1    5    5    0    0 -0.16178461304E+03  0.90787526866E+02 -0.19042724899E+03  0.26585554951E+03  0.00000000000E+00 0.  1.
        -11    1    5    5    0    0 -0.11097185961E+03  0.71688546230E+02 -0.27070170114E+03  0.30121987366E+03  0.00000000000E+00 0. -1.
          3    1    6    6  503    0  0.19009013553E+03 -0.89699564285E+02 -0.12774906583E+03  0.24596767120E+03  0.00000000000E+00 0. -1.
         -3    1    6    6    0  503  0.36618792338E+03 -0.60141492993E+02 -0.31082344420E+03  0.48406797856E+03  0.00000000000E+00 0.  1.
<mgrwt>
<rscale>  0 0.12358031E+04</rscale>
<asrwt>0</asrwt>
<pdfrwt beam="1">  1        2 0.21438093E+00 0.12358031E+04</pdfrwt>
<pdfrwt beam="2">  1       -2 0.42152730E-01 0.12358031E+04</pdfrwt>
<totfact> 0.76603586E+01</totfact>
</mgrwt>
</event>
<event>
12    2  0.8147979E-008  0.1409240E+04  0.7818608E-02  0.8947157E-01
         -2   -1    0    0    0  501 -0.00000000000E+00  0.00000000000E+00  0.25667840673E+03  0.25667840673E+03  0.00000000000E+00 0.  1.
          2   -1    0    0  501    0  0.00000000000E+00 -0.00000000000E+00 -0.19342862894E+04  0.19342862894E+04  0.00000000000E+00 0. -1.
         23    2    1    2    0    0 -0.26904663113E+03  0.13778726353E+03 -0.93005660031E+03  0.98215226047E+03  0.90809488740E+02 0.  0.
        254    2    1    2    0    0  0.26904663113E+03 -0.13778726353E+03 -0.74755128232E+03  0.12088124356E+04  0.90056824567E+03 0.  0.
         23    2    4    4    0    0  0.34188229158E+03 -0.76710154006E+02 -0.92255869199E+03  0.99113676052E+03  0.92030369231E+02 0.  0.
         23    2    4    4    0    0 -0.72835660451E+02 -0.61077109527E+02  0.17500740966E+03  0.21767567511E+03  0.87861592038E+02 0.  0.
          2    1    3    3  502    0 -0.38668229301E+02  0.52747182997E+02 -0.13454245224E+03  0.14959668688E+03  0.00000000000E+00 0.  1.
         -2    1    3    3    0  502 -0.23037840183E+03  0.85040080537E+02 -0.79551414807E+03  0.83255557359E+03  0.00000000000E+00 0. -1.
         11    1    5    5    0    0  0.14555775615E+03 -0.25023977240E+02 -0.27035234099E+03  0.30806435706E+03  0.00000000000E+00 0.  1.
        -11    1    5    5    0    0  0.19632453543E+03 -0.51686176766E+02 -0.65220635100E+03  0.68307240346E+03  0.00000000000E+00 0. -1.
          1    1    6    6  503    0 -0.13953498165E+02 -0.45626682281E+02  0.13897128456E+03  0.14693369995E+03  0.00000000000E+00 0. -1.
         -1    1    6    6    0  503 -0.58882162286E+02 -0.15450427247E+02  0.36036125101E+02  0.70741975162E+02  0.00000000000E+00 0.  1.
<mgrwt>
<rscale>  0 0.14092403E+04</rscale>
<asrwt>0</asrwt>
<pdfrwt beam="1">  1        2 0.29758252E+00 0.14092403E+04</pdfrwt>
<pdfrwt beam="2">  1       -2 0.39488984E-01 0.14092403E+04</pdfrwt>
<totfact> 0.42889650E+01</totfact>
</mgrwt>
</event>
<event>
12    2  0.8147979E-008  0.4346890E+04  0.7818608E-02  0.7938004E-01
         -1   -1    0    0    0  501 -0.00000000000E+00  0.00000000000E+00  0.15181267953E+04  0.15181267953E+04  0.00000000000E+00 0.  1.
          1   -1    0    0  501    0  0.00000000000E+00 -0.00000000000E+00 -0.31116388128E+04  0.31116388128E+04  0.00000000000E+00 0. -1.
         23    2    1    2    0    0 -0.19664569475E+04 -0.67405086755E+03 -0.79736018986E+03  0.22282504313E+04  0.89550064578E+02 0.  0.
        254    2    1    2    0    0  0.19664569475E+04  0.67405086755E+03 -0.79615182756E+03  0.24015151768E+04  0.90117696011E+03 0.  0.
         23    2    4    4    0    0  0.10959677212E+04 -0.48668763449E+02 -0.19933977853E+03  0.11190527367E+04  0.95019923347E+02 0.  0.
         23    2    4    4    0    0  0.87048922627E+03  0.72271963099E+03 -0.59681204903E+03  0.12824624400E+04  0.91924589521E+02 0.  0.
          4    1    3    3  502    0 -0.40492080468E+03 -0.12886286623E+03 -0.12603057143E+03  0.44322703132E+03  0.00000000000E+00 0. -1.
         -4    1    3    3    0  502 -0.15615361428E+04 -0.54518800132E+03 -0.67132961842E+03  0.17850234000E+04  0.00000000000E+00 0.  1.
         11    1    5    5    0    0  0.46381314403E+02 -0.64874098405E+01 -0.28484019682E+02  0.54814707784E+02  0.00000000000E+00 0.  1.
        -11    1    5    5    0    0  0.10495864068E+04 -0.42181353609E+02 -0.17085575884E+03  0.10642380289E+04  0.00000000000E+00 0. -1.
          3    1    6    6  503    0  0.23623734480E+02  0.27938591480E+02 -0.36406574048E+01  0.36768194285E+02  0.00000000000E+00 0.  1.
         -3    1    6    6    0  503  0.84686549179E+03  0.69478103952E+03 -0.59317139163E+03  0.12456942458E+04  0.00000000000E+00 0. -1.
<mgrwt>
<rscale>  0 0.43468896E+04</rscale>
<asrwt>0</asrwt>
<pdfrwt beam="1">  1        1 0.47871366E+00 0.43468896E+04</pdfrwt>
<pdfrwt beam="2">  1       -1 0.23355797E+00 0.43468896E+04</pdfrwt>
<totfact> 0.33636426E-02</totfact>
</mgrwt>
</event>
<event>
12    2  0.8147979E-008  0.1214334E+04  0.7818608E-02  0.9100402E-01
         -2   -1    0    0    0  501 -0.00000000000E+00  0.00000000000E+00  0.40113415774E+03  0.40113415774E+03  0.00000000000E+00 0.  1.
          2   -1    0    0  501    0  0.00000000000E+00 -0.00000000000E+00 -0.91902324226E+03  0.91902324226E+03  0.00000000000E+00 0. -1.
         23    2    1    2    0    0  0.50568789661E+02 -0.22760744179E+03  0.99920979921E+01  0.25069133518E+03  0.91563931034E+02 0.  0.
        254    2    1    2    0    0 -0.50568789661E+02  0.22760744179E+03 -0.52788118251E+03  0.10694660648E+04  0.90040922413E+03 0.  0.
         23    2    4    4    0    0 -0.28990802688E+03  0.29664277533E+03  0.56802688549E+02  0.42769443493E+03  0.87477905984E+02 0.  0.
         23    2    4    4    0    0  0.23933923721E+03 -0.69035333546E+02 -0.58468387106E+03  0.64177162989E+03  0.89254961271E+02 0.  0.
          1    1    3    3  502    0 -0.17500036020E-01 -0.31283147277E+02 -0.30789644429E+02  0.43893482589E+02  0.00000000000E+00 0. -1.
         -1    1    3    3    0  502  0.50586289697E+02 -0.19632429451E+03  0.40781742421E+02  0.20679785259E+03  0.00000000000E+00 0.  1.
         11    1    5    5    0    0 -0.12344888040E+02  0.89320411587E+01 -0.15161661014E+02  0.21495431717E+02  0.00000000000E+00 0. -1.
        -11    1    5    5    0    0 -0.27756313884E+03  0.28771073417E+03  0.71964349563E+02  0.40619900321E+03  0.00000000000E+00 0.  1.
          4    1    6    6  503    0  0.19317153022E+03 -0.67289322738E+02 -0.37606401357E+03  0.42809722651E+03  0.00000000000E+00 0.  1.
         -4    1    6    6    0  503  0.46167706993E+02 -0.17460108079E+01 -0.20861985749E+03  0.21367440339E+03  0.00000000000E+00 0. -1.
<mgrwt>
<rscale>  0 0.12143338E+04</rscale>
<asrwt>0</asrwt>
<pdfrwt beam="1">  1        2 0.14138819E+00 0.12143338E+04</pdfrwt>
<pdfrwt beam="2">  1       -2 0.61712947E-01 0.12143338E+04</pdfrwt>
<totfact> 0.68484999E+01</totfact>
</mgrwt>
</event>
<event>
12    2  0.8147979E-008  0.1427034E+04  0.7818608E-02  0.8934479E-01
          1   -1    0    0  501    0  0.00000000000E+00  0.00000000000E+00  0.32914835212E+04  0.32914835212E+04  0.00000000000E+00 0. -1.
         -1   -1    0    0    0  501 -0.00000000000E+00 -0.00000000000E+00 -0.15467392768E+03  0.15467392768E+03  0.00000000000E+00 0.  1.
         23    2    1    2    0    0  0.94447713050E+02  0.34979291036E+02  0.19418044453E+04  0.19466147807E+04  0.92523939648E+02 0.  0.
        254    2    1    2    0    0 -0.94447713050E+02 -0.34979291036E+02  0.11950051482E+04  0.14995426682E+04  0.90024829244E+03 0.  0.
         23    2    4    4    0    0 -0.10478651977E+03 -0.46895577901E+02 -0.11530373772E+03  0.18601766462E+03  0.90156584139E+02 0.  0.
         23    2    4    4    0    0  0.10338806722E+02  0.11916286865E+02  0.13103088859E+04  0.13135250035E+04  0.90496792894E+02 0.  0.
          4    1    3    3  502    0  0.22779521796E+02  0.57262175561E+02  0.84138889618E+03  0.84364277865E+03  0.00000000000E+00 0.  1.
         -4    1    3    3    0  502  0.71668191254E+02 -0.22282884525E+02  0.11004155491E+04  0.11029720020E+04  0.00000000000E+00 0. -1.
         11    1    5    5    0    0 -0.16935149841E+02 -0.41187329318E+01 -0.80385916542E+02  0.82253625083E+02  0.00000000000E+00 0.  1.
        -11    1    5    5    0    0 -0.87851369930E+02 -0.42776844969E+02 -0.34917821183E+02  0.10376403953E+03  0.00000000000E+00 0. -1.
          3    1    6    6  503    0 -0.11530305638E+02  0.48041984465E+02  0.66032100196E+03  0.66216675079E+03  0.00000000000E+00 0. -1.
         -3    1    6    6    0  503  0.21869112360E+02 -0.36125697600E+02  0.64998788398E+03  0.65135825275E+03  0.00000000000E+00 0.  1.
<mgrwt>
<rscale>  0 0.14270342E+04</rscale>
<asrwt>0</asrwt>
<pdfrwt beam="1">  1        1 0.50638203E+00 0.14270342E+04</pdfrwt>
<pdfrwt beam="2">  1       -1 0.23795991E-01 0.14270342E+04</pdfrwt>
<totfact> 0.54348549E+00</totfact>
</mgrwt>
</event>
<event>
12    2  0.8147979E-008  0.3535397E+04  0.7818608E-02  0.8105452E-01
          1   -1    0    0  501    0  0.00000000000E+00  0.00000000000E+00  0.23466809032E+04  0.23466809032E+04  0.00000000000E+00 0. -1.
         -1   -1    0    0    0  501 -0.00000000000E+00 -0.00000000000E+00 -0.13315647823E+04  0.13315647823E+04  0.00000000000E+00 0.  1.
         23    2    1    2    0    0  0.61297217241E+03  0.10919606958E+04  0.15953873514E+04  0.20303229144E+04  0.94006863672E+02 0.  0.
        254    2    1    2    0    0 -0.61297217241E+03 -0.10919606958E+04 -0.58027123055E+03  0.16479227711E+04  0.90045639172E+03 0.  0.
         23    2    4    4    0    0  0.17178728642E+03 -0.52551377435E+03 -0.12384826689E+03  0.57404109913E+03  0.92245278846E+02 0.  0.
         23    2    4    4    0    0 -0.78475945883E+03 -0.56644692141E+03 -0.45642296366E+03  0.10738816720E+04  0.90500832726E+02 0.  0.
          1    1    3    3  502    0  0.18514444771E+03  0.27962091087E+03  0.48251102904E+03  0.58760804407E+03  0.00000000000E+00 0. -1.
         -1    1    3    3    0  502  0.42782772470E+03  0.81233978490E+03  0.11128763224E+04  0.14427148703E+04  0.00000000000E+00 0.  1.
         11    1    5    5    0    0  0.69731549445E+02 -0.31112391779E+03 -0.35994337686E+02  0.32086784438E+03  0.00000000000E+00 0. -1.
        -11    1    5    5    0    0  0.10205573697E+03 -0.21438985656E+03 -0.87853929203E+02  0.25317325475E+03  0.00000000000E+00 0.  1.
          3    1    6    6  503    0 -0.37838627914E+02 -0.47705446431E+02 -0.45237556150E+02  0.75855176936E+02  0.00000000000E+00 0. -1.
         -3    1    6    6    0  503 -0.74692083091E+03 -0.51874147498E+03 -0.41118540751E+03  0.99802649507E+03  0.00000000000E+00 0.  1.
<mgrwt>
<rscale>  0 0.35353968E+04</rscale>
<asrwt>0</asrwt>
<pdfrwt beam="1">  1        1 0.36102783E+00 0.35353968E+04</pdfrwt>
<pdfrwt beam="2">  1       -1 0.20485612E+00 0.35353968E+04</pdfrwt>
<totfact> 0.19598243E-01</totfact>
</mgrwt>
</event>
<event>
12    2  0.8147979E-008  0.1741442E+04  0.7818608E-02  0.8738075E-01
          1   -1    0    0  501    0  0.00000000000E+00  0.00000000000E+00  0.40089914078E+03  0.40089914078E+03  0.00000000000E+00 0. -1.
         -1   -1    0    0    0  501 -0.00000000000E+00 -0.00000000000E+00 -0.18911364521E+04  0.18911364521E+04  0.00000000000E+00 0.  1.
         23    2    1    2    0    0  0.36932771089E+03  0.26448054406E+03  0.34702364677E+02  0.46449795634E+03  0.90560372746E+02 0.  0.
        254    2    1    2    0    0 -0.36932771089E+03 -0.26448054406E+03 -0.15249396760E+04  0.18275376365E+04  0.89894375869E+03 0.  0.
         23    2    4    4    0    0 -0.62555959101E+03 -0.22639574045E+03 -0.13415324812E+04  0.15002543479E+04  0.92053664182E+02 0.  0.
         23    2    4    4    0    0  0.25623188012E+03 -0.38084803610E+02 -0.18340719475E+03  0.32728328859E+03  0.79818063418E+02 0.  0.
          4    1    3    3  502    0  0.47198243774E+02  0.77424290577E+02  0.50009741036E+01  0.90814121857E+02  0.00000000000E+00 0. -1.
         -4    1    3    3    0  502  0.32212946712E+03  0.18705625348E+03  0.29701390574E+02  0.37368383448E+03  0.00000000000E+00 0.  1.
         11    1    5    5    0    0 -0.44369980884E+03 -0.16980344084E+03 -0.10435452470E+04  0.11465990631E+04  0.00000000000E+00 0. -1.
        -11    1    5    5    0    0 -0.18185978216E+03 -0.56592299614E+02 -0.29798723416E+03  0.35365528480E+03  0.00000000000E+00 0.  1.
          1    1    6    6  503    0  0.19653560988E+01  0.11215562209E+02 -0.34414185681E+01  0.11895159604E+02  0.00000000000E+00 0. -1.
         -1    1    6    6    0  503  0.25426652402E+03 -0.49300365819E+02 -0.17996577618E+03  0.31538812898E+03  0.00000000000E+00 0.  1.
<mgrwt>
<rscale>  0 0.17414419E+04</rscale>
<asrwt>0</asrwt>
<pdfrwt beam="1">  1        1 0.61676790E-01 0.17414419E+04</pdfrwt>
<pdfrwt beam="2">  1       -1 0.29094407E+00 0.17414419E+04</pdfrwt>
<totfact> 0.21468003E+00</totfact>
</mgrwt>
</event>
<event>
12    2  0.8147979E-008  0.1380475E+04  0.7818608E-02  0.8968074E-01
          1   -1    0    0  501    0  0.00000000000E+00  0.00000000000E+00  0.13750292159E+04  0.13750292159E+04  0.00000000000E+00 0. -1.
         -1   -1    0    0    0  501 -0.00000000000E+00 -0.00000000000E+00 -0.34648548719E+03  0.34648548719E+03  0.00000000000E+00 0.  1.
         23    2    1    2    0    0 -0.34161897714E+03  0.16789215105E+03  0.24985846219E+03  0.46901657801E+03  0.11249888618E+03 0.  0.
        254    2    1    2    0    0  0.34161897714E+03 -0.16789215105E+03  0.77868526648E+03  0.12524981250E+04  0.90416232451E+03 0.  0.
         23    2    4    4    0    0 -0.20548373921E+03  0.15884017047E+03  0.49236443274E+02  0.27950226553E+03  0.90793844799E+02 0.  0.
         23    2    4    4    0    0  0.54710271636E+03 -0.32673232152E+03  0.72944882320E+03  0.97299585951E+03  0.92466019553E+02 0.  0.
          4    1    3    3  502    0 -0.23194415394E+03  0.16937982453E+03  0.18341176168E+03  0.34077483743E+03  0.00000000000E+00 0.  1.
         -4    1    3    3    0  502 -0.10967482321E+03 -0.14876734854E+01  0.66446700506E+02  0.12824174058E+03  0.00000000000E+00 0. -1.
         11    1    5    5    0    0 -0.48959136535E+02 -0.33393843564E+01  0.16334971596E+02  0.51720207223E+02  0.00000000000E+00 0.  1.
        -11    1    5    5    0    0 -0.15652460268E+03  0.16217955483E+03  0.32901471678E+02  0.22778205831E+03  0.00000000000E+00 0. -1.
          2    1    6    6  503    0  0.50092488035E+03 -0.27111551226E+03  0.67008400905E+03  0.87945547694E+03  0.00000000000E+00 0. -1.
         -2    1    6    6    0  503  0.46177836010E+02 -0.55616809261E+02  0.59364814157E+02  0.93540382568E+02  0.00000000000E+00 0.  1.
<mgrwt>
<rscale>  0 0.13804748E+04</rscale>
<asrwt>0</asrwt>
<pdfrwt beam="1">  1        1 0.21154295E+00 0.13804748E+04</pdfrwt>
<pdfrwt beam="2">  1       -1 0.53305460E-01 0.13804748E+04</pdfrwt>
<totfact> 0.27731432E+01</totfact>
</mgrwt>
</event>
<event>
12    2  0.8147979E-008  0.3120428E+04  0.7818608E-02  0.8210154E-01
         -1   -1    0    0    0  501 -0.00000000000E+00  0.00000000000E+00  0.17664422495E+04  0.17664422495E+04  0.00000000000E+00 0.  1.
          1   -1    0    0  501    0  0.00000000000E+00 -0.00000000000E+00 -0.13780620941E+04  0.13780620941E+04  0.00000000000E+00 0. -1.
         23    2    1    2    0    0 -0.46649252140E+03 -0.95896705958E+03 -0.78035328635E+03  0.13245187979E+04  0.90364266492E+02 0.  0.
        254    2    1    2    0    0  0.46649252140E+03  0.95896705958E+03  0.11687334417E+04  0.18199855457E+04  0.89954234741E+03 0.  0.
         23    2    4    4    0    0 -0.12505241365E+03  0.68916573517E+03  0.41072841976E+03  0.81707746686E+03  0.91270123036E+02 0.  0.
         23    2    4    4    0    0  0.59154493505E+03  0.26980132441E+03  0.75800502192E+03  0.10029080788E+04  0.92384178317E+02 0.  0.
          2    1    3    3  502    0 -0.27676218840E+03 -0.51392769181E+03 -0.47354750614E+03  0.75164234974E+03  0.00000000000E+00 0. -1.
         -2    1    3    3    0  502 -0.18973033300E+03 -0.44503936777E+03 -0.30680578020E+03  0.57287644819E+03  0.00000000000E+00 0.  1.
         11    1    5    5    0    0 -0.57598398147E+01  0.23322786300E+03  0.10923256092E+03  0.25760466650E+03  0.00000000000E+00 0. -1.
        -11    1    5    5    0    0 -0.11929257384E+03  0.45593787216E+03  0.30149585884E+03  0.55947280036E+03  0.00000000000E+00 0.  1.
          4    1    6    6  503    0  0.74353299513E+02  0.44004783623E+01  0.70187788542E+02  0.10234306532E+03  0.00000000000E+00 0. -1.
         -4    1    6    6    0  503  0.51719163554E+03  0.26540084605E+03  0.68781723338E+03  0.90056501347E+03  0.00000000000E+00 0.  1.
<mgrwt>
<rscale>  0 0.31204276E+04</rscale>
<asrwt>0</asrwt>
<pdfrwt beam="1">  1        1 0.21200955E+00 0.31204276E+04</pdfrwt>
<pdfrwt beam="2">  1       -1 0.27176035E+00 0.31204276E+04</pdfrwt>
<totfact> 0.33748599E-01</totfact>
</mgrwt>
</event>
