<event>
12    6  0.1611689E-007  0.2029361E+04  0.7818608E-02  0.8593015E-01
         -3   -1    0    0    0  501 -0.00000000000E+00  0.00000000000E+00  0.86995753703E+03  0.86995753703E+03  0.00000000000E+00 0.  1.
          4   -1    0    0  501    0  0.00000000000E+00 -0.00000000000E+00 -0.11834788034E+04  0.11834788034E+04  0.00000000000E+00 0. -1.
         24    2    1    2    0    0 -0.33179939469E+03 -0.30959609712E+03  0.55438729521E+03  0.72069661225E+03  0.78216060686E+02 0.  0.
        254    2    1    2    0    0  0.33179939469E+03  0.30959609712E+03 -0.86790856159E+03  0.13327397282E+04  0.90387462082E+03 0.  0.
         23    2    4    4    0    0 -0.24180853754E+03 -0.11867215804E+03 -0.18781521632E+03  0.34099942499E+03  0.91932597297E+02 0.  0.
         23    2    4    4    0    0  0.57360793223E+03  0.42826825516E+03 -0.68009334527E+03  0.99174030320E+03  0.92639691396E+02 0.  0.
          2    1    3    3  502    0 -0.89041002287E+01  0.28634089289E+01  0.39525359202E+01  0.10154046079E+02  0.00000000000E+00 0. -1.
         -1    1    3    3    0  502 -0.32289529446E+03 -0.31245950605E+03  0.55043475929E+03  0.71054256617E+03  0.00000000000E+00 0.  1.
         11    1    5    5    0    0 -0.17814742748E+02 -0.44724365626E+02 -0.40333102322E+02  0.62804403371E+02  0.00000000000E+00 0. -1.
        -11    1    5    5    0    0 -0.22399379479E+03 -0.73947792413E+02 -0.14748211399E+03  0.27819502162E+03  0.00000000000E+00 0.  1.
          3    1    6    6  503    0  0.34647328061E+03  0.28185621805E+03 -0.36639590140E+03  0.57769595670E+03  0.00000000000E+00 0. -1.
         -3    1    6    6    0  503  0.22713465162E+03  0.14641203712E+03 -0.31369744387E+03  0.41404434650E+03  0.00000000000E+00 0.  1.
<mgrwt>
<rscale>  0 0.20293608E+04</rscale>
<asrwt>0</asrwt>
<pdfrwt beam="1">  1        4 0.18207366E+00 0.20293608E+04</pdfrwt>
<pdfrwt beam="2">  1       -3 0.13383962E+00 0.20293608E+04</pdfrwt>
<totfact> 0.15882605E-01</totfact>
</mgrwt>
</event>
<event>
12    6  0.1611689E-007  0.2814480E+04  0.7818608E-02  0.8298787E-01
         -1   -1    0    0    0  501 -0.00000000000E+00  0.00000000000E+00  0.33207563361E+04  0.33207563361E+04  0.00000000000E+00 0.  1.
          2   -1    0    0  501    0  0.00000000000E+00 -0.00000000000E+00 -0.59634740226E+03  0.59634740226E+03  0.00000000000E+00 0. -1.
         24    2    1    2    0    0  0.10876156440E+04 -0.42041332147E+02  0.33721436237E+03  0.11422570082E+04  0.79763925857E+02 0.  0.
        254    2    1    2    0    0 -0.10876156440E+04  0.42041332147E+02  0.23871945715E+04  0.27748467302E+04  0.90354921903E+03 0.  0.
         23    2    4    4    0    0 -0.49924326860E+03  0.46026472433E+03  0.12366831287E+04  0.14137115151E+04  0.90042376480E+02 0.  0.
         23    2    4    4    0    0 -0.58837237541E+03 -0.41822339219E+03  0.11505114428E+04  0.13611352151E+04  0.88992335104E+02 0.  0.
          2    1    3    3  502    0  0.83081776493E+03 -0.25706438459E+02  0.29190789345E+03  0.88098195088E+03  0.00000000000E+00 0. -1.
         -1    1    3    3    0  502  0.25679787908E+03 -0.16334893688E+02  0.45306468922E+02  0.26127505732E+03  0.00000000000E+00 0.  1.
         11    1    5    5    0    0 -0.24488676400E+03  0.19084519850E+03  0.64033810692E+03  0.71163495428E+03  0.00000000000E+00 0. -1.
        -11    1    5    5    0    0 -0.25435650459E+03  0.26941952584E+03  0.59634502174E+03  0.70207656084E+03  0.00000000000E+00 0.  1.
          1    1    6    6  503    0 -0.31412111887E+03 -0.22955325562E+03  0.53688886781E+03  0.66303576892E+03  0.00000000000E+00 0. -1.
         -1    1    6    6    0  503 -0.27425125654E+03 -0.18867013657E+03  0.61362257502E+03  0.69809944616E+03  0.00000000000E+00 0.  1.
<mgrwt>
<rscale>  0 0.28144800E+04</rscale>
<asrwt>0</asrwt>
<pdfrwt beam="1">  1        2 0.91745756E-01 0.28144800E+04</pdfrwt>
<pdfrwt beam="2">  1       -1 0.51088558E+00 0.28144800E+04</pdfrwt>
<totfact> 0.62645934E-02</totfact>
</mgrwt>
</event>
<event>
12    6  0.1611689E-007  0.2361565E+04  0.7818608E-02  0.8454035E-01
         -1   -1    0    0    0  501 -0.00000000000E+00  0.00000000000E+00  0.50157048614E+03  0.50157048614E+03  0.00000000000E+00 0.  1.
          2   -1    0    0  501    0  0.00000000000E+00 -0.00000000000E+00 -0.27797631119E+04  0.27797631119E+04  0.00000000000E+00 0. -1.
         24    2    1    2    0    0 -0.20645593401E+03 -0.40780390647E+02 -0.23398621900E+04  0.23507388987E+04  0.82043944157E+02 0.  0.
        254    2    1    2    0    0  0.20645593401E+03  0.40780390647E+02  0.61669564248E+02  0.93059469932E+03  0.90438723249E+03 0.  0.
         23    2    4    4    0    0  0.23389823944E+03 -0.35898739401E+03  0.21930026977E+03  0.48964672327E+03  0.89894214549E+02 0.  0.
         23    2    4    4    0    0 -0.27442305428E+02  0.39976778466E+03 -0.15763070553E+03  0.44094797605E+03  0.94975346700E+02 0.  0.
          2    1    3    3  502    0 -0.15935634827E+03 -0.30777336715E+02 -0.20891475483E+04  0.20954424756E+04  0.00000000000E+00 0. -1.
         -1    1    3    3    0  502 -0.47099585746E+02 -0.10003053932E+02 -0.25071464169E+03  0.25529642305E+03  0.00000000000E+00 0.  1.
         11    1    5    5    0    0  0.10185880379E+03 -0.94802861113E+02  0.42806102757E+02  0.14558557902E+03  0.00000000000E+00 0. -1.
        -11    1    5    5    0    0  0.13203943565E+03 -0.26418453290E+03  0.17649416702E+03  0.34406114425E+03  0.00000000000E+00 0.  1.
          2    1    6    6  503    0 -0.57018910047E+02  0.20217429436E+03 -0.59322666038E+02  0.21827684282E+03  0.00000000000E+00 0. -1.
         -2    1    6    6    0  503  0.29576604619E+02  0.19759349030E+03 -0.98308039489E+02  0.22267113324E+03  0.00000000000E+00 0.  1.
<mgrwt>
<rscale>  0 0.23615649E+04</rscale>
<asrwt>0</asrwt>
<pdfrwt beam="1">  1        2 0.42765586E+00 0.23615649E+04</pdfrwt>
<pdfrwt beam="2">  1       -1 0.77164692E-01 0.23615649E+04</pdfrwt>
<totfact> 0.41110631E+00</totfact>
</mgrwt>
</event>
<event>
12    6  0.1611689E-007  0.2139908E+04  0.7818608E-02  0.8543864E-01
         -1   -1    0    0    0  501 -0.00000000000E+00  0.00000000000E+00  0.22147616615E+04  0.22147616615E+04  0.00000000000E+00 0.  1.
          2   -1    0    0  501    0  0.00000000000E+00 -0.00000000000E+00 -0.51689627530E+03  0.51689627530E+03  0.00000000000E+00 0. -1.
         24    2    1    2    0    0  0.79707081215E+03  0.28519293479E+03  0.10072536030E+04  0.13180776830E+04  0.78179716596E+02 0.  0.
        254    2    1    2    0    0 -0.79707081215E+03 -0.28519293479E+03  0.69061178319E+03  0.14135802538E+04  0.89699922472E+03 0.  0.
         23    2    4    4    0    0 -0.67591408901E+03 -0.57014840157E+03  0.61795736035E+03  0.10825378500E+04  0.89932429766E+02 0.  0.
         23    2    4    4    0    0 -0.12115672314E+03  0.28495546678E+03  0.72654422848E+02  0.33104240378E+03  0.91825041977E+02 0.  0.
          4    1    3    3  502    0  0.28718889932E+03  0.86173120573E+02  0.30483834441E+03  0.42758588240E+03  0.00000000000E+00 0. -1.
         -3    1    3    3    0  502  0.50988191283E+03  0.19901981422E+03  0.70241525857E+03  0.89049180061E+03  0.00000000000E+00 0.  1.
         11    1    5    5    0    0 -0.59625489817E+03 -0.51659847347E+03  0.58061440624E+03  0.97954426909E+03  0.00000000000E+00 0. -1.
        -11    1    5    5    0    0 -0.79659190839E+02 -0.53549928106E+02  0.37342954110E+02  0.10299358090E+03  0.00000000000E+00 0.  1.
          2    1    6    6  503    0 -0.94385304144E+02  0.20488597477E+03  0.98108509731E+01  0.22579437790E+03  0.00000000000E+00 0. -1.
         -2    1    6    6    0  503 -0.26771418993E+02  0.80069492008E+02  0.62843571875E+02  0.10524802588E+03  0.00000000000E+00 0.  1.
<mgrwt>
<rscale>  0 0.21399085E+04</rscale>
<asrwt>0</asrwt>
<pdfrwt beam="1">  1        2 0.79522505E-01 0.21399085E+04</pdfrwt>
<pdfrwt beam="2">  1       -1 0.34073256E+00 0.21399085E+04</pdfrwt>
<totfact> 0.11129386E+00</totfact>
</mgrwt>
</event>
<event>
12    6  0.1611689E-007  0.1101741E+04  0.7818608E-02  0.9203497E-01
          2   -1    0    0  501    0  0.00000000000E+00  0.00000000000E+00  0.41725069218E+03  0.41725069218E+03  0.00000000000E+00 0. -1.
         -1   -1    0    0    0  501 -0.00000000000E+00 -0.00000000000E+00 -0.72728005400E+03  0.72728005400E+03  0.00000000000E+00 0.  1.
         24    2    1    2    0    0  0.10935547875E+02 -0.84367588296E+02 -0.19826652307E+03  0.22997259746E+03  0.79626033741E+02 0.  0.
        254    2    1    2    0    0 -0.10935547875E+02  0.84367588296E+02 -0.11176283875E+03  0.91455814873E+03  0.90370802758E+03 0.  0.
         23    2    4    4    0    0  0.32419063024E+03 -0.25468872546E+03 -0.66008054347E+02  0.42698087840E+03  0.89385097600E+02 0.  0.
         23    2    4    4    0    0 -0.33512617811E+03  0.33905631375E+03 -0.45754784401E+02  0.48757727033E+03  0.91484179458E+02 0.  0.
          4    1    3    3  502    0 -0.61951861931E+01 -0.14143314686E+02  0.33415378213E+01  0.15798087140E+02  0.00000000000E+00 0. -1.
         -3    1    3    3    0  502  0.17130734069E+02 -0.70224273611E+02 -0.20160806089E+03  0.21417451032E+03  0.00000000000E+00 0.  1.
         11    1    5    5    0    0  0.10211702698E+03 -0.45844969618E+02  0.11236775536E+02  0.11249850471E+03  0.00000000000E+00 0. -1.
        -11    1    5    5    0    0  0.22207360326E+03 -0.20884375584E+03 -0.77244829883E+02  0.31448237369E+03  0.00000000000E+00 0.  1.
          4    1    6    6  503    0 -0.25209483229E+03  0.22359414465E+03 -0.67634972318E+02  0.34368682761E+03  0.00000000000E+00 0. -1.
         -4    1    6    6    0  503 -0.83031345821E+02  0.11546216910E+03  0.21880187917E+02  0.14389044272E+03  0.00000000000E+00 0.  1.
<mgrwt>
<rscale>  0 0.11017406E+04</rscale>
<asrwt>0</asrwt>
<pdfrwt beam="1">  1        2 0.64192415E-01 0.11017406E+04</pdfrwt>
<pdfrwt beam="2">  1       -1 0.11188924E+00 0.11017406E+04</pdfrwt>
<totfact> 0.63156693E+01</totfact>
</mgrwt>
</event>
<event>
12    6  0.1611689E-007  0.1468958E+04  0.7818608E-02  0.8905362E-01
          2   -1    0    0  501    0  0.00000000000E+00  0.00000000000E+00  0.10530362986E+04  0.10530362986E+04  0.00000000000E+00 0. -1.
         -1   -1    0    0    0  501 -0.00000000000E+00 -0.00000000000E+00 -0.51228933916E+03  0.51228933916E+03  0.00000000000E+00 0.  1.
         24    2    1    2    0    0 -0.13064317335E+03  0.11327461854E+02  0.61805226345E+03  0.63773016570E+03  0.86690332502E+02 0.  0.
        254    2    1    2    0    0  0.13064317335E+03 -0.11327461854E+02 -0.77305303960E+02  0.92759547211E+03  0.91501983570E+03 0.  0.
         23    2    4    4    0    0 -0.12391349916E+03 -0.19069984319E+03 -0.40023434087E+03  0.46962308389E+03  0.92937225299E+02 0.  0.
         23    2    4    4    0    0  0.25455667251E+03  0.17937238133E+03  0.32292903691E+03  0.45797238823E+03  0.92097745868E+02 0.  0.
          2    1    3    3  502    0 -0.41765031887E+02 -0.36541645056E+02  0.24996301413E+03  0.25604905418E+03  0.00000000000E+00 0. -1.
         -1    1    3    3    0  502 -0.88878141467E+02  0.47869106910E+02  0.36808924931E+03  0.38168111152E+03  0.00000000000E+00 0.  1.
         11    1    5    5    0    0  0.10585113180E+02 -0.47144277393E+01 -0.46710291562E+02  0.48126102977E+02  0.00000000000E+00 0.  1.
        -11    1    5    5    0    0 -0.13449861234E+03 -0.18598541545E+03 -0.35352404930E+03  0.42149698091E+03  0.00000000000E+00 0. -1.
          1    1    6    6  503    0  0.22406981210E+03  0.12470352000E+03  0.29045077693E+03  0.38745309705E+03  0.00000000000E+00 0. -1.
         -1    1    6    6    0  503  0.30486860418E+02  0.54668861326E+02  0.32478259977E+02  0.70519291176E+02  0.00000000000E+00 0.  1.
<mgrwt>
<rscale>  0 0.14689578E+04</rscale>
<asrwt>0</asrwt>
<pdfrwt beam="1">  1        2 0.16200558E+00 0.14689578E+04</pdfrwt>
<pdfrwt beam="2">  1       -1 0.78813745E-01 0.14689578E+04</pdfrwt>
<totfact> 0.41466503E+01</totfact>
</mgrwt>
</event>
<event>
12    6  0.1611689E-007  0.1643433E+04  0.7818608E-02  0.8794301E-01
         -3   -1    0    0    0  501 -0.00000000000E+00  0.00000000000E+00  0.81595305105E+03  0.81595305105E+03  0.00000000000E+00 0.  1.
          2   -1    0    0  501    0  0.00000000000E+00 -0.00000000000E+00 -0.82752070062E+03  0.82752070062E+03  0.00000000000E+00 0. -1.
         24    2    1    2    0    0  0.20410791734E+03  0.46900355528E+03  0.24943516458E+03  0.57435778915E+03  0.77746973184E+02 0.  0.
        254    2    1    2    0    0 -0.20410791734E+03 -0.46900355528E+03 -0.26100281416E+03  0.10691159625E+04  0.90181045433E+03 0.  0.
         23    2    4    4    0    0 -0.36473325803E+03  0.18062703179E+02 -0.38084952071E+03  0.53410370414E+03  0.82848045179E+02 0.  0.
         23    2    4    4    0    0  0.16062534069E+03 -0.48706625846E+03  0.11984670655E+03  0.53501225839E+03  0.94025758993E+02 0.  0.
          2    1    3    3  502    0  0.77371416738E+02  0.11879382745E+03  0.97829943849E+02  0.17224693751E+03  0.00000000000E+00 0. -1.
         -1    1    3    3    0  502  0.12673650061E+03  0.35020972783E+03  0.15160522073E+03  0.40211085164E+03  0.00000000000E+00 0.  1.
         11    1    5    5    0    0 -0.18678023162E+03  0.49821940646E+02 -0.18470658737E+03  0.26736791900E+03  0.00000000000E+00 0. -1.
        -11    1    5    5    0    0 -0.17795302641E+03 -0.31759237467E+02 -0.19614293334E+03  0.26673578513E+03  0.00000000000E+00 0.  1.
          3    1    6    6  503    0  0.76263833605E+02 -0.36290009141E+03  0.74916182975E+02  0.37831875863E+03  0.00000000000E+00 0. -1.
         -3    1    6    6    0  503  0.84361507082E+02 -0.12416616705E+03  0.44930523577E+02  0.15669349975E+03  0.00000000000E+00 0.  1.
<mgrwt>
<rscale>  0 0.16434330E+04</rscale>
<asrwt>0</asrwt>
<pdfrwt beam="1">  1        2 0.12731088E+00 0.16434330E+04</pdfrwt>
<pdfrwt beam="2">  1       -3 0.12553124E+00 0.16434330E+04</pdfrwt>
<totfact> 0.10054474E+01</totfact>
</mgrwt>
</event>
<event>
12    6  0.1611689E-007  0.1022649E+04  0.7818608E-02  0.9284046E-01
          2   -1    0    0  501    0  0.00000000000E+00  0.00000000000E+00  0.13574088213E+03  0.13574088213E+03  0.00000000000E+00 0. -1.
         -1   -1    0    0    0  501 -0.00000000000E+00 -0.00000000000E+00 -0.19261179258E+04  0.19261179258E+04  0.00000000000E+00 0.  1.
         24    2    1    2    0    0 -0.46871096624E+01  0.10404735125E+03 -0.20678458629E+03  0.24533588100E+03  0.81129582005E+02 0.  0.
        254    2    1    2    0    0  0.46871096624E+01 -0.10404735125E+03 -0.15835924573E+04  0.18165229269E+04  0.88382274960E+03 0.  0.
         23    2    4    4    0    0 -0.36437632968E+03 -0.26516506775E+03 -0.10083666891E+04  0.11082512378E+04  0.91295146600E+02 0.  0.
         23    2    4    4    0    0  0.36906343934E+03  0.16111771649E+03 -0.57522576829E+03  0.70827168907E+03  0.92721951046E+02 0.  0.
          2    1    3    3  502    0 -0.48877044373E+01  0.72884968432E+02 -0.57864596070E+02  0.93190234233E+02  0.00000000000E+00 0. -1.
         -1    1    3    3    0  502  0.20059477493E+00  0.31162382822E+02 -0.14891999022E+03  0.15214564676E+03  0.00000000000E+00 0.  1.
         11    1    5    5    0    0 -0.21727909896E+03 -0.10385286685E+03 -0.49899325823E+03  0.55406668963E+03  0.00000000000E+00 0. -1.
        -11    1    5    5    0    0 -0.14709723072E+03 -0.16131220090E+03 -0.50937343082E+03  0.55418454821E+03  0.00000000000E+00 0.  1.
          3    1    6    6  503    0  0.20089037519E+03  0.41594645798E+02 -0.31949713478E+03  0.37969129109E+03  0.00000000000E+00 0. -1.
         -3    1    6    6    0  503  0.16817306415E+03  0.11952307069E+03 -0.25572863352E+03  0.32858039798E+03  0.00000000000E+00 0.  1.
<mgrwt>
<rscale>  0 0.10226494E+04</rscale>
<asrwt>0</asrwt>
<pdfrwt beam="1">  1        2 0.20883213E-01 0.10226494E+04</pdfrwt>
<pdfrwt beam="2">  1       -1 0.29632583E+00 0.10226494E+04</pdfrwt>
<totfact> 0.10936803E+01</totfact>
</mgrwt>
</event>
<event>
12    6  0.1611689E-007  0.1271204E+04  0.7818608E-02  0.9052718E-01
         -1   -1    0    0    0  501 -0.00000000000E+00  0.00000000000E+00  0.20839804823E+03  0.20839804823E+03  0.00000000000E+00 0.  1.
          2   -1    0    0  501    0  0.00000000000E+00 -0.00000000000E+00 -0.19385490096E+04  0.19385490096E+04  0.00000000000E+00 0. -1.
         24    2    1    2    0    0  0.51929847859E+02  0.27850998487E+03 -0.62259352859E+03  0.68860933249E+03  0.79344755203E+02 0.  0.
        254    2    1    2    0    0 -0.51929847859E+02 -0.27850998487E+03 -0.11075574328E+04  0.14583377254E+04  0.90542859104E+03 0.  0.
         23    2    4    4    0    0  0.23590499228E+02 -0.59224821777E+03 -0.58953695601E+03  0.84084744428E+03  0.90311344508E+02 0.  0.
         23    2    4    4    0    0 -0.75520347087E+02  0.31373823290E+03 -0.51802047681E+03  0.61749028109E+03  0.93883072159E+02 0.  0.
          2    1    3    3  502    0  0.31207264364E+02  0.26646508131E+03 -0.54600175683E+03  0.60835470851E+03  0.00000000000E+00 0. -1.
         -1    1    3    3    0  502  0.20722583495E+02  0.12044903560E+02 -0.76591771757E+02  0.80254623975E+02  0.00000000000E+00 0.  1.
         11    1    5    5    0    0 -0.15967893600E+02 -0.17724629040E+03 -0.22647510394E+03  0.28803158471E+03  0.00000000000E+00 0. -1.
        -11    1    5    5    0    0  0.39558392828E+02 -0.41500192737E+03 -0.36306185207E+03  0.55281585957E+03  0.00000000000E+00 0.  1.
          4    1    6    6  503    0 -0.55475808161E+01  0.13910631918E+03 -0.15311263974E+03  0.20694159595E+03  0.00000000000E+00 0. -1.
         -4    1    6    6    0  503 -0.69972766271E+02  0.17463191372E+03 -0.36490783708E+03  0.41054868514E+03  0.00000000000E+00 0.  1.
<mgrwt>
<rscale>  0 0.12712039E+04</rscale>
<asrwt>0</asrwt>
<pdfrwt beam="1">  1        2 0.29823831E+00 0.12712039E+04</pdfrwt>
<pdfrwt beam="2">  1       -1 0.32061238E-01 0.12712039E+04</pdfrwt>
<totfact> 0.73429742E+01</totfact>
</mgrwt>
</event>
<event>
12    6  0.1611689E-007  0.3300313E+04  0.7818608E-02  0.8162816E-01
          2   -1    0    0  501    0  0.00000000000E+00  0.00000000000E+00  0.19486885564E+04  0.19486885564E+04  0.00000000000E+00 0. -1.
         -1   -1    0    0    0  501 -0.00000000000E+00 -0.00000000000E+00 -0.13973581032E+04  0.13973581032E+04  0.00000000000E+00 0.  1.
         24    2    1    2    0    0  0.97219016548E+03 -0.11413472001E+04  0.23156564850E+02  0.15014408245E+04  0.77208639858E+02 0.  0.
        254    2    1    2    0    0 -0.97219016548E+03  0.11413472001E+04  0.52817388829E+03  0.18446058351E+04  0.93582898088E+03 0.  0.
         23    2    4    4    0    0  0.26505141736E+02  0.62954700269E+03  0.13004237356E+03  0.65014222904E+03  0.93498384591E+02 0.  0.
         23    2    4    4    0    0 -0.99869530722E+03  0.51180019742E+03  0.39813151473E+03  0.11944636060E+04  0.94354885324E+02 0.  0.
          4    1    3    3  502    0  0.94821581793E+03 -0.11231377892E+04  0.13910679646E+02  0.14699473589E+04  0.00000000000E+00 0. -1.
         -3    1    3    3    0  502  0.23974347555E+02 -0.18209410934E+02  0.92458852038E+01  0.31493465679E+02  0.00000000000E+00 0.  1.
         11    1    5    5    0    0  0.26007452068E+02  0.24777898452E+03  0.77338751346E+01  0.24926015638E+03  0.00000000000E+00 0.  1.
        -11    1    5    5    0    0  0.49768966813E+00  0.38176801817E+03  0.12230849842E+03  0.40088207266E+03  0.00000000000E+00 0. -1.
          4    1    6    6  503    0 -0.63534374787E+03  0.32411402176E+03  0.20450497310E+03  0.74197969048E+03  0.00000000000E+00 0. -1.
         -4    1    6    6    0  503 -0.36335155935E+03  0.18768617565E+03  0.19362654164E+03  0.45248391556E+03  0.00000000000E+00 0.  1.
<mgrwt>
<rscale>  0 0.33003126E+04</rscale>
<asrwt>0</asrwt>
<pdfrwt beam="1">  1        2 0.29979824E+00 0.33003126E+04</pdfrwt>
<pdfrwt beam="2">  1       -1 0.21497817E+00 0.33003126E+04</pdfrwt>
<totfact> 0.80638615E-01</totfact>
</mgrwt>
</event>
<event>
12    6  0.1611689E-007  0.2075061E+04  0.7818608E-02  0.8572310E-01
          4   -1    0    0  501    0  0.00000000000E+00  0.00000000000E+00  0.72725524845E+03  0.72725524845E+03  0.00000000000E+00 0. -1.
         -3   -1    0    0    0  501 -0.00000000000E+00 -0.00000000000E+00 -0.14801809941E+04  0.14801809941E+04  0.00000000000E+00 0.  1.
         24    2    1    2    0    0  0.77306408974E+02 -0.35408082320E+02 -0.11981400416E+04  0.12037311257E+04  0.78734049686E+02 0.  0.
        254    2    1    2    0    0 -0.77306408974E+02  0.35408082320E+02  0.44521429592E+03  0.10037051169E+04  0.89553234400E+03 0.  0.
         23    2    4    4    0    0  0.13734674255E+03  0.28892772755E+02 -0.23257389219E+03  0.28681969263E+03  0.92065198329E+02 0.  0.
         23    2    4    4    0    0 -0.21465315153E+03  0.65153095653E+01  0.67778818811E+03  0.71688542423E+03  0.91703101424E+02 0.  0.
          4    1    3    3  502    0  0.58299438300E+01 -0.16781091877E+02 -0.47347334585E+02  0.50570380480E+02  0.00000000000E+00 0. -1.
         -1    1    3    3    0  502  0.71476465144E+02 -0.18626990443E+02 -0.11507927070E+04  0.11531607452E+04  0.00000000000E+00 0.  1.
         11    1    5    5    0    0  0.55495272460E+02 -0.15671148240E+02 -0.15561218697E+03  0.16595319486E+03  0.00000000000E+00 0.  1.
        -11    1    5    5    0    0  0.81851470095E+02  0.44563920995E+02 -0.76961705219E+02  0.12086649776E+03  0.00000000000E+00 0. -1.
          1    1    6    6  503    0 -0.46910906626E+01 -0.21019033405E+02  0.54137331515E+02  0.58263683032E+02  0.00000000000E+00 0. -1.
         -1    1    6    6    0  503 -0.20996206087E+03  0.27534342970E+02  0.62365085659E+03  0.65862174120E+03  0.00000000000E+00 0.  1.
<mgrwt>
<rscale>  0 0.20750609E+04</rscale>
<asrwt>0</asrwt>
<pdfrwt beam="1">  1        4 0.11188542E+00 0.20750609E+04</pdfrwt>
<pdfrwt beam="2">  1       -3 0.22772015E+00 0.20750609E+04</pdfrwt>
<totfact> 0.13144119E-01</totfact>
</mgrwt>
</event>
<event>
12    6  0.1611689E-007  0.1786896E+04  0.7818608E-02  0.8713299E-01
          2   -1    0    0  501    0  0.00000000000E+00  0.00000000000E+00  0.70878717293E+03  0.70878717293E+03  0.00000000000E+00 0. -1.
         -1   -1    0    0    0  501 -0.00000000000E+00 -0.00000000000E+00 -0.11262192004E+04  0.11262192004E+04  0.00000000000E+00 0.  1.
         24    2    1    2    0    0  0.86403082659E+02 -0.57108508932E+02  0.52702492614E+03  0.54313885551E+03  0.80732082304E+02 0.  0.
        254    2    1    2    0    0 -0.86403082659E+02  0.57108508932E+02 -0.94445695362E+03  0.12918675178E+04  0.87532615174E+03 0.  0.
         23    2    4    4    0    0 -0.23389818855E+03 -0.29137959786E+03 -0.16064922111E+03  0.41623978158E+03  0.88526554612E+02 0.  0.
         23    2    4    4    0    0  0.14749510589E+03  0.34848810680E+03 -0.78380773251E+03  0.87562773625E+03  0.95763271186E+02 0.  0.
          4    1    3    3  502    0  0.58216375294E+01 -0.48302784489E+02  0.15825398021E+03  0.16556380252E+03  0.00000000000E+00 0. -1.
         -3    1    3    3    0  502  0.80581445130E+02 -0.88057244430E+01  0.36877094593E+03  0.37757505300E+03  0.00000000000E+00 0.  1.
         11    1    5    5    0    0 -0.32168320380E+02 -0.20488656444E+02 -0.45561923011E+02  0.59417797901E+02  0.00000000000E+00 0. -1.
        -11    1    5    5    0    0 -0.20172986817E+03 -0.27089094142E+03 -0.11508729810E+03  0.35682198368E+03  0.00000000000E+00 0.  1.
          1    1    6    6  503    0  0.12720758474E+02  0.34223019525E+01 -0.71956617711E+02  0.73152475551E+02  0.00000000000E+00 0. -1.
         -1    1    6    6    0  503  0.13477434742E+03  0.34506580484E+03 -0.71185111480E+03  0.80247526070E+03  0.00000000000E+00 0.  1.
<mgrwt>
<rscale>  0 0.17868964E+04</rscale>
<asrwt>0</asrwt>
<pdfrwt beam="1">  1        2 0.10904418E+00 0.17868964E+04</pdfrwt>
<pdfrwt beam="2">  1       -1 0.17326449E+00 0.17868964E+04</pdfrwt>
<totfact> 0.10133756E+01</totfact>
</mgrwt>
</event>
<event>
12    6  0.1611689E-007  0.1312202E+04  0.7818608E-02  0.9019945E-01
         -1   -1    0    0    0  501 -0.00000000000E+00  0.00000000000E+00  0.61956107268E+03  0.61956107268E+03  0.00000000000E+00 0.  1.
          2   -1    0    0  501    0  0.00000000000E+00 -0.00000000000E+00 -0.69479563323E+03  0.69479563323E+03  0.00000000000E+00 0. -1.
         24    2    1    2    0    0  0.10812659301E+03  0.23307364059E+03  0.20241507550E+03  0.33774190844E+03  0.84160868988E+02 0.  0.
        254    2    1    2    0    0 -0.10812659301E+03 -0.23307364059E+03 -0.27764963605E+03  0.97661479747E+03  0.90037351148E+03 0.  0.
         23    2    4    4    0    0 -0.11369525746E+03 -0.52224106255E+03 -0.37365931098E+03  0.65851138886E+03  0.91398192505E+02 0.  0.
         23    2    4    4    0    0  0.55686644486E+01  0.28916742196E+03  0.96009674927E+02  0.31810340861E+03  0.91231096360E+02 0.  0.
          2    1    3    3  502    0  0.16111465613E+02  0.59116709792E+02  0.92132614156E+01  0.61961672724E+02  0.00000000000E+00 0. -1.
         -1    1    3    3    0  502  0.92015127396E+02  0.17395693080E+03  0.19320181409E+03  0.27578023571E+03  0.00000000000E+00 0.  1.
         11    1    5    5    0    0  0.59833571602E+01 -0.52546388908E+02 -0.13310830184E+02  0.54535325711E+02  0.00000000000E+00 0.  1.
        -11    1    5    5    0    0 -0.11967861462E+03 -0.46969467364E+03 -0.36034848079E+03  0.60397606315E+03  0.00000000000E+00 0. -1.
          4    1    6    6  503    0 -0.40581706661E+02  0.16996438107E+03  0.66097960686E+02  0.18682533596E+03  0.00000000000E+00 0. -1.
         -4    1    6    6    0  503  0.46150371110E+02  0.11920304089E+03  0.29911714240E+02  0.13127807265E+03  0.00000000000E+00 0.  1.
<mgrwt>
<rscale>  0 0.13122017E+04</rscale>
<asrwt>0</asrwt>
<pdfrwt beam="1">  1        2 0.10689164E+00 0.13122017E+04</pdfrwt>
<pdfrwt beam="2">  1       -1 0.95317088E-01 0.13122017E+04</pdfrwt>
<totfact> 0.49199091E+01</totfact>
</mgrwt>
</event>
<event>
12    6  0.1611689E-007  0.1673127E+04  0.7818608E-02  0.8776841E-01
         -1   -1    0    0    0  501 -0.00000000000E+00  0.00000000000E+00  0.37843664343E+03  0.37843664343E+03  0.00000000000E+00 0.  1.
          2   -1    0    0  501    0  0.00000000000E+00 -0.00000000000E+00 -0.18492883585E+04  0.18492883585E+04  0.00000000000E+00 0. -1.
         24    2    1    2    0    0 -0.53819737299E+03 -0.21925541891E+03 -0.38991122271E+03  0.70415082761E+03  0.77899136074E+02 0.  0.
        254    2    1    2    0    0  0.53819737299E+03  0.21925541891E+03 -0.10809404924E+04  0.15235741743E+04  0.90283806169E+03 0.  0.
         23    2    4    4    0    0  0.56627200642E+03  0.19380870744E+02 -0.11546304862E+04  0.12894082624E+04  0.91446727178E+02 0.  0.
         23    2    4    4    0    0 -0.28074633424E+02  0.19987454817E+03  0.73689993852E+02  0.23416591198E+03  0.93088340255E+02 0.  0.
          4    1    3    3  502    0 -0.45009325850E+02 -0.28898950217E+01 -0.49790439792E+02  0.67180940761E+02  0.00000000000E+00 0. -1.
         -3    1    3    3    0  502 -0.49318804714E+03 -0.21636552389E+03 -0.34012078292E+03  0.63696988685E+03  0.00000000000E+00 0.  1.
         11    1    5    5    0    0  0.56933576617E+03  0.18195119137E+02 -0.11397335414E+04  0.12741533747E+04  0.00000000000E+00 0. -1.
        -11    1    5    5    0    0 -0.30637597477E+01  0.11857516079E+01 -0.14896944869E+02  0.15254887646E+02  0.00000000000E+00 0.  1.
          3    1    6    6  503    0 -0.61504112077E+02  0.12030774646E+03  0.54870231047E+02  0.14583364466E+03  0.00000000000E+00 0. -1.
         -3    1    6    6    0  503  0.33429478652E+02  0.79566801708E+02  0.18819762805E+02  0.88332267315E+02  0.00000000000E+00 0.  1.
<mgrwt>
<rscale>  0 0.16731270E+04</rscale>
<asrwt>0</asrwt>
<pdfrwt beam="1">  1        2 0.28450590E+00 0.16731270E+04</pdfrwt>
<pdfrwt beam="2">  1       -1 0.58221023E-01 0.16731270E+04</pdfrwt>
<totfact> 0.26303715E+01</totfact>
</mgrwt>
</event>
<event>
12    6  0.1611689E-007  0.2103440E+04  0.7818608E-02  0.8559729E-01
         -1   -1    0    0    0  501 -0.00000000000E+00  0.00000000000E+00  0.19303843828E+04  0.19303843828E+04  0.00000000000E+00 0.  1.
          2   -1    0    0  501    0  0.00000000000E+00 -0.00000000000E+00 -0.57300255845E+03  0.57300255845E+03  0.00000000000E+00 0. -1.
         24    2    1    2    0    0  0.59592881720E+03 -0.80754653914E+01  0.12891251495E+04  0.14224489563E+04  0.79504804132E+02 0.  0.
        254    2    1    2    0    0 -0.59592881720E+03  0.80754653914E+01  0.68256674829E+02  0.10809379849E+04  0.89920608611E+03 0.  0.
         23    2    4    4    0    0 -0.21025303762E+03  0.25919582341E+03  0.38285351456E+03  0.51590692367E+03  0.90522514235E+02 0.  0.
         23    2    4    4    0    0 -0.38567577958E+03 -0.25112035802E+03 -0.31459683973E+03  0.56503106126E+03  0.92096077301E+02 0.  0.
          4    1    3    3  502    0  0.13582060108E+03  0.55313930012E+01  0.22250390994E+03  0.26074090958E+03  0.00000000000E+00 0. -1.
         -3    1    3    3    0  502  0.46010821612E+03 -0.13606858393E+02  0.10666212396E+04  0.11617080468E+04  0.00000000000E+00 0.  1.
         11    1    5    5    0    0  0.18188504254E+01  0.42220957601E+02  0.51845228524E+02  0.66886808851E+02  0.00000000000E+00 0. -1.
        -11    1    5    5    0    0 -0.21207188805E+03  0.21697486581E+03  0.33100828603E+03  0.44902011482E+03  0.00000000000E+00 0.  1.
          1    1    6    6  503    0 -0.31158658236E+02 -0.22084996632E+01 -0.45117524829E+02  0.54875591118E+02  0.00000000000E+00 0. -1.
         -1    1    6    6    0  503 -0.35451712135E+03 -0.24891185836E+03 -0.26947931490E+03  0.51015547014E+03  0.00000000000E+00 0.  1.
<mgrwt>
<rscale>  0 0.21034402E+04</rscale>
<asrwt>0</asrwt>
<pdfrwt beam="1">  1        2 0.88154241E-01 0.21034402E+04</pdfrwt>
<pdfrwt beam="2">  1       -1 0.29698221E+00 0.21034402E+04</pdfrwt>
<totfact> 0.19062014E+00</totfact>
</mgrwt>
</event>
<event>
12    6  0.1611689E-007  0.1131587E+04  0.7818608E-02  0.9174940E-01
         -1   -1    0    0    0  501 -0.00000000000E+00  0.00000000000E+00  0.27687447509E+03  0.27687447509E+03  0.00000000000E+00 0.  1.
          2   -1    0    0  501    0  0.00000000000E+00 -0.00000000000E+00 -0.11562005216E+04  0.11562005216E+04  0.00000000000E+00 0. -1.
         24    2    1    2    0    0 -0.13880487930E+03 -0.59999462611E+02  0.79607797397E+01  0.17088854412E+03  0.79200949911E+02 0.  0.
        254    2    1    2    0    0  0.13880487930E+03  0.59999462611E+02 -0.88728682628E+03  0.12621864526E+04  0.88485591991E+03 0.  0.
         23    2    4    4    0    0  0.41010918739E+03 -0.22068386084E+03 -0.61733853375E+03  0.77850739576E+03  0.89866500858E+02 0.  0.
         23    2    4    4    0    0 -0.27130430809E+03  0.28068332346E+03 -0.26994829254E+03  0.48367905685E+03  0.93189021521E+02 0.  0.
          4    1    3    3  502    0 -0.98063274735E+01  0.16022513181E+02 -0.77756509386E+01  0.20330905899E+02  0.00000000000E+00 0. -1.
         -3    1    3    3    0  502 -0.12899855183E+03 -0.76021975792E+02  0.15736430678E+02  0.15055763822E+03  0.00000000000E+00 0.  1.
         11    1    5    5    0    0  0.11250747497E+03 -0.10017572324E+03 -0.16045305212E+03  0.22008700413E+03  0.00000000000E+00 0. -1.
        -11    1    5    5    0    0  0.29760171243E+03 -0.12050813760E+03 -0.45688548162E+03  0.55842039163E+03  0.00000000000E+00 0.  1.
          4    1    6    6  503    0 -0.10181289506E+03  0.96486242520E+02 -0.15244673160E+03  0.20716048506E+03  0.00000000000E+00 0. -1.
         -4    1    6    6    0  503 -0.16949141304E+03  0.18419708094E+03 -0.11750156093E+03  0.27651857178E+03  0.00000000000E+00 0.  1.
<mgrwt>
<rscale>  0 0.11315872E+04</rscale>
<asrwt>0</asrwt>
<pdfrwt beam="1">  1        2 0.17787700E+00 0.11315872E+04</pdfrwt>
<pdfrwt beam="2">  1       -1 0.42596073E-01 0.11315872E+04</pdfrwt>
<totfact> 0.12326426E+02</totfact>
</mgrwt>
</event>
<event>
12    6  0.1703041E-007  0.1622668E+04  0.7818608E-02  0.8806742E-01
         -1   -1    0    0    0  501 -0.00000000000E+00  0.00000000000E+00  0.39377401130E+03  0.39377401130E+03  0.00000000000E+00 0.  1.
          2   -1    0    0  501    0  0.00000000000E+00 -0.00000000000E+00 -0.16716758680E+04  0.16716758680E+04  0.00000000000E+00 0. -1.
         24    2    1    2    0    0  0.12309609507E+03  0.37641329253E+03 -0.95602579759E+03  0.10378460127E+04  0.79368791268E+02 0.  0.
        254    2    1    2    0    0 -0.12309609507E+03 -0.37641329253E+03 -0.32187605909E+03  0.10276038666E+04  0.89192258282E+03 0.  0.
         23    2    4    4    0    0 -0.46236400424E+03 -0.37219920365E+03 -0.31252530399E+03  0.67688898422E+03  0.90520228126E+02 0.  0.
         23    2    4    4    0    0  0.33926790917E+03 -0.42140888794E+01 -0.93507550971E+01  0.35071488235E+03  0.88278079640E+02 0.  0.
          2    1    3    3  502    0  0.11662634758E+03  0.36565983245E+03 -0.86985675830E+03  0.95076789911E+03  0.00000000000E+00 0. -1.
         -1    1    3    3    0  502  0.64697474907E+01  0.10753460082E+02 -0.86169039288E+02  0.87078113600E+02  0.00000000000E+00 0.  1.
         11    1    5    5    0    0  0.24431421863E+01 -0.65235642010E+01 -0.11076730708E+02  0.13085098273E+02  0.00000000000E+00 0. -1.
        -11    1    5    5    0    0 -0.46480714643E+03 -0.36567563945E+03 -0.30144857328E+03  0.66380388594E+03  0.00000000000E+00 0.  1.
          4    1    6    6  503    0  0.20630578982E+03 -0.43605587083E+02  0.76480287874E+01  0.21100241345E+03  0.00000000000E+00 0.  1.
         -4    1    6    6    0  503  0.13296211935E+03  0.39391498204E+02 -0.16998783885E+02  0.13971246890E+03  0.00000000000E+00 0. -1.
<mgrwt>
<rscale>  0 0.16226676E+04</rscale>
<asrwt>0</asrwt>
<pdfrwt beam="1">  1        2 0.25718090E+00 0.16226676E+04</pdfrwt>
<pdfrwt beam="2">  1       -1 0.60580617E-01 0.16226676E+04</pdfrwt>
<totfact> 0.30644651E+01</totfact>
</mgrwt>
</event>
<event>
12    6  0.1611689E-007  0.2382826E+04  0.7818608E-02  0.8445961E-01
          2   -1    0    0  501    0  0.00000000000E+00  0.00000000000E+00  0.18931605740E+04  0.18931605740E+04  0.00000000000E+00 0. -1.
         -1   -1    0    0    0  501 -0.00000000000E+00 -0.00000000000E+00 -0.74978580076E+03  0.74978580076E+03  0.00000000000E+00 0.  1.
         24    2    1    2    0    0 -0.14062616342E+03 -0.26003476610E+03 -0.59321657951E+03  0.66755729072E+03  0.79580329087E+02 0.  0.
        254    2    1    2    0    0  0.14062616342E+03  0.26003476610E+03  0.17365913527E+04  0.19753890840E+04  0.89387846461E+03 0.  0.
         23    2    4    4    0    0 -0.26931124960E+02 -0.31806736016E+03  0.65778352255E+03  0.73657630752E+03  0.89293690529E+02 0.  0.
         23    2    4    4    0    0  0.16755728838E+03  0.57810212626E+03  0.10788078302E+04  0.12388127765E+04  0.92483768868E+02 0.  0.
          4    1    3    3  502    0 -0.56260737209E+02 -0.79584015416E+02 -0.27886274838E+03  0.29540365349E+03  0.00000000000E+00 0. -1.
         -3    1    3    3    0  502 -0.84365426214E+02 -0.18045075068E+03 -0.31435383112E+03  0.37215363723E+03  0.00000000000E+00 0.  1.
         11    1    5    5    0    0 -0.18850950623E+02 -0.81575265261E+01  0.55685299570E+02  0.59352810941E+02  0.00000000000E+00 0.  1.
        -11    1    5    5    0    0 -0.80801743366E+01 -0.30990983364E+03  0.60209822298E+03  0.67722349658E+03  0.00000000000E+00 0. -1.
          3    1    6    6  503    0  0.16548313280E+03  0.49838443084E+03  0.98006733193E+03  0.11118919387E+04  0.00000000000E+00 0. -1.
         -3    1    6    6    0  503  0.20741555840E+01  0.79717695419E+02  0.98740498233E+02  0.12692083783E+03  0.00000000000E+00 0.  1.
<mgrwt>
<rscale>  0 0.23828260E+04</rscale>
<asrwt>0</asrwt>
<pdfrwt beam="1">  1        2 0.29125547E+00 0.23828260E+04</pdfrwt>
<pdfrwt beam="2">  1       -1 0.11535166E+00 0.23828260E+04</pdfrwt>
<totfact> 0.53494889E+00</totfact>
</mgrwt>
</event>
<event>
12    6  0.1611689E-007  0.2929275E+04  0.7818608E-02  0.8264220E-01
         -3   -1    0    0    0  501 -0.00000000000E+00  0.00000000000E+00  0.15163774913E+04  0.15163774913E+04  0.00000000000E+00 0.  1.
          4   -1    0    0  501    0  0.00000000000E+00 -0.00000000000E+00 -0.14146627701E+04  0.14146627701E+04  0.00000000000E+00 0. -1.
         24    2    1    2    0    0 -0.78257115200E+03  0.35379813724E+03 -0.96294996996E+03  0.12926474006E+04  0.77935408128E+02 0.  0.
        254    2    1    2    0    0  0.78257115200E+03 -0.35379813724E+03  0.10646646912E+04  0.16383928607E+04  0.90179239933E+03 0.  0.
         23    2    4    4    0    0  0.35973974307E+03  0.82015503580E+02  0.93737381927E+03  0.10113642507E+04  0.89714798012E+02 0.  0.
         23    2    4    4    0    0  0.42283140892E+03 -0.43581364082E+03  0.12729087193E+03  0.62702861000E+03  0.90785361077E+02 0.  0.
          4    1    3    3  502    0 -0.51710055661E+03  0.23447215152E+03 -0.69065667182E+03  0.89407875146E+03  0.00000000000E+00 0. -1.
         -3    1    3    3    0  502 -0.26547059539E+03  0.11932598572E+03 -0.27229329815E+03  0.39856864917E+03  0.00000000000E+00 0.  1.
         11    1    5    5    0    0  0.13459644407E+03 -0.54037387935E+01  0.40376300975E+03  0.42564065970E+03  0.00000000000E+00 0. -1.
        -11    1    5    5    0    0  0.22514329901E+03  0.87419242374E+02  0.53361080952E+03  0.58572359100E+03  0.00000000000E+00 0.  1.
          1    1    6    6  503    0  0.23838780379E+03 -0.19952644543E+03  0.97499599900E+02  0.32580012186E+03  0.00000000000E+00 0. -1.
         -1    1    6    6    0  503  0.18444360513E+03 -0.23628719539E+03  0.29791272029E+02  0.30122848814E+03  0.00000000000E+00 0.  1.
<mgrwt>
<rscale>  0 0.29292748E+04</rscale>
<asrwt>0</asrwt>
<pdfrwt beam="1">  1        4 0.21764042E+00 0.29292748E+04</pdfrwt>
<pdfrwt beam="2">  1       -3 0.23328885E+00 0.29292748E+04</pdfrwt>
<totfact> 0.18084741E-02</totfact>
</mgrwt>
</event>
<event>
12    6  0.1611689E-007  0.1409497E+04  0.7818608E-02  0.8946973E-01
         -1   -1    0    0    0  501 -0.00000000000E+00  0.00000000000E+00  0.56327064759E+03  0.56327064759E+03  0.00000000000E+00 0.  1.
          2   -1    0    0  501    0  0.00000000000E+00 -0.00000000000E+00 -0.88176109782E+03  0.88176109782E+03  0.00000000000E+00 0. -1.
         24    2    1    2    0    0  0.23975423999E+03  0.22424397397E+03  0.16062433397E+03  0.37423672034E+03  0.80532544559E+02 0.  0.
        254    2    1    2    0    0 -0.23975423999E+03 -0.22424397397E+03 -0.47911478419E+03  0.10707950251E+04  0.89960188629E+03 0.  0.
         23    2    4    4    0    0 -0.44641584079E+03  0.74897673912E+02 -0.51741598037E+03  0.69359162199E+03  0.91941703787E+02 0.  0.
         23    2    4    4    0    0  0.20666160079E+03 -0.29914164788E+03  0.38301196174E+02  0.37720340308E+03  0.92847632843E+02 0.  0.
          2    1    3    3  502    0  0.14016074426E+03  0.15896377988E+03  0.65486041810E+02  0.22181735554E+03  0.00000000000E+00 0. -1.
         -1    1    3    3    0  502  0.99593495734E+02  0.65280194086E+02  0.95138292156E+02  0.15241936480E+03  0.00000000000E+00 0.  1.
         11    1    5    5    0    0 -0.39826764413E+03  0.93192719841E+02 -0.44148807875E+03  0.60184194193E+03  0.00000000000E+00 0. -1.
        -11    1    5    5    0    0 -0.48148196658E+02 -0.18295045928E+02 -0.75927901619E+02  0.91749680060E+02  0.00000000000E+00 0.  1.
          1    1    6    6  503    0  0.56556326261E+02 -0.13246704345E+03 -0.20076648972E+02  0.14542767093E+03  0.00000000000E+00 0. -1.
         -1    1    6    6    0  503  0.15010527453E+03 -0.16667460444E+03  0.58377845146E+02  0.23177573214E+03  0.00000000000E+00 0.  1.
<mgrwt>
<rscale>  0 0.14094966E+04</rscale>
<asrwt>0</asrwt>
<pdfrwt beam="1">  1        2 0.13565555E+00 0.14094966E+04</pdfrwt>
<pdfrwt beam="2">  1       -1 0.86657023E-01 0.14094966E+04</pdfrwt>
<totfact> 0.43985758E+01</totfact>
</mgrwt>
</event>
<event>
12    6  0.1611689E-007  0.1423585E+04  0.7818608E-02  0.8936921E-01
         -1   -1    0    0    0  501 -0.00000000000E+00  0.00000000000E+00  0.71992708414E+03  0.71992708414E+03  0.00000000000E+00 0.  1.
          4   -1    0    0  501    0  0.00000000000E+00 -0.00000000000E+00 -0.70374997250E+03  0.70374997250E+03  0.00000000000E+00 0. -1.
         24    2    1    2    0    0  0.91175498345E+02 -0.58691929988E+02  0.41349077838E+03  0.43482545281E+03  0.79629369375E+02 0.  0.
        254    2    1    2    0    0 -0.91175498345E+02  0.58691929988E+02 -0.39731366674E+03  0.98885160383E+03  0.89900591237E+03 0.  0.
         23    2    4    4    0    0 -0.40587037441E+03 -0.13786834769E+03 -0.41707853063E+03  0.60540082503E+03  0.93900032551E+02 0.  0.
         23    2    4    4    0    0  0.31469487607E+03  0.19656027768E+03  0.19764863895E+02  0.38345077880E+03  0.94736698990E+02 0.  0.
          4    1    3    3  502    0  0.71267337613E+01 -0.13769201623E+02  0.64759654892E+01  0.16802362228E+02  0.00000000000E+00 0. -1.
         -3    1    3    3    0  502  0.84048764584E+02 -0.44922728365E+02  0.40701481289E+03  0.41802309058E+03  0.00000000000E+00 0.  1.
         11    1    5    5    0    0 -0.95491939580E+02  0.76344012470E+01 -0.99207788660E+02  0.13791004292E+03  0.00000000000E+00 0. -1.
        -11    1    5    5    0    0 -0.31037843483E+03 -0.14550274894E+03 -0.31787074197E+03  0.46749078211E+03  0.00000000000E+00 0.  1.
          1    1    6    6  503    0  0.79262592167E+01 -0.19221573459E+01  0.16105427751E+02  0.18052841246E+02  0.00000000000E+00 0. -1.
         -1    1    6    6    0  503  0.30676861685E+03  0.19848243502E+03  0.36594361441E+01  0.36539793756E+03  0.00000000000E+00 0.  1.
<mgrwt>
<rscale>  0 0.14235851E+04</rscale>
<asrwt>0</asrwt>
<pdfrwt beam="1">  1        4 0.10826923E+00 0.14235851E+04</pdfrwt>
<pdfrwt beam="2">  1       -1 0.11075801E+00 0.14235851E+04</pdfrwt>
<totfact> 0.20590669E+00</totfact>
</mgrwt>
</event>
<event>
12    6  0.1611689E-007  0.1827832E+04  0.7818608E-02  0.8691637E-01
          2   -1    0    0  501    0  0.00000000000E+00  0.00000000000E+00  0.94531994660E+03  0.94531994660E+03  0.00000000000E+00 0. -1.
         -1   -1    0    0    0  501 -0.00000000000E+00 -0.00000000000E+00 -0.88355526836E+03  0.88355526836E+03  0.00000000000E+00 0.  1.
         24    2    1    2    0    0  0.68288925129E+03 -0.17068516737E+03 -0.44685615857E+02  0.70975876160E+03  0.79306617137E+02 0.  0.
        254    2    1    2    0    0 -0.68288925129E+03  0.17068516737E+03  0.10645029410E+03  0.11191164534E+04  0.86349222070E+03 0.  0.
         23    2    4    4    0    0  0.90133816641E+02 -0.19635139754E+03 -0.60642258809E+02  0.24236319739E+03  0.91566695256E+02 0.  0.
         23    2    4    4    0    0 -0.77302306793E+03  0.36703656490E+03  0.16709255291E+03  0.87675325598E+03  0.92172919581E+02 0.  0.
          2    1    3    3  502    0  0.69247725738E+02 -0.23673743263E+02  0.18824561926E+02  0.75564924216E+02  0.00000000000E+00 0. -1.
         -1    1    3    3    0  502  0.61364152555E+03 -0.14701142410E+03 -0.63510177783E+02  0.63419383738E+03  0.00000000000E+00 0.  1.
         11    1    5    5    0    0 -0.81701124944E+01 -0.12468582031E+02  0.14432854805E+02  0.20749062000E+02  0.00000000000E+00 0.  1.
        -11    1    5    5    0    0  0.98303929136E+02 -0.18388281551E+03 -0.75075113614E+02  0.22161413539E+03  0.00000000000E+00 0. -1.
          3    1    6    6  503    0 -0.59192356488E+03  0.28662356771E+03  0.16726085433E+03  0.67860354378E+03  0.00000000000E+00 0. -1.
         -3    1    6    6    0  503 -0.18109950304E+03  0.80412997188E+02 -0.16830142440E+00  0.19814971220E+03  0.00000000000E+00 0.  1.
<mgrwt>
<rscale>  0 0.18278320E+04</rscale>
<asrwt>0</asrwt>
<pdfrwt beam="1">  1        2 0.14543384E+00 0.18278320E+04</pdfrwt>
<pdfrwt beam="2">  1       -1 0.13593158E+00 0.18278320E+04</pdfrwt>
<totfact> 0.13301948E+01</totfact>
</mgrwt>
</event>
<event>
12    6  0.1611689E-007  0.1648441E+04  0.7818608E-02  0.8791329E-01
          2   -1    0    0  501    0  0.00000000000E+00  0.00000000000E+00  0.80771608200E+03  0.80771608200E+03  0.00000000000E+00 0. -1.
         -1   -1    0    0    0  501 -0.00000000000E+00 -0.00000000000E+00 -0.84106191520E+03  0.84106191520E+03  0.00000000000E+00 0.  1.
         24    2    1    2    0    0 -0.19102580364E+03 -0.28991037421E+03 -0.47199932312E+03  0.59124130164E+03  0.79019193926E+02 0.  0.
        254    2    1    2    0    0  0.19102580364E+03  0.28991037421E+03  0.43865348992E+03  0.10575366956E+04  0.89745645884E+03 0.  0.
         23    2    4    4    0    0  0.36522487876E+03  0.32173474912E+03  0.61690684105E+03  0.79032925577E+03  0.84521128331E+02 0.  0.
         23    2    4    4    0    0 -0.17419907512E+03 -0.31824374916E+02 -0.17825335113E+03  0.26720743979E+03  0.90925519388E+02 0.  0.
          4    1    3    3  502    0 -0.44427981021E+02 -0.65263362331E+02 -0.58128118441E+02  0.98040961408E+02  0.00000000000E+00 0. -1.
         -3    1    3    3    0  502 -0.14659782262E+03 -0.22464701188E+03 -0.41387120468E+03  0.49320034023E+03  0.00000000000E+00 0.  1.
         11    1    5    5    0    0  0.31398774238E+03  0.30469113710E+03  0.52172909463E+03  0.68090104977E+03  0.00000000000E+00 0. -1.
        -11    1    5    5    0    0  0.51237136379E+02  0.17043612021E+02  0.95177746418E+02  0.10942820600E+03  0.00000000000E+00 0.  1.
          2    1    6    6  503    0 -0.14016465491E+03 -0.54351751924E+02 -0.10506891774E+03  0.18341134343E+03  0.00000000000E+00 0. -1.
         -2    1    6    6    0  503 -0.34034420206E+02  0.22527377007E+02 -0.73184433389E+02  0.83796096354E+02  0.00000000000E+00 0.  1.
<mgrwt>
<rscale>  0 0.16484408E+04</rscale>
<asrwt>0</asrwt>
<pdfrwt beam="1">  1        2 0.12426401E+00 0.16484408E+04</pdfrwt>
<pdfrwt beam="2">  1       -1 0.12939414E+00 0.16484408E+04</pdfrwt>
<totfact> 0.19037112E+01</totfact>
</mgrwt>
</event>
<event>
12    6  0.1611689E-007  0.1112376E+04  0.7818608E-02  0.9193212E-01
         -1   -1    0    0    0  501 -0.00000000000E+00  0.00000000000E+00  0.37458985171E+03  0.37458985171E+03  0.00000000000E+00 0.  1.
          2   -1    0    0  501    0  0.00000000000E+00 -0.00000000000E+00 -0.82582407152E+03  0.82582407152E+03  0.00000000000E+00 0. -1.
         24    2    1    2    0    0 -0.85167916462E+02  0.55574661371E+02  0.73661503996E+02  0.14840892839E+03  0.79101680600E+02 0.  0.
        254    2    1    2    0    0  0.85167916462E+02 -0.55574661371E+02 -0.52489572381E+03  0.10520049948E+04  0.90601151832E+03 0.  0.
         23    2    4    4    0    0  0.27635793689E+03 -0.31980042779E+03 -0.58618365797E+01  0.43226125937E+03  0.90384801408E+02 0.  0.
         23    2    4    4    0    0 -0.19119002043E+03  0.26422576642E+03 -0.51903388723E+03  0.61974373547E+03  0.91198914538E+02 0.  0.
          4    1    3    3  502    0 -0.34312191795E-01  0.42722253694E+02  0.25577591220E+02  0.49793627209E+02  0.00000000000E+00 0. -1.
         -3    1    3    3    0  502 -0.85133604270E+02  0.12852407677E+02  0.48083912776E+02  0.98615301180E+02  0.00000000000E+00 0.  1.
         11    1    5    5    0    0  0.23632268573E+03 -0.22347016581E+03 -0.24971864972E+02  0.32620686816E+03  0.00000000000E+00 0. -1.
        -11    1    5    5    0    0  0.40035251164E+02 -0.96330261982E+02  0.19110028392E+02  0.10605439121E+03  0.00000000000E+00 0.  1.
          4    1    6    6  503    0 -0.91388877527E+02  0.20017964436E+03 -0.34007617985E+03  0.40506249525E+03  0.00000000000E+00 0. -1.
         -4    1    6    6    0  503 -0.99801142902E+02  0.64046122059E+02 -0.17895770738E+03  0.21468124023E+03  0.00000000000E+00 0.  1.
<mgrwt>
<rscale>  0 0.11123764E+04</rscale>
<asrwt>0</asrwt>
<pdfrwt beam="1">  1        2 0.12704985E+00 0.11123764E+04</pdfrwt>
<pdfrwt beam="2">  1       -1 0.57629209E-01 0.11123764E+04</pdfrwt>
<totfact> 0.11399562E+02</totfact>
</mgrwt>
</event>
<event>
12    6  0.1611689E-007  0.2127948E+04  0.7818608E-02  0.8549031E-01
          2   -1    0    0  501    0  0.00000000000E+00  0.00000000000E+00  0.93469141476E+03  0.93469141476E+03  0.00000000000E+00 0. -1.
         -1   -1    0    0    0  501 -0.00000000000E+00 -0.00000000000E+00 -0.12111381782E+04  0.12111381782E+04  0.00000000000E+00 0.  1.
         24    2    1    2    0    0  0.70545894767E+01 -0.10667154014E+03  0.75939352037E+03  0.77085652189E+03  0.78183590659E+02 0.  0.
        254    2    1    2    0    0 -0.70545894767E+01  0.10667154014E+03 -0.10358402838E+04  0.13749730711E+04  0.89786261084E+03 0.  0.
         23    2    4    4    0    0 -0.31298575078E+03 -0.36520772659E+02 -0.96430094960E+03  0.10185915810E+04  0.91425600487E+02 0.  0.
         23    2    4    4    0    0  0.30593116131E+03  0.14319231279E+03 -0.71539334246E+02  0.35638149013E+03  0.88272171501E+02 0.  0.
          2    1    3    3  502    0  0.81797007834E+01 -0.10365774860E+03  0.46660259667E+03  0.47804792601E+03  0.00000000000E+00 0. -1.
         -1    1    3    3    0  502 -0.11251113067E+01 -0.30137915388E+01  0.29279092370E+03  0.29280859587E+03  0.00000000000E+00 0.  1.
         11    1    5    5    0    0 -0.17977611691E+03 -0.55146149236E+02 -0.65156242495E+03  0.67815495545E+03  0.00000000000E+00 0. -1.
        -11    1    5    5    0    0 -0.13320963387E+03  0.18625376578E+02 -0.31273852465E+03  0.34043662554E+03  0.00000000000E+00 0.  1.
          4    1    6    6  503    0  0.15869455686E+03  0.10893352242E+03 -0.87305050983E+01  0.19268289080E+03  0.00000000000E+00 0. -1.
         -4    1    6    6    0  503  0.14723660444E+03  0.34258790370E+02 -0.62808829147E+02  0.16369859933E+03  0.00000000000E+00 0.  1.
<mgrwt>
<rscale>  0 0.21279478E+04</rscale>
<asrwt>0</asrwt>
<pdfrwt beam="1">  1        2 0.14379868E+00 0.21279478E+04</pdfrwt>
<pdfrwt beam="2">  1       -1 0.18632895E+00 0.21279478E+04</pdfrwt>
<totfact> 0.54667260E+00</totfact>
</mgrwt>
</event>
<event>
12    6  0.1611689E-007  0.1747248E+04  0.7818608E-02  0.8734867E-01
          2   -1    0    0  501    0  0.00000000000E+00  0.00000000000E+00  0.14838825363E+04  0.14838825363E+04  0.00000000000E+00 0. -1.
         -1   -1    0    0    0  501 -0.00000000000E+00 -0.00000000000E+00 -0.51433900133E+03  0.51433900133E+03  0.00000000000E+00 0.  1.
         24    2    1    2    0    0  0.35992990202E+03  0.52108889677E+03  0.35797895374E+03  0.73274420657E+03  0.87646838168E+02 0.  0.
        254    2    1    2    0    0 -0.35992990202E+03 -0.52108889677E+03  0.61156458123E+03  0.12654773311E+04  0.90903160873E+03 0.  0.
         23    2    4    4    0    0 -0.55219891335E+03 -0.58515659114E+03  0.65452722618E+03  0.10405589677E+04  0.83816461907E+02 0.  0.
         23    2    4    4    0    0  0.19226901134E+03  0.64067694368E+02 -0.42962644945E+02  0.22491836340E+03  0.87581043339E+02 0.  0.
          4    1    3    3  502    0  0.15577172606E+03  0.29311447229E+03  0.21030665308E+03  0.39295014040E+03  0.00000000000E+00 0. -1.
         -3    1    3    3    0  502  0.20415817596E+03  0.22797442448E+03  0.14767230066E+03  0.33979406618E+03  0.00000000000E+00 0.  1.
         11    1    5    5    0    0 -0.22183830420E+03 -0.29383636720E+03  0.28418347242E+03  0.46509385063E+03  0.00000000000E+00 0. -1.
        -11    1    5    5    0    0 -0.33036060915E+03 -0.29132022394E+03  0.37034375376E+03  0.57546511702E+03  0.00000000000E+00 0.  1.
          4    1    6    6  503    0  0.64606613367E+02 -0.18999582498E+02 -0.23726966008E+02  0.71400052814E+02  0.00000000000E+00 0.  1.
         -4    1    6    6    0  503  0.12766239797E+03  0.83067276867E+02 -0.19235678936E+02  0.15351831059E+03  0.00000000000E+00 0. -1.
<mgrwt>
<rscale>  0 0.17472477E+04</rscale>
<asrwt>0</asrwt>
<pdfrwt beam="1">  1        2 0.22828962E+00 0.17472477E+04</pdfrwt>
<pdfrwt beam="2">  1       -1 0.79129078E-01 0.17472477E+04</pdfrwt>
<totfact> 0.22360191E+01</totfact>
</mgrwt>
</event>
<event>
12    6  0.1611689E-007  0.1793125E+04  0.7818608E-02  0.8709964E-01
         -1   -1    0    0    0  501 -0.00000000000E+00  0.00000000000E+00  0.26629537462E+03  0.26629537462E+03  0.00000000000E+00 0.  1.
          2   -1    0    0  501    0  0.00000000000E+00 -0.00000000000E+00 -0.30185445223E+04  0.30185445223E+04  0.00000000000E+00 0. -1.
         24    2    1    2    0    0 -0.30624313885E+03 -0.58252239243E+03 -0.12319891951E+04  0.13990774947E+04  0.80642801187E+02 0.  0.
        254    2    1    2    0    0  0.30624313885E+03  0.58252239243E+03 -0.15202599525E+04  0.18857624022E+04  0.90099518125E+03 0.  0.
         23    2    4    4    0    0 -0.61819486795E+02 -0.17628202762E+03 -0.59212890215E+03  0.62806379070E+03  0.94607009331E+02 0.  0.
         23    2    4    4    0    0  0.36806262565E+03  0.75880442005E+03 -0.92813105038E+03  0.12576986115E+04  0.95521235773E+02 0.  0.
          2    1    3    3  502    0 -0.26147547275E+03 -0.45235420114E+03 -0.91874800081E+03  0.10569255580E+04  0.00000000000E+00 0. -1.
         -1    1    3    3    0  502 -0.44767666105E+02 -0.13016819129E+03 -0.31324119431E+03  0.34215193667E+03  0.00000000000E+00 0.  1.
         11    1    5    5    0    0 -0.67097504420E+01  0.10772765057E+02 -0.60048656203E+02  0.61375193113E+02  0.00000000000E+00 0. -1.
        -11    1    5    5    0    0 -0.55109736353E+02 -0.18705479268E+03 -0.53208024595E+03  0.56668859758E+03  0.00000000000E+00 0.  1.
          3    1    6    6  503    0  0.40578554447E+02  0.15923379732E+03 -0.15378017100E+03  0.22505635357E+03  0.00000000000E+00 0. -1.
         -3    1    6    6    0  503  0.32748407120E+03  0.59957062274E+03 -0.77435087938E+03  0.10326422580E+04  0.00000000000E+00 0.  1.
<mgrwt>
<rscale>  0 0.17931251E+04</rscale>
<asrwt>0</asrwt>
<pdfrwt beam="1">  1        2 0.46439146E+00 0.17931251E+04</pdfrwt>
<pdfrwt beam="2">  1       -1 0.40968520E-01 0.17931251E+04</pdfrwt>
<totfact> 0.10668704E+01</totfact>
</mgrwt>
</event>
<event>
12    6  0.1611689E-007  0.2097619E+04  0.7818608E-02  0.8562293E-01
          2   -1    0    0  501    0  0.00000000000E+00  0.00000000000E+00  0.20833738151E+04  0.20833738151E+04  0.00000000000E+00 0. -1.
         -1   -1    0    0    0  501 -0.00000000000E+00 -0.00000000000E+00 -0.52799042352E+03  0.52799042352E+03  0.00000000000E+00 0.  1.
         24    2    1    2    0    0  0.59303281816E+00  0.85269275046E+03  0.69167574169E+03  0.11009316628E+04  0.80931552303E+02 0.  0.
        254    2    1    2    0    0 -0.59303281816E+00 -0.85269275046E+03  0.86370764993E+03  0.15104325759E+04  0.89907195668E+03 0.  0.
         23    2    4    4    0    0  0.26672841095E+03 -0.37275457812E+03 -0.17509237012E+02  0.46804850230E+03  0.93127903461E+02 0.  0.
         23    2    4    4    0    0 -0.26732144377E+03 -0.47993817234E+03  0.88121688694E+03  0.10423840736E+04  0.90663947639E+02 0.  0.
          4    1    3    3  502    0 -0.26785339618E+02  0.34142994478E+03  0.24024054765E+03  0.41833883677E+03  0.00000000000E+00 0. -1.
         -3    1    3    3    0  502  0.27378372436E+02  0.51126280568E+03  0.45143519403E+03  0.68259282604E+03  0.00000000000E+00 0.  1.
         11    1    5    5    0    0  0.67044339526E+02 -0.13236080519E+03  0.31607699665E+02  0.15170159159E+03  0.00000000000E+00 0. -1.
        -11    1    5    5    0    0  0.19968407143E+03 -0.24039377293E+03 -0.49116936677E+02  0.31634691071E+03  0.00000000000E+00 0.  1.
          4    1    6    6  503    0 -0.49127376075E+02 -0.12064320228E+03  0.27965958811E+03  0.30850894080E+03  0.00000000000E+00 0. -1.
         -4    1    6    6    0  503 -0.21819406770E+03 -0.35929497006E+03  0.60155729884E+03  0.73387513275E+03  0.00000000000E+00 0.  1.
<mgrwt>
<rscale>  0 0.20976191E+04</rscale>
<asrwt>0</asrwt>
<pdfrwt beam="1">  1        2 0.32051905E+00 0.20976191E+04</pdfrwt>
<pdfrwt beam="2">  1       -1 0.81229297E-01 0.20976191E+04</pdfrwt>
<totfact> 0.95093774E+00</totfact>
</mgrwt>
</event>
<event>
12    6  0.1611689E-007  0.1404163E+04  0.7818608E-02  0.8950810E-01
          2   -1    0    0  501    0  0.00000000000E+00  0.00000000000E+00  0.60910823239E+03  0.60910823239E+03  0.00000000000E+00 0. -1.
         -1   -1    0    0    0  501 -0.00000000000E+00 -0.00000000000E+00 -0.80924642151E+03  0.80924642151E+03  0.00000000000E+00 0.  1.
         24    2    1    2    0    0  0.99865764854E+02 -0.13774582819E+03 -0.43444301226E+03  0.47318753399E+03  0.78858273188E+02 0.  0.
        254    2    1    2    0    0 -0.99865764854E+02  0.13774582819E+03  0.23430482314E+03  0.94516711991E+03  0.89971942863E+03 0.  0.
         23    2    4    4    0    0  0.19708053101E+03  0.39318549991E+03 -0.50627636477E+02  0.45156840312E+03  0.88967927253E+02 0.  0.
         23    2    4    4    0    0 -0.29694629586E+03 -0.25543967173E+03  0.28493245961E+03  0.49359871679E+03  0.95008726749E+02 0.  0.
          2    1    3    3  502    0  0.27296716799E+02 -0.46411303770E+01 -0.13203505223E+03  0.13490702671E+03  0.00000000000E+00 0. -1.
         -1    1    3    3    0  502  0.72569048055E+02 -0.13310469781E+03 -0.30240796003E+03  0.33828050728E+03  0.00000000000E+00 0.  1.
         11    1    5    5    0    0  0.17622700900E+03  0.31725938994E+03 -0.71978790622E+02  0.36998706126E+03  0.00000000000E+00 0. -1.
        -11    1    5    5    0    0  0.20853522014E+02  0.75926109977E+02  0.21351154145E+02  0.81581341862E+02  0.00000000000E+00 0.  1.
          4    1    6    6  503    0 -0.14704812245E+03 -0.18801093338E+03  0.16787433361E+03  0.29180996088E+03  0.00000000000E+00 0. -1.
         -4    1    6    6    0  503 -0.14989817341E+03 -0.67428738349E+02  0.11705812601E+03  0.20178875591E+03  0.00000000000E+00 0.  1.
<mgrwt>
<rscale>  0 0.14041633E+04</rscale>
<asrwt>0</asrwt>
<pdfrwt beam="1">  1        2 0.93708959E-01 0.14041633E+04</pdfrwt>
<pdfrwt beam="2">  1       -1 0.12449945E+00 0.14041633E+04</pdfrwt>
<totfact> 0.30615290E+01</totfact>
</mgrwt>
</event>
<event>
12    6  0.1611689E-007  0.1535606E+04  0.7818608E-02  0.8861115E-01
         -1   -1    0    0    0  501 -0.00000000000E+00  0.00000000000E+00  0.41460007815E+03  0.41460007815E+03  0.00000000000E+00 0.  1.
          2   -1    0    0  501    0  0.00000000000E+00 -0.00000000000E+00 -0.14219037179E+04  0.14219037179E+04  0.00000000000E+00 0. -1.
         24    2    1    2    0    0  0.33650512979E+03 -0.28349722634E+03 -0.65626911199E+03  0.79413644197E+03  0.79731809209E+02 0.  0.
        254    2    1    2    0    0 -0.33650512979E+03  0.28349722634E+03 -0.35103452774E+03  0.10423673541E+04  0.87732438780E+03 0.  0.
         23    2    4    4    0    0 -0.19734820810E+03 -0.47208252428E+02  0.25180167609E+03  0.33479889429E+03  0.86667647932E+02 0.  0.
         23    2    4    4    0    0 -0.13915692169E+03  0.33070547877E+03 -0.60283620383E+03  0.70756845977E+03  0.92254398608E+02 0.  0.
          4    1    3    3  502    0  0.17044135646E+03 -0.15710369642E+03 -0.27655810721E+03  0.36085483797E+03  0.00000000000E+00 0. -1.
         -3    1    3    3    0  502  0.16606377332E+03 -0.12639352992E+03 -0.37971100478E+03  0.43328160400E+03  0.00000000000E+00 0.  1.
         11    1    5    5    0    0 -0.79489351523E+02 -0.44875935487E+02  0.58597001199E+02  0.10847126412E+03  0.00000000000E+00 0. -1.
        -11    1    5    5    0    0 -0.11785885658E+03 -0.23323169413E+01  0.19320467489E+03  0.22632763017E+03  0.00000000000E+00 0.  1.
          3    1    6    6  503    0 -0.56501763116E+02  0.19604933638E+03 -0.26354535336E+03  0.33329258139E+03  0.00000000000E+00 0. -1.
         -3    1    6    6    0  503 -0.82655158570E+02  0.13465614239E+03 -0.33929085047E+03  0.37427587838E+03  0.00000000000E+00 0.  1.
<mgrwt>
<rscale>  0 0.15356059E+04</rscale>
<asrwt>0</asrwt>
<pdfrwt beam="1">  1        2 0.21875442E+00 0.15356059E+04</pdfrwt>
<pdfrwt beam="2">  1       -1 0.63784626E-01 0.15356059E+04</pdfrwt>
<totfact> 0.38485951E+01</totfact>
</mgrwt>
</event>
<event>
12    6  0.1611689E-007  0.3449691E+04  0.7818608E-02  0.8125817E-01
          2   -1    0    0  501    0  0.00000000000E+00  0.00000000000E+00  0.35539420387E+04  0.35539420387E+04  0.00000000000E+00 0. -1.
         -3   -1    0    0    0  501 -0.00000000000E+00 -0.00000000000E+00 -0.83712441998E+03  0.83712441998E+03  0.00000000000E+00 0.  1.
         24    2    1    2    0    0  0.21371880670E+03 -0.13095685132E+04  0.12059434975E+03  0.13347357321E+04  0.79567947983E+02 0.  0.
        254    2    1    2    0    0 -0.21371880670E+03  0.13095685132E+04  0.25962232690E+04  0.30563307266E+04  0.91658978201E+03 0.  0.
         23    2    4    4    0    0 -0.42855946607E+03  0.20601575933E+03  0.79829285446E+03  0.93370667255E+03  0.91820258311E+02 0.  0.
         23    2    4    4    0    0  0.21484065937E+03  0.11035527539E+04  0.17979304145E+04  0.21226240540E+04  0.94836225133E+02 0.  0.
          4    1    3    3  502    0  0.28004089967E+02 -0.13208881085E+03  0.35790029558E+02  0.13968754140E+03  0.00000000000E+00 0. -1.
         -3    1    3    3    0  502  0.18571471673E+03 -0.11774797024E+04  0.84804320194E+02  0.11950481907E+04  0.00000000000E+00 0.  1.
         11    1    5    5    0    0 -0.20619898964E+03  0.14365277567E+03  0.37304116028E+03  0.44979311972E+03  0.00000000000E+00 0. -1.
        -11    1    5    5    0    0 -0.22236047643E+03  0.62362983657E+02  0.42525169418E+03  0.48391355283E+03  0.00000000000E+00 0.  1.
          2    1    6    6  503    0  0.14010362858E+03  0.79886428111E+03  0.12191718761E+04  0.14643063989E+04  0.00000000000E+00 0.  1.
         -2    1    6    6    0  503  0.74737030798E+02  0.30468847278E+03  0.57875853845E+03  0.65831765512E+03  0.00000000000E+00 0. -1.
<mgrwt>
<rscale>  0 0.34496908E+04</rscale>
<asrwt>0</asrwt>
<pdfrwt beam="1">  1        2 0.54676031E+00 0.34496908E+04</pdfrwt>
<pdfrwt beam="2">  1       -3 0.12878837E+00 0.34496908E+04</pdfrwt>
<totfact> 0.18616761E-01</totfact>
</mgrwt>
</event>
<event>
12    6  0.1611689E-007  0.2016461E+04  0.7818608E-02  0.8598963E-01
         -1   -1    0    0    0  501 -0.00000000000E+00  0.00000000000E+00  0.55304928743E+03  0.55304928743E+03  0.00000000000E+00 0.  1.
          2   -1    0    0  501    0  0.00000000000E+00 -0.00000000000E+00 -0.18380443588E+04  0.18380443588E+04  0.00000000000E+00 0. -1.
         24    2    1    2    0    0  0.18639079584E+03  0.78396535066E+03 -0.44035788120E+03  0.92169760445E+03  0.79172032439E+02 0.  0.
        254    2    1    2    0    0 -0.18639079584E+03 -0.78396535066E+03 -0.84463719021E+03  0.14693960418E+04  0.89239539712E+03 0.  0.
         23    2    4    4    0    0 -0.14730618816E+03  0.16781224827E+03 -0.12027453136E+03  0.26930797569E+03  0.90558042930E+02 0.  0.
         23    2    4    4    0    0 -0.39084607679E+02 -0.95177759892E+03 -0.72436265885E+03  0.12000880661E+04  0.90010557883E+02 0.  0.
          4    1    3    3  502    0  0.31816160217E+02  0.10370240723E+03 -0.30828135892E+02  0.11276892869E+03  0.00000000000E+00 0. -1.
         -3    1    3    3    0  502  0.15457463562E+03  0.68026294343E+03 -0.40952974531E+03  0.80892867576E+03  0.00000000000E+00 0.  1.
         11    1    5    5    0    0 -0.12093805009E+03  0.12918755505E+03 -0.48231964186E+02  0.18341689865E+03  0.00000000000E+00 0.  1.
        -11    1    5    5    0    0 -0.26368138071E+02  0.38624693215E+02 -0.72042567173E+02  0.85891077046E+02  0.00000000000E+00 0. -1.
          2    1    6    6  503    0 -0.62505545412E+02 -0.55546564572E+03 -0.39854158184E+03  0.68650157993E+03  0.00000000000E+00 0. -1.
         -2    1    6    6    0  503  0.23420937733E+02 -0.39631195320E+03 -0.32582107701E+03  0.51358648619E+03  0.00000000000E+00 0.  1.
<mgrwt>
<rscale>  0 0.20164614E+04</rscale>
<asrwt>0</asrwt>
<pdfrwt beam="1">  1        2 0.28277606E+00 0.20164614E+04</pdfrwt>
<pdfrwt beam="2">  1       -1 0.85084505E-01 0.20164614E+04</pdfrwt>
<totfact> 0.11862676E+01</totfact>
</mgrwt>
</event>
<event>
12    6  0.1611689E-007  0.2085848E+04  0.7818608E-02  0.8567503E-01
          2   -1    0    0  501    0  0.00000000000E+00  0.00000000000E+00  0.26574319806E+04  0.26574319806E+04  0.00000000000E+00 0. -1.
         -1   -1    0    0    0  501 -0.00000000000E+00 -0.00000000000E+00 -0.40930150324E+03  0.40930150324E+03  0.00000000000E+00 0.  1.
         24    2    1    2    0    0  0.43041732590E+03  0.51161916341E+03  0.16730340862E+04  0.18035826153E+04  0.82788609913E+02 0.  0.
        254    2    1    2    0    0 -0.43041732590E+03 -0.51161916341E+03  0.57509639115E+03  0.12631508685E+04  0.90432351217E+03 0.  0.
         23    2    4    4    0    0 -0.27989401980E+01 -0.63767823997E+03  0.46412651160E+03  0.79398720608E+03  0.91437918021E+02 0.  0.
         23    2    4    4    0    0 -0.42761838570E+03  0.12605907655E+03  0.11096987955E+03  0.46916366242E+03  0.95141228691E+02 0.  0.
          2    1    3    3  502    0  0.23791593881E+03  0.32612355091E+03  0.92641601328E+03  0.10105479672E+04  0.00000000000E+00 0. -1.
         -1    1    3    3    0  502  0.19250138708E+03  0.18549561251E+03  0.74661807290E+03  0.79303464809E+03  0.00000000000E+00 0.  1.
         11    1    5    5    0    0 -0.21506062670E+02 -0.50637159028E+03  0.32671294349E+03  0.60300584211E+03  0.00000000000E+00 0. -1.
        -11    1    5    5    0    0  0.18707122472E+02 -0.13130664969E+03  0.13741356811E+03  0.19098136397E+03  0.00000000000E+00 0.  1.
          3    1    6    6  503    0 -0.22721669622E+03  0.78924772969E+02  0.10698932470E+03  0.26325512802E+03  0.00000000000E+00 0. -1.
         -3    1    6    6    0  503 -0.20040168948E+03  0.47134303584E+02  0.39805548462E+01  0.20590853440E+03  0.00000000000E+00 0.  1.
<mgrwt>
<rscale>  0 0.20858484E+04</rscale>
<asrwt>0</asrwt>
<pdfrwt beam="1">  1        2 0.40883568E+00 0.20858484E+04</pdfrwt>
<pdfrwt beam="2">  1       -1 0.62969464E-01 0.20858484E+04</pdfrwt>
<totfact> 0.75657852E+00</totfact>
</mgrwt>
</event>
<event>
12    6  0.1611689E-007  0.1617698E+04  0.7818608E-02  0.8809748E-01
          2   -1    0    0  501    0  0.00000000000E+00  0.00000000000E+00  0.17353250638E+04  0.17353250638E+04  0.00000000000E+00 0. -1.
         -1   -1    0    0    0  501 -0.00000000000E+00 -0.00000000000E+00 -0.37701125991E+03  0.37701125991E+03  0.00000000000E+00 0.  1.
         24    2    1    2    0    0  0.46910508013E+03 -0.28746199564E+03  0.54245017413E+03  0.77806590998E+03  0.91871615425E+02 0.  0.
        254    2    1    2    0    0 -0.46910508013E+03  0.28746199564E+03  0.81586362975E+03  0.13342704137E+04  0.90108273727E+03 0.  0.
         23    2    4    4    0    0 -0.94771136359E+02  0.30404173733E+03  0.88272105929E+03  0.94278095268E+03  0.90644966175E+02 0.  0.
         23    2    4    4    0    0 -0.37433394377E+03 -0.16579741687E+02 -0.66857429536E+02  0.39148946104E+03  0.91614916487E+02 0.  0.
          2    1    3    3  502    0  0.34406769755E+03 -0.25455253424E+03  0.43029414339E+03  0.60690413001E+03  0.00000000000E+00 0. -1.
         -1    1    3    3    0  502  0.12503738258E+03 -0.32909461400E+02  0.11215603074E+03  0.17116177997E+03  0.00000000000E+00 0.  1.
         11    1    5    5    0    0 -0.10070745504E+03  0.30789110307E+03  0.86696899571E+03  0.92551291854E+03  0.00000000000E+00 0. -1.
        -11    1    5    5    0    0  0.59363186820E+01 -0.38493657441E+01  0.15752063577E+02  0.17268034140E+02  0.00000000000E+00 0.  1.
          1    1    6    6  503    0 -0.19189393248E+03 -0.29239815614E+02 -0.75819903846E+02  0.20839123292E+03  0.00000000000E+00 0. -1.
         -1    1    6    6    0  503 -0.18244001130E+03  0.12660073927E+02  0.89624743095E+01  0.18309822812E+03  0.00000000000E+00 0.  1.
<mgrwt>
<rscale>  0 0.16176985E+04</rscale>
<asrwt>0</asrwt>
<pdfrwt beam="1">  1        2 0.26697308E+00 0.16176985E+04</pdfrwt>
<pdfrwt beam="2">  1       -1 0.58001733E-01 0.16176985E+04</pdfrwt>
<totfact> 0.30791041E+01</totfact>
</mgrwt>
</event>
<event>
12    6  0.1611689E-007  0.1511646E+04  0.7818608E-02  0.8876745E-01
          2   -1    0    0  501    0  0.00000000000E+00  0.00000000000E+00  0.95415454911E+03  0.95415454911E+03  0.00000000000E+00 0. -1.
         -1   -1    0    0    0  501 -0.00000000000E+00 -0.00000000000E+00 -0.59871696231E+03  0.59871696231E+03  0.00000000000E+00 0.  1.
         24    2    1    2    0    0  0.28306900256E+03 -0.39190648077E+03  0.96656026094E+02  0.49985189194E+03  0.82406168534E+02 0.  0.
        254    2    1    2    0    0 -0.28306900256E+03  0.39190648077E+03  0.25878156071E+03  0.10530196195E+04  0.89897923945E+03 0.  0.
         23    2    4    4    0    0 -0.86564761990E+02  0.58885235606E+03  0.40518035808E+03  0.72563502857E+03  0.90191556512E+02 0.  0.
         23    2    4    4    0    0 -0.19650424057E+03 -0.19694587529E+03 -0.14639879737E+03  0.32738459091E+03  0.91359006874E+02 0.  0.
          2    1    3    3  502    0  0.14128094840E+01 -0.26347708048E+02  0.17425175771E+02  0.31620159719E+02  0.00000000000E+00 0. -1.
         -1    1    3    3    0  502  0.28165619308E+03 -0.36555877272E+03  0.79230850322E+02  0.46823173222E+03  0.00000000000E+00 0.  1.
         11    1    5    5    0    0 -0.24717765456E+02  0.23896535584E+03  0.11238648173E+03  0.26522844964E+03  0.00000000000E+00 0. -1.
        -11    1    5    5    0    0 -0.61846996534E+02  0.34988700022E+03  0.29279387635E+03  0.46040657894E+03  0.00000000000E+00 0.  1.
          4    1    6    6  503    0 -0.10392997434E+03 -0.12084489754E+03 -0.33772775902E+02  0.16292798784E+03  0.00000000000E+00 0. -1.
         -4    1    6    6    0  503 -0.92574266232E+02 -0.76100977745E+02 -0.11262602147E+03  0.16445660307E+03  0.00000000000E+00 0.  1.
<mgrwt>
<rscale>  0 0.15116461E+04</rscale>
<asrwt>0</asrwt>
<pdfrwt beam="1">  1        2 0.14679301E+00 0.15116461E+04</pdfrwt>
<pdfrwt beam="2">  1       -1 0.92110302E-01 0.15116461E+04</pdfrwt>
<totfact> 0.34109249E+01</totfact>
</mgrwt>
</event>
<event>
12    6  0.1611689E-007  0.9892706E+03  0.7818608E-02  0.9320391E-01
         -1   -1    0    0    0  501 -0.00000000000E+00  0.00000000000E+00  0.23767614056E+03  0.23767614056E+03  0.00000000000E+00 0.  1.
          2   -1    0    0  501    0  0.00000000000E+00 -0.00000000000E+00 -0.10294011560E+04  0.10294011560E+04  0.00000000000E+00 0. -1.
         24    2    1    2    0    0  0.14049800568E+02  0.22643420847E+01 -0.49780752656E+02  0.95137722272E+02  0.79815654623E+02 0.  0.
        254    2    1    2    0    0 -0.14049800568E+02 -0.22643420847E+01 -0.74194426278E+03  0.11719395743E+04  0.90706039080E+03 0.  0.
         23    2    4    4    0    0  0.41588081170E+03  0.12674372156E+03 -0.31114672099E+03  0.54282349064E+03  0.93937423375E+02 0.  0.
         23    2    4    4    0    0 -0.42993061227E+03 -0.12900806364E+03 -0.43079754178E+03  0.62911608364E+03  0.93365479871E+02 0.  0.
          2    1    3    3  502    0  0.48325488024E+01 -0.54742238646E+01 -0.70661029345E+02  0.71037326265E+02  0.00000000000E+00 0. -1.
         -1    1    3    3    0  502  0.92172517660E+01  0.77385659493E+01  0.20880276689E+02  0.24100396006E+02  0.00000000000E+00 0.  1.
         11    1    5    5    0    0  0.24138477636E+03  0.12038113297E+03 -0.20071368207E+03  0.33622047767E+03  0.00000000000E+00 0.  1.
        -11    1    5    5    0    0  0.17449603534E+03  0.63625885882E+01 -0.11043303893E+03  0.20660301298E+03  0.00000000000E+00 0. -1.
          4    1    6    6  503    0 -0.12238493868E+02 -0.23999510462E+02 -0.35116044289E+02  0.44259392236E+02  0.00000000000E+00 0.  1.
         -4    1    6    6    0  503 -0.41769211841E+03 -0.10500855318E+03 -0.39568149749E+03  0.58485669140E+03  0.00000000000E+00 0. -1.
<mgrwt>
<rscale>  0 0.98927063E+03</rscale>
<asrwt>0</asrwt>
<pdfrwt beam="1">  1        2 0.15836941E+00 0.98927063E+03</pdfrwt>
<pdfrwt beam="2">  1       -1 0.36565560E-01 0.98927063E+03</pdfrwt>
<totfact> 0.19677394E+02</totfact>
</mgrwt>
</event>
<event>
12    6  0.1611689E-007  0.1780415E+04  0.7818608E-02  0.8716784E-01
         -1   -1    0    0    0  501 -0.00000000000E+00  0.00000000000E+00  0.38912866342E+03  0.38912866342E+03  0.00000000000E+00 0.  1.
          2   -1    0    0  501    0  0.00000000000E+00 -0.00000000000E+00 -0.20365227305E+04  0.20365227305E+04  0.00000000000E+00 0. -1.
         24    2    1    2    0    0 -0.25581064704E+02 -0.11892975015E+02  0.28033210722E+03  0.29264141025E+03  0.79101649358E+02 0.  0.
        254    2    1    2    0    0  0.25581064704E+02  0.11892975015E+02 -0.19277261743E+04  0.21330099836E+04  0.91258290233E+03 0.  0.
         23    2    4    4    0    0 -0.31944553604E+03  0.10354643330E+03 -0.28310566637E+03  0.44773378055E+03  0.86887315334E+02 0.  0.
         23    2    4    4    0    0  0.34502660074E+03 -0.91653458288E+02 -0.16446205079E+04  0.16852762031E+04  0.89081726963E+02 0.  0.
          2    1    3    3  502    0 -0.26704118082E+02  0.11345210348E+02  0.31895512565E+02  0.43117832067E+02  0.00000000000E+00 0. -1.
         -1    1    3    3    0  502  0.11230533772E+01 -0.23238185362E+02  0.24843659465E+03  0.24952357819E+03  0.00000000000E+00 0.  1.
         11    1    5    5    0    0 -0.19182541861E+03  0.61835401305E+02 -0.11312446672E+03  0.23112280945E+03  0.00000000000E+00 0.  1.
        -11    1    5    5    0    0 -0.12762011743E+03  0.41711031999E+02 -0.16998119965E+03  0.21661097109E+03  0.00000000000E+00 0. -1.
          3    1    6    6  503    0  0.19688552037E+03 -0.17408253860E+02 -0.76077567690E+03  0.78603217873E+03  0.00000000000E+00 0. -1.
         -3    1    6    6    0  503  0.14814108037E+03 -0.74245204429E+02 -0.88384483100E+03  0.89924402437E+03  0.00000000000E+00 0.  1.
<mgrwt>
<rscale>  0 0.17804150E+04</rscale>
<asrwt>0</asrwt>
<pdfrwt beam="1">  1        2 0.31331119E+00 0.17804150E+04</pdfrwt>
<pdfrwt beam="2">  1       -1 0.59865948E-01 0.17804150E+04</pdfrwt>
<totfact> 0.19423362E+01</totfact>
</mgrwt>
</event>
<event>
12    6  0.1611689E-007  0.1891237E+04  0.7818608E-02  0.8659230E-01
          2   -1    0    0  501    0  0.00000000000E+00  0.00000000000E+00  0.91242280811E+03  0.91242280811E+03  0.00000000000E+00 0. -1.
         -1   -1    0    0    0  501 -0.00000000000E+00 -0.00000000000E+00 -0.98002233889E+03  0.98002233889E+03  0.00000000000E+00 0.  1.
         24    2    1    2    0    0  0.51617607754E+03  0.44313072317E+03 -0.28828121839E+03  0.74306084409E+03  0.78935266495E+02 0.  0.
        254    2    1    2    0    0 -0.51617607754E+03 -0.44313072317E+03  0.22068168761E+03  0.11493843029E+04  0.89976735198E+03 0.  0.
         23    2    4    4    0    0 -0.25101423879E+03 -0.63358842170E+03 -0.84656490753E+02  0.69309655111E+03  0.93667878957E+02 0.  0.
         23    2    4    4    0    0 -0.26516183875E+03  0.19045769853E+03  0.30533817836E+03  0.45628775180E+03  0.91554211362E+02 0.  0.
          4    1    3    3  502    0  0.17769364048E+03  0.19293162870E+03 -0.85751738652E+02  0.27595471350E+03  0.00000000000E+00 0. -1.
         -3    1    3    3    0  502  0.33848243706E+03  0.25019909448E+03 -0.20252947974E+03  0.46710613059E+03  0.00000000000E+00 0.  1.
         11    1    5    5    0    0 -0.19605559830E+03 -0.37658418933E+03 -0.39058927901E+02  0.42635554310E+03  0.00000000000E+00 0.  1.
        -11    1    5    5    0    0 -0.54958640491E+02 -0.25700423237E+03 -0.45597562851E+02  0.26674100802E+03  0.00000000000E+00 0. -1.
          2    1    6    6  503    0 -0.59143509059E+02  0.84940744507E+02  0.12849195526E+03  0.16499414325E+03  0.00000000000E+00 0. -1.
         -2    1    6    6    0  503 -0.20601832969E+03  0.10551695402E+03  0.17684622310E+03  0.29129360855E+03  0.00000000000E+00 0.  1.
<mgrwt>
<rscale>  0 0.18912374E+04</rscale>
<asrwt>0</asrwt>
<pdfrwt beam="1">  1        2 0.14037274E+00 0.18912374E+04</pdfrwt>
<pdfrwt beam="2">  1       -1 0.15077267E+00 0.18912374E+04</pdfrwt>
<totfact> 0.10583743E+01</totfact>
</mgrwt>
</event>
<event>
12    6  0.1611689E-007  0.1613119E+04  0.7818608E-02  0.8812529E-01
         -1   -1    0    0    0  501 -0.00000000000E+00  0.00000000000E+00  0.15126020466E+04  0.15126020466E+04  0.00000000000E+00 0.  1.
          2   -1    0    0  501    0  0.00000000000E+00 -0.00000000000E+00 -0.43007909671E+03  0.43007909671E+03  0.00000000000E+00 0. -1.
         24    2    1    2    0    0  0.26369480323E+03  0.22841042501E+03  0.10322237263E+04  0.10924614207E+04  0.79245586061E+02 0.  0.
        254    2    1    2    0    0 -0.26369480323E+03 -0.22841042501E+03  0.50299223584E+02  0.85021972267E+03  0.77371654591E+03 0.  0.
         23    2    4    4    0    0 -0.70062498017E+02  0.53910731794E+02 -0.31691616101E+03  0.34012092712E+03  0.86204821925E+02 0.  0.
         23    2    4    4    0    0 -0.19363230522E+03 -0.28232115681E+03  0.36721538460E+03  0.51009879555E+03  0.90304691658E+02 0.  0.
          2    1    3    3  502    0  0.60029963237E+02  0.74047068791E+02  0.19411404097E+03  0.21625638900E+03  0.00000000000E+00 0. -1.
         -1    1    3    3    0  502  0.20366484000E+03  0.15436335622E+03  0.83810968538E+03  0.87620503167E+03  0.00000000000E+00 0.  1.
         11    1    5    5    0    0 -0.16131286210E+02  0.53317897537E+01 -0.21863648378E+01  0.17129698421E+02  0.00000000000E+00 0. -1.
        -11    1    5    5    0    0 -0.53931211807E+02  0.48578942040E+02 -0.31472979617E+03  0.32299122870E+03  0.00000000000E+00 0.  1.
          2    1    6    6  503    0 -0.18461348756E+03 -0.25745331147E+03  0.36535750705E+03  0.48358086742E+03  0.00000000000E+00 0.  1.
         -2    1    6    6    0  503 -0.90188176561E+01 -0.24867845338E+02  0.18578775499E+01  0.26517928136E+02  0.00000000000E+00 0. -1.
<mgrwt>
<rscale>  0 0.16131194E+04</rscale>
<asrwt>0</asrwt>
<pdfrwt beam="1">  1        2 0.66166016E-01 0.16131194E+04</pdfrwt>
<pdfrwt beam="2">  1       -1 0.23270800E+00 0.16131194E+04</pdfrwt>
<totfact> 0.72674232E+00</totfact>
</mgrwt>
</event>
<event>
12    6  0.1611689E-007  0.2360840E+04  0.7818608E-02  0.8454312E-01
         -1   -1    0    0    0  501 -0.00000000000E+00  0.00000000000E+00  0.51007557223E+03  0.51007557223E+03  0.00000000000E+00 0.  1.
          2   -1    0    0  501    0  0.00000000000E+00 -0.00000000000E+00 -0.27317345994E+04  0.27317345994E+04  0.00000000000E+00 0. -1.
         24    2    1    2    0    0  0.54383299747E+03 -0.27977261988E+03 -0.20455324811E+04  0.21364671273E+04  0.79130314941E+02 0.  0.
        254    2    1    2    0    0 -0.54383299747E+03  0.27977261988E+03 -0.17612654600E+03  0.11053430443E+04  0.90373427364E+03 0.  0.
         23    2    4    4    0    0  0.22874528453E+03  0.35126665300E+02 -0.14330388998E+03  0.28916905475E+03  0.97593286329E+02 0.  0.
         23    2    4    4    0    0 -0.77257828200E+03  0.24464595458E+03 -0.32822656022E+02  0.81617398952E+03  0.91289701001E+02 0.  0.
          2    1    3    3  502    0  0.40634758512E+03 -0.19876181985E+03 -0.13882208265E+04  0.14600622193E+04  0.00000000000E+00 0. -1.
         -1    1    3    3    0  502  0.13748541236E+03 -0.81010800035E+02 -0.65731165461E+03  0.67640490804E+03  0.00000000000E+00 0.  1.
         11    1    5    5    0    0  0.10896663453E+03 -0.15944891973E+02 -0.10802125811E+03  0.15426133419E+03  0.00000000000E+00 0.  1.
        -11    1    5    5    0    0  0.11977865000E+03  0.51071557273E+02 -0.35282631865E+02  0.13490772057E+03  0.00000000000E+00 0. -1.
          4    1    6    6  503    0 -0.32544550371E+03  0.72640012977E+02 -0.47809882339E+02  0.33686367008E+03  0.00000000000E+00 0. -1.
         -4    1    6    6    0  503 -0.44713277829E+03  0.17200594161E+03  0.14987226317E+02  0.47931031944E+03  0.00000000000E+00 0.  1.
<mgrwt>
<rscale>  0 0.23608398E+04</rscale>
<asrwt>0</asrwt>
<pdfrwt beam="1">  1        2 0.42026686E+00 0.23608398E+04</pdfrwt>
<pdfrwt beam="2">  1       -1 0.78473166E-01 0.23608398E+04</pdfrwt>
<totfact> 0.42401682E+00</totfact>
</mgrwt>
</event>
<event>
12    6  0.1611689E-007  0.2118852E+04  0.7818608E-02  0.8552984E-01
         -1   -1    0    0    0  501 -0.00000000000E+00  0.00000000000E+00  0.35492986860E+03  0.35492986860E+03  0.00000000000E+00 0.  1.
          2   -1    0    0  501    0  0.00000000000E+00 -0.00000000000E+00 -0.31622688098E+04  0.31622688098E+04  0.00000000000E+00 0. -1.
         24    2    1    2    0    0  0.49995388693E+03  0.21739402600E+03 -0.22496638510E+04  0.23160592776E+04  0.77000541736E+02 0.  0.
        254    2    1    2    0    0 -0.49995388693E+03 -0.21739402600E+03 -0.55767509021E+03  0.12011394008E+04  0.91352082749E+03 0.  0.
         23    2    4    4    0    0 -0.19379418714E+03  0.32100554939E+03 -0.38241086422E+02  0.38726657174E+03  0.88950925757E+02 0.  0.
         23    2    4    4    0    0 -0.30615969979E+03 -0.53839957538E+03 -0.51943400379E+03  0.81387282903E+03  0.94707090527E+02 0.  0.
          4    1    3    3  502    0  0.41318764086E+03  0.15199750008E+03 -0.17281839384E+04  0.17833807758E+04  0.00000000000E+00 0. -1.
         -3    1    3    3    0  502  0.86766246069E+02  0.65396525920E+02 -0.52147991264E+03  0.53267850186E+03  0.00000000000E+00 0.  1.
         11    1    5    5    0    0 -0.14817398504E+03  0.16403049408E+03 -0.92047214290E+01  0.22123801601E+03  0.00000000000E+00 0. -1.
        -11    1    5    5    0    0 -0.45620202103E+02  0.15697505530E+03 -0.29036364993E+02  0.16602855573E+03  0.00000000000E+00 0.  1.
          1    1    6    6  503    0 -0.29817799083E+03 -0.47619272481E+03 -0.48558210770E+03  0.74260326466E+03  0.00000000000E+00 0. -1.
         -1    1    6    6    0  503 -0.79817089633E+01 -0.62206850572E+02 -0.33851896096E+02  0.71269564369E+02  0.00000000000E+00 0.  1.
<mgrwt>
<rscale>  0 0.21188522E+04</rscale>
<asrwt>0</asrwt>
<pdfrwt beam="1">  1        2 0.48650291E+00 0.21188522E+04</pdfrwt>
<pdfrwt beam="2">  1       -1 0.54604593E-01 0.21188522E+04</pdfrwt>
<totfact> 0.48799279E+00</totfact>
</mgrwt>
</event>
<event>
12    6  0.1611689E-007  0.2536926E+04  0.7818608E-02  0.8389947E-01
         -1   -1    0    0    0  501 -0.00000000000E+00  0.00000000000E+00  0.11247193911E+04  0.11247193911E+04  0.00000000000E+00 0.  1.
          2   -1    0    0  501    0  0.00000000000E+00 -0.00000000000E+00 -0.14305776745E+04  0.14305776745E+04  0.00000000000E+00 0. -1.
         24    2    1    2    0    0 -0.99671382552E+03  0.28027263682E+03 -0.53017328101E+03  0.11659050456E+04  0.79118054688E+02 0.  0.
        254    2    1    2    0    0  0.99671382552E+03 -0.28027263682E+03  0.22431499756E+03  0.13893920200E+04  0.89894480707E+03 0.  0.
         23    2    4    4    0    0  0.22742033203E+03 -0.50144196657E+03  0.18668873026E+02  0.55786963277E+03  0.87783524006E+02 0.  0.
         23    2    4    4    0    0  0.76929349349E+03  0.22116932975E+03  0.20564612454E+03  0.83152238722E+03  0.91710415751E+02 0.  0.
          4    1    3    3  502    0 -0.81463989256E+03  0.22175204618E+03 -0.46494974694E+03  0.96384147644E+03  0.00000000000E+00 0. -1.
         -3    1    3    3    0  502 -0.18207393296E+03  0.58520590640E+02 -0.65223534073E+02  0.20206356918E+03  0.00000000000E+00 0.  1.
         11    1    5    5    0    0  0.22084911211E+03 -0.48416587538E+03  0.34859901233E+02  0.53329741976E+03  0.00000000000E+00 0.  1.
        -11    1    5    5    0    0  0.65712199197E+01 -0.17276091191E+02 -0.16191028207E+02  0.24572213015E+02  0.00000000000E+00 0. -1.
          3    1    6    6  503    0  0.39845591161E+03  0.81012669213E+02  0.13776838940E+03  0.42931374912E+03  0.00000000000E+00 0. -1.
         -3    1    6    6    0  503  0.37083758189E+03  0.14015666054E+03  0.67877735134E+02  0.40220863810E+03  0.00000000000E+00 0.  1.
<mgrwt>
<rscale>  0 0.25369261E+04</rscale>
<asrwt>0</asrwt>
<pdfrwt beam="1">  1        2 0.22008887E+00 0.25369261E+04</pdfrwt>
<pdfrwt beam="2">  1       -1 0.17303375E+00 0.25369261E+04</pdfrwt>
<totfact> 0.32915335E+00</totfact>
</mgrwt>
</event>
<event>
12    6  0.1611689E-007  0.1337620E+04  0.7818608E-02  0.9000253E-01
         -3   -1    0    0    0  501 -0.00000000000E+00  0.00000000000E+00  0.11238598830E+04  0.11238598830E+04  0.00000000000E+00 0.  1.
          4   -1    0    0  501    0  0.00000000000E+00 -0.00000000000E+00 -0.39800965755E+03  0.39800965755E+03  0.00000000000E+00 0. -1.
         24    2    1    2    0    0  0.28604611066E+03 -0.16928687969E+03  0.35508595632E+03  0.49285591166E+03  0.79627182667E+02 0.  0.
        254    2    1    2    0    0 -0.28604611066E+03  0.16928687969E+03  0.37076426914E+03  0.10290136289E+04  0.90051234314E+03 0.  0.
         23    2    4    4    0    0 -0.28526869718E+03  0.46309701083E+02 -0.24709982861E+03  0.39215224819E+03  0.95928319387E+02 0.  0.
         23    2    4    4    0    0 -0.77741348342E+00  0.12297717861E+03  0.61786409774E+03  0.63686138072E+03  0.93340152884E+02 0.  0.
          4    1    3    3  502    0  0.23419237354E+03 -0.13648969209E+03  0.23823314138E+03  0.36087467842E+03  0.00000000000E+00 0. -1.
         -3    1    3    3    0  502  0.51853737120E+02 -0.32797187597E+02  0.11685281494E+03  0.13198123324E+03  0.00000000000E+00 0.  1.
         11    1    5    5    0    0 -0.39985795442E+02  0.73178062327E+01  0.15925738785E+01  0.40681081804E+02  0.00000000000E+00 0.  1.
        -11    1    5    5    0    0 -0.24528290173E+03  0.38991894851E+02 -0.24869240248E+03  0.35147116639E+03  0.00000000000E+00 0. -1.
          4    1    6    6  503    0  0.26403327946E+02  0.12166183716E+03  0.45430208593E+03  0.47105108389E+03  0.00000000000E+00 0. -1.
         -4    1    6    6    0  503 -0.27180741429E+02  0.13153414450E+01  0.16356201181E+03  0.16581029683E+03  0.00000000000E+00 0.  1.
<mgrwt>
<rscale>  0 0.13376204E+04</rscale>
<asrwt>0</asrwt>
<pdfrwt beam="1">  1        4 0.61232256E-01 0.13376204E+04</pdfrwt>
<pdfrwt beam="2">  1       -3 0.17290152E+00 0.13376204E+04</pdfrwt>
<totfact> 0.12403472E+00</totfact>
</mgrwt>
</event>
<event>
12    6  0.1611689E-007  0.1700315E+04  0.7818608E-02  0.8761185E-01
          2   -1    0    0  501    0  0.00000000000E+00  0.00000000000E+00  0.20614541979E+04  0.20614541979E+04  0.00000000000E+00 0. -1.
         -1   -1    0    0    0  501 -0.00000000000E+00 -0.00000000000E+00 -0.35061078572E+03  0.35061078572E+03  0.00000000000E+00 0.  1.
         24    2    1    2    0    0  0.52104907268E+03  0.26998456054E+03  0.82258022850E+03  0.10137038201E+04  0.81076528398E+02 0.  0.
        254    2    1    2    0    0 -0.52104907268E+03 -0.26998456054E+03  0.88826318369E+03  0.13983611635E+04  0.90665244782E+03 0.  0.
         23    2    4    4    0    0  0.21372149728E+03 -0.29093837408E+02  0.44354690193E+03  0.50162360309E+03  0.91482540329E+02 0.  0.
         23    2    4    4    0    0 -0.73477056996E+03 -0.24089072314E+03  0.44471628176E+03  0.89673756046E+03  0.91921434395E+02 0.  0.
          2    1    3    3  502    0  0.24325518352E+03  0.95483780235E+02  0.41613420259E+03  0.49138367002E+03  0.00000000000E+00 0. -1.
         -1    1    3    3    0  502  0.27779388916E+03  0.17450078031E+03  0.40644602592E+03  0.52232015007E+03  0.00000000000E+00 0.  1.
         11    1    5    5    0    0  0.14196012462E+03  0.33946432207E+01  0.19732433204E+03  0.24310716279E+03  0.00000000000E+00 0.  1.
        -11    1    5    5    0    0  0.71761372661E+02 -0.32488480629E+02  0.24622256989E+03  0.25851644029E+03  0.00000000000E+00 0. -1.
          1    1    6    6  503    0 -0.94861253633E+02 -0.70415396728E+00  0.45797341345E+02  0.10534016208E+03  0.00000000000E+00 0. -1.
         -1    1    6    6    0  503 -0.63990931633E+03 -0.24018656917E+03  0.39891894041E+03  0.79139739837E+03  0.00000000000E+00 0.  1.
<mgrwt>
<rscale>  0 0.17003154E+04</rscale>
<asrwt>0</asrwt>
<pdfrwt beam="1">  1        2 0.31714679E+00 0.17003154E+04</pdfrwt>
<pdfrwt beam="2">  1       -1 0.53940122E-01 0.17003154E+04</pdfrwt>
<totfact> 0.23221258E+01</totfact>
</mgrwt>
</event>
<event>
12    6  0.1611689E-007  0.1554494E+04  0.7818608E-02  0.8849002E-01
         -1   -1    0    0    0  501 -0.00000000000E+00  0.00000000000E+00  0.20629646395E+03  0.20629646395E+03  0.00000000000E+00 0.  1.
          2   -1    0    0  501    0  0.00000000000E+00 -0.00000000000E+00 -0.29283719202E+04  0.29283719202E+04  0.00000000000E+00 0. -1.
         24    2    1    2    0    0 -0.35495309142E+03  0.16087371515E+03 -0.23947936035E+03  0.46414604356E+03  0.78798073485E+02 0.  0.
        254    2    1    2    0    0  0.35495309142E+03 -0.16087371515E+03 -0.24825960959E+04  0.26705223405E+04  0.90362279015E+03 0.  0.
         23    2    4    4    0    0 -0.29840332535E+02 -0.44438102926E+02  0.41534107095E+02  0.11304581473E+03  0.90493556331E+02 0.  0.
         23    2    4    4    0    0  0.38479342395E+03 -0.11643561222E+03 -0.25241302029E+04  0.25574765258E+04  0.88485409965E+02 0.  0.
          2    1    3    3  502    0 -0.22608460309E+03  0.12427389836E+03 -0.19356904341E+03  0.32253251640E+03  0.00000000000E+00 0. -1.
         -1    1    3    3    0  502 -0.12886848833E+03  0.36599816793E+02 -0.45910316937E+02  0.14161352716E+03  0.00000000000E+00 0.  1.
         11    1    5    5    0    0 -0.37336196646E+02 -0.36350730389E+02  0.67243816143E+02  0.85071134877E+02  0.00000000000E+00 0. -1.
        -11    1    5    5    0    0  0.74958641113E+01 -0.80873725371E+01 -0.25709709048E+02  0.27974679849E+02  0.00000000000E+00 0.  1.
          2    1    6    6  503    0  0.15966150061E+03 -0.13893711132E+02 -0.11712941726E+04  0.11822076250E+04  0.00000000000E+00 0. -1.
         -2    1    6    6    0  503  0.22513192335E+03 -0.10254190109E+03 -0.13528360304E+04  0.13752689008E+04  0.00000000000E+00 0.  1.
<mgrwt>
<rscale>  0 0.15544938E+04</rscale>
<asrwt>0</asrwt>
<pdfrwt beam="1">  1        2 0.45051874E+00 0.15544938E+04</pdfrwt>
<pdfrwt beam="2">  1       -1 0.31737919E-01 0.15544938E+04</pdfrwt>
<totfact> 0.19648075E+01</totfact>
</mgrwt>
</event>
<event>
12    6  0.1611689E-007  0.1587869E+04  0.7818608E-02  0.8828036E-01
          2   -1    0    0  501    0  0.00000000000E+00  0.00000000000E+00  0.23248926815E+04  0.23248926815E+04  0.00000000000E+00 0. -1.
         -1   -1    0    0    0  501 -0.00000000000E+00 -0.00000000000E+00 -0.27112289907E+03  0.27112289907E+03  0.00000000000E+00 0.  1.
         24    2    1    2    0    0 -0.17356197390E+03 -0.98237392955E+02 -0.11279001153E+03  0.24233553664E+03  0.78934032299E+02 0.  0.
        254    2    1    2    0    0  0.17356197390E+03  0.98237392955E+02  0.21665597939E+04  0.23536800439E+04  0.89780513710E+03 0.  0.
         23    2    4    4    0    0  0.37197901327E+03 -0.12726919156E+03  0.43444227943E+03  0.59319454661E+03  0.92595045926E+02 0.  0.
         23    2    4    4    0    0 -0.19841703937E+03  0.22550658451E+03  0.17321175145E+04  0.17604854973E+04  0.94103990190E+02 0.  0.
          2    1    3    3  502    0 -0.12447862697E+03 -0.26139898172E+02 -0.70040063963E+02  0.14520273210E+03  0.00000000000E+00 0. -1.
         -1    1    3    3    0  502 -0.49083346935E+02 -0.72097494783E+02 -0.42749947571E+02  0.97132804539E+02  0.00000000000E+00 0.  1.
         11    1    5    5    0    0  0.23963913872E+03 -0.10841428772E+03  0.33838497007E+03  0.42858483706E+03  0.00000000000E+00 0.  1.
        -11    1    5    5    0    0  0.13233987455E+03 -0.18854903840E+02  0.96057309360E+02  0.16460970954E+03  0.00000000000E+00 0. -1.
          2    1    6    6  503    0 -0.12990501907E+03  0.16467662937E+03  0.14127692978E+04  0.14282544574E+04  0.00000000000E+00 0. -1.
         -2    1    6    6    0  503 -0.68512020292E+02  0.60829955146E+02  0.31934821673E+03  0.33223103994E+03  0.00000000000E+00 0.  1.
<mgrwt>
<rscale>  0 0.15878686E+04</rscale>
<asrwt>0</asrwt>
<pdfrwt beam="1">  1        2 0.35767578E+00 0.15878686E+04</pdfrwt>
<pdfrwt beam="2">  1       -1 0.41711217E-01 0.15878686E+04</pdfrwt>
<totfact> 0.27085473E+01</totfact>
</mgrwt>
</event>
<event>
12    6  0.1611689E-007  0.2525956E+04  0.7818608E-02  0.8393797E-01
         -1   -1    0    0    0  501 -0.00000000000E+00  0.00000000000E+00  0.10389798344E+04  0.10389798344E+04  0.00000000000E+00 0.  1.
          2   -1    0    0  501    0  0.00000000000E+00 -0.00000000000E+00 -0.15352683681E+04  0.15352683681E+04  0.00000000000E+00 0. -1.
         24    2    1    2    0    0 -0.31872619705E+03  0.10274093170E+04 -0.43912424337E+03  0.11645570911E+04  0.78783399655E+02 0.  0.
        254    2    1    2    0    0  0.31872619705E+03 -0.10274093170E+04 -0.57164290341E+02  0.14096911113E+04  0.90928817211E+03 0.  0.
         23    2    4    4    0    0 -0.69850973747E+02 -0.57134131064E+03 -0.40555572035E+03  0.71013620994E+03  0.92238509212E+02 0.  0.
         23    2    4    4    0    0  0.38857717080E+03 -0.45606800636E+03  0.34839143001E+03  0.69955490139E+03  0.94922217991E+02 0.  0.
          4    1    3    3  502    0 -0.19813730246E+03  0.55862674528E+03 -0.20796657623E+03  0.62814992478E+03  0.00000000000E+00 0. -1.
         -3    1    3    3    0  502 -0.12058889459E+03  0.46878257172E+03 -0.23115766713E+03  0.53640716635E+03  0.00000000000E+00 0.  1.
         11    1    5    5    0    0 -0.10797366976E+02 -0.52040250734E+01 -0.14633352222E+01  0.12075030458E+02  0.00000000000E+00 0. -1.
        -11    1    5    5    0    0 -0.59053606771E+02 -0.56613728557E+03 -0.40409238513E+03  0.69806117948E+03  0.00000000000E+00 0.  1.
          3    1    6    6  503    0  0.30539808206E+03 -0.33555541805E+03  0.21754692265E+03  0.50318196576E+03  0.00000000000E+00 0.  1.
         -3    1    6    6    0  503  0.83179088739E+02 -0.12051258830E+03  0.13084450736E+03  0.19637293563E+03  0.00000000000E+00 0. -1.
<mgrwt>
<rscale>  0 0.25259556E+04</rscale>
<asrwt>0</asrwt>
<pdfrwt beam="1">  1        2 0.23619513E+00 0.25259556E+04</pdfrwt>
<pdfrwt beam="2">  1       -1 0.15984305E+00 0.25259556E+04</pdfrwt>
<totfact> 0.36016687E+00</totfact>
</mgrwt>
</event>
<event>
12    6  0.1611689E-007  0.1814672E+04  0.7818608E-02  0.8698536E-01
          2   -1    0    0  501    0  0.00000000000E+00  0.00000000000E+00  0.22162681141E+04  0.22162681141E+04  0.00000000000E+00 0. -1.
         -1   -1    0    0    0  501 -0.00000000000E+00 -0.00000000000E+00 -0.37146163960E+03  0.37146163960E+03  0.00000000000E+00 0.  1.
         24    2    1    2    0    0 -0.52137353979E+03  0.29650326812E+03  0.22747589222E+03  0.64650976185E+03  0.80529712674E+02 0.  0.
        254    2    1    2    0    0  0.52137353979E+03 -0.29650326812E+03  0.16173305823E+04  0.19412199919E+04  0.89041130296E+03 0.  0.
         23    2    4    4    0    0  0.63124374336E+03  0.10552420197E+03  0.10008461781E+04  0.11914774134E+04  0.91221344528E+02 0.  0.
         23    2    4    4    0    0 -0.10987020357E+03 -0.40202747009E+03  0.61648440420E+03  0.74974257848E+03  0.91451435337E+02 0.  0.
          4    1    3    3  502    0 -0.18535928140E+03  0.12358524373E+03  0.46806104676E+02  0.22764487059E+03  0.00000000000E+00 0. -1.
         -3    1    3    3    0  502 -0.33601425838E+03  0.17291802439E+03  0.18066978755E+03  0.41886489126E+03  0.00000000000E+00 0.  1.
         11    1    5    5    0    0  0.99973393696E+02  0.32727768351E+02  0.11401637753E+03  0.15513065659E+03  0.00000000000E+00 0. -1.
        -11    1    5    5    0    0  0.53127034966E+03  0.72796433623E+02  0.88682980056E+03  0.10363467568E+04  0.00000000000E+00 0.  1.
          3    1    6    6  503    0 -0.64757488470E+02 -0.32385762166E+03  0.53161904708E+03  0.62585629552E+03  0.00000000000E+00 0. -1.
         -3    1    6    6    0  503 -0.45112715099E+02 -0.78169848433E+02  0.84865357118E+02  0.12388628296E+03  0.00000000000E+00 0.  1.
<mgrwt>
<rscale>  0 0.18146720E+04</rscale>
<asrwt>0</asrwt>
<pdfrwt beam="1">  1        2 0.34096432E+00 0.18146720E+04</pdfrwt>
<pdfrwt beam="2">  1       -1 0.57147946E-01 0.18146720E+04</pdfrwt>
<totfact> 0.16836806E+01</totfact>
</mgrwt>
</event>
<event>
12    6  0.1611689E-007  0.1633486E+04  0.7818608E-02  0.8800236E-01
         -1   -1    0    0    0  501 -0.00000000000E+00  0.00000000000E+00  0.19219248510E+03  0.19219248510E+03  0.00000000000E+00 0.  1.
          2   -1    0    0  501    0  0.00000000000E+00 -0.00000000000E+00 -0.34708406721E+04  0.34708406721E+04  0.00000000000E+00 0. -1.
         24    2    1    2    0    0  0.48461504363E+03 -0.28261475827E+03 -0.12900604113E+04  0.14088550672E+04  0.76771697991E+02 0.  0.
        254    2    1    2    0    0 -0.48461504363E+03  0.28261475827E+03 -0.19885877757E+04  0.22541780900E+04  0.90117405500E+03 0.  0.
         23    2    4    4    0    0  0.14789795849E+03 -0.17841910860E+03 -0.70089923119E+03  0.74446458699E+03  0.96232035038E+02 0.  0.
         23    2    4    4    0    0 -0.63251300212E+03  0.46103386686E+03 -0.12876885445E+04  0.15097135030E+04  0.92022546591E+02 0.  0.
          4    1    3    3  502    0  0.21518733536E+03 -0.83913086426E+02 -0.55558367633E+03  0.60168115874E+03  0.00000000000E+00 0. -1.
         -3    1    3    3    0  502  0.26942770827E+03 -0.19870167184E+03 -0.73447673496E+03  0.80717390850E+03  0.00000000000E+00 0.  1.
         11    1    5    5    0    0  0.11898023049E+02  0.86188951561E+01 -0.16711809859E+02  0.22251581853E+02  0.00000000000E+00 0. -1.
        -11    1    5    5    0    0  0.13599993544E+03 -0.18703800375E+03 -0.68418742133E+03  0.72221300514E+03  0.00000000000E+00 0.  1.
          1    1    6    6  503    0 -0.12148497444E+03  0.84678744053E+02 -0.31810350897E+03  0.35088307330E+03  0.00000000000E+00 0. -1.
         -1    1    6    6    0  503 -0.51102802768E+03  0.37635512281E+03 -0.96958503556E+03  0.11588304297E+04  0.00000000000E+00 0.  1.
<mgrwt>
<rscale>  0 0.16334864E+04</rscale>
<asrwt>0</asrwt>
<pdfrwt beam="1">  1        2 0.53397548E+00 0.16334864E+04</pdfrwt>
<pdfrwt beam="2">  1       -1 0.29568075E-01 0.16334864E+04</pdfrwt>
<totfact> 0.98175968E+00</totfact>
</mgrwt>
</event>
<event>
12    6  0.1611689E-007  0.4424121E+04  0.7818608E-02  0.7924057E-01
          2   -1    0    0  501    0  0.00000000000E+00  0.00000000000E+00  0.33430621577E+04  0.33430621577E+04  0.00000000000E+00 0. -1.
         -1   -1    0    0    0  501 -0.00000000000E+00 -0.00000000000E+00 -0.14636914056E+04  0.14636914056E+04  0.00000000000E+00 0.  1.
         24    2    1    2    0    0 -0.16503856517E+03 -0.10428913909E+04 -0.10938761174E+04  0.15225930536E+04  0.82852069509E+02 0.  0.
        254    2    1    2    0    0  0.16503856517E+03  0.10428913909E+04  0.29732468696E+04  0.32841605097E+04  0.91140173627E+03 0.  0.
         23    2    4    4    0    0  0.39486981462E+03  0.82727074758E+03  0.13911494195E+04  0.16684698948E+04  0.90531884214E+02 0.  0.
         23    2    4    4    0    0 -0.22983124945E+03  0.21562064333E+03  0.15820974500E+04  0.16156906149E+04  0.90050855937E+02 0.  0.
          4    1    3    3  502    0 -0.64169775561E+02 -0.64577393362E+03 -0.64922250009E+03  0.91794966533E+03  0.00000000000E+00 0. -1.
         -3    1    3    3    0  502 -0.10086878961E+03 -0.39711745728E+03 -0.44465361732E+03  0.60464338828E+03  0.00000000000E+00 0.  1.
         11    1    5    5    0    0  0.34775631839E+02  0.96917493294E+02  0.20922570375E+03  0.23319035183E+03  0.00000000000E+00 0. -1.
        -11    1    5    5    0    0  0.36009418278E+03  0.73035325428E+03  0.11819237158E+04  0.14352795430E+04  0.00000000000E+00 0.  1.
          4    1    6    6  503    0 -0.85887607778E+02  0.14184800650E+03  0.77376983583E+03  0.79133892673E+03  0.00000000000E+00 0.  1.
         -4    1    6    6    0  503 -0.14394364168E+03  0.73772636828E+02  0.80832761420E+03  0.82435168817E+03  0.00000000000E+00 0. -1.
<mgrwt>
<rscale>  0 0.44241209E+04</rscale>
<asrwt>0</asrwt>
<pdfrwt beam="1">  1        2 0.51431725E+00 0.44241209E+04</pdfrwt>
<pdfrwt beam="2">  1       -1 0.22518329E+00 0.44241209E+04</pdfrwt>
<totfact> 0.91533021E-02</totfact>
</mgrwt>
</event>
<event>
12    6  0.1611689E-007  0.1185710E+04  0.7818608E-02  0.9125457E-01
          2   -1    0    0  501    0  0.00000000000E+00  0.00000000000E+00  0.14955031463E+04  0.14955031463E+04  0.00000000000E+00 0. -1.
         -1   -1    0    0    0  501 -0.00000000000E+00 -0.00000000000E+00 -0.23502260319E+03  0.23502260319E+03  0.00000000000E+00 0.  1.
         24    2    1    2    0    0  0.11289093052E+03 -0.24580338404E+03  0.52507151314E+03  0.59591141168E+03  0.79035756838E+02 0.  0.
        254    2    1    2    0    0 -0.11289093052E+03  0.24580338404E+03  0.73540903000E+03  0.11346143378E+04  0.82058490630E+03 0.  0.
         23    2    4    4    0    0 -0.72276659315E+02  0.52545288330E+03  0.32807354173E+03  0.63052679747E+03  0.92774702891E+02 0.  0.
         23    2    4    4    0    0 -0.40614271202E+02 -0.27964949926E+03  0.40733548827E+03  0.50408754037E+03  0.91261639778E+02 0.  0.
          2    1    3    3  502    0  0.23842910429E+02 -0.10072692292E+03  0.27090998181E+03  0.29001140602E+03  0.00000000000E+00 0. -1.
         -1    1    3    3    0  502  0.89048020088E+02 -0.14507646112E+03  0.25416153133E+03  0.30590000566E+03  0.00000000000E+00 0.  1.
         11    1    5    5    0    0 -0.56231305112E+01  0.35463728291E+03  0.22787768476E+03  0.42157734906E+03  0.00000000000E+00 0. -1.
        -11    1    5    5    0    0 -0.66653528804E+02  0.17081560039E+03  0.10019585697E+03  0.20894944842E+03  0.00000000000E+00 0.  1.
          1    1    6    6  503    0 -0.54971776059E+02 -0.24950575155E+03  0.31310092872E+03  0.40411286516E+03  0.00000000000E+00 0. -1.
         -1    1    6    6    0  503  0.14357504857E+02 -0.30143747713E+02  0.94234559545E+02  0.99974675216E+02  0.00000000000E+00 0.  1.
<mgrwt>
<rscale>  0 0.11857100E+04</rscale>
<asrwt>0</asrwt>
<pdfrwt beam="1">  1        2 0.23007740E+00 0.11857100E+04</pdfrwt>
<pdfrwt beam="2">  1       -1 0.36157325E-01 0.11857100E+04</pdfrwt>
<totfact> 0.10510411E+02</totfact>
</mgrwt>
</event>
<event>
12    6  0.1611689E-007  0.1706804E+04  0.7818608E-02  0.8757493E-01
         -1   -1    0    0    0  501 -0.00000000000E+00  0.00000000000E+00  0.90579659058E+03  0.90579659058E+03  0.00000000000E+00 0.  1.
          2   -1    0    0  501    0  0.00000000000E+00 -0.00000000000E+00 -0.80403802909E+03  0.80403802909E+03  0.00000000000E+00 0. -1.
         24    2    1    2    0    0 -0.39504542429E+02  0.55502037767E+03  0.24202358787E+03  0.61195047248E+03  0.79370871082E+02 0.  0.
        254    2    1    2    0    0  0.39504542429E+02 -0.55502037767E+03 -0.14026502638E+03  0.10978841472E+04  0.93598455891E+03 0.  0.
         23    2    4    4    0    0  0.28518962638E+01 -0.72024623713E+03  0.15882181451E+03  0.74274442586E+03  0.87647806398E+02 0.  0.
         23    2    4    4    0    0  0.36652646165E+02  0.16522585946E+03 -0.29908684089E+03  0.35513972133E+03  0.89600681724E+02 0.  0.
          2    1    3    3  502    0  0.62919086711E+01  0.73659867688E+02  0.68081543105E+01  0.74240926636E+02  0.00000000000E+00 0. -1.
         -1    1    3    3    0  502 -0.45796451100E+02  0.48136050998E+03  0.23521543356E+03  0.53770954584E+03  0.00000000000E+00 0.  1.
         11    1    5    5    0    0  0.26025272417E+00 -0.66228902931E+03  0.12035741063E+03  0.67313648866E+03  0.00000000000E+00 0.  1.
        -11    1    5    5    0    0  0.25916435397E+01 -0.57957207821E+02  0.38464403883E+02  0.69607937196E+02  0.00000000000E+00 0. -1.
          4    1    6    6  503    0 -0.13710555079E+02  0.15877033898E+02 -0.51313211875E+01  0.21596064065E+02  0.00000000000E+00 0. -1.
         -4    1    6    6    0  503  0.50363201244E+02  0.14934882556E+03 -0.29395551970E+03  0.33354365726E+03  0.00000000000E+00 0.  1.
<mgrwt>
<rscale>  0 0.17068039E+04</rscale>
<asrwt>0</asrwt>
<pdfrwt beam="1">  1        2 0.12369816E+00 0.17068039E+04</pdfrwt>
<pdfrwt beam="2">  1       -1 0.13935332E+00 0.17068039E+04</pdfrwt>
<totfact> 0.15762405E+01</totfact>
</mgrwt>
</event>
<event>
12    6  0.1611689E-007  0.1381492E+04  0.7818608E-02  0.8967325E-01
         -1   -1    0    0    0  501 -0.00000000000E+00  0.00000000000E+00  0.27181117987E+03  0.27181117987E+03  0.00000000000E+00 0.  1.
          2   -1    0    0  501    0  0.00000000000E+00 -0.00000000000E+00 -0.17553742739E+04  0.17553742739E+04  0.00000000000E+00 0. -1.
         24    2    1    2    0    0  0.59109601465E+02 -0.21014131889E+03  0.43967732918E+02  0.23898791148E+03  0.86768320274E+02 0.  0.
        254    2    1    2    0    0 -0.59109601465E+02  0.21014131889E+03 -0.15275308270E+04  0.17881975423E+04  0.90368506910E+03 0.  0.
         23    2    4    4    0    0 -0.29036266397E+03 -0.17500881796E+03 -0.25056470232E+03  0.43142299378E+03  0.91676422922E+02 0.  0.
         23    2    4    4    0    0  0.23125306250E+03  0.38515013685E+03 -0.12769661246E+04  0.13567745485E+04  0.91520955111E+02 0.  0.
          2    1    3    3  502    0 -0.13367016253E+02 -0.50963037235E+01 -0.65292297608E+01  0.15725147898E+02  0.00000000000E+00 0. -1.
         -1    1    3    3    0  502  0.72476617718E+02 -0.20504501517E+03  0.50496962678E+02  0.22326276358E+03  0.00000000000E+00 0.  1.
         11    1    5    5    0    0 -0.97686220889E+02 -0.10922668464E+03 -0.88394916435E+02  0.17113365432E+03  0.00000000000E+00 0. -1.
        -11    1    5    5    0    0 -0.19267644308E+03 -0.65782133324E+02 -0.16216978589E+03  0.26028933946E+03  0.00000000000E+00 0.  1.
          4    1    6    6  503    0  0.20500046219E+02  0.35819404375E+02 -0.56820218461E+02  0.70226909734E+02  0.00000000000E+00 0.  1.
         -4    1    6    6    0  503  0.21075301629E+03  0.34933073248E+03 -0.12201459062E+04  0.12865476388E+04  0.00000000000E+00 0. -1.
<mgrwt>
<rscale>  0 0.13814925E+04</rscale>
<asrwt>0</asrwt>
<pdfrwt beam="1">  1        2 0.27005758E+00 0.13814925E+04</pdfrwt>
<pdfrwt beam="2">  1       -1 0.41817105E-01 0.13814925E+04</pdfrwt>
<totfact> 0.56932562E+01</totfact>
</mgrwt>
</event>
<event>
12    6  0.1611689E-007  0.1795776E+04  0.7818608E-02  0.8708549E-01
          2   -1    0    0  501    0  0.00000000000E+00  0.00000000000E+00  0.27287821590E+04  0.27287821590E+04  0.00000000000E+00 0. -1.
         -1   -1    0    0    0  501 -0.00000000000E+00 -0.00000000000E+00 -0.29544414710E+03  0.29544414710E+03  0.00000000000E+00 0.  1.
         24    2    1    2    0    0 -0.57380261032E+03  0.25113063088E+03  0.13197502597E+04  0.14630165381E+04  0.79753455000E+02 0.  0.
        254    2    1    2    0    0  0.57380261032E+03 -0.25113063088E+03  0.11135877522E+04  0.15612097680E+04  0.89720801842E+03 0.  0.
         23    2    4    4    0    0  0.28202682771E+03 -0.55361266480E+03  0.84896855276E+03  0.10560223255E+04  0.91702966950E+02 0.  0.
         23    2    4    4    0    0  0.29177578261E+03  0.30248203392E+03  0.26461919948E+03  0.50518744251E+03  0.92534010883E+02 0.  0.
          4    1    3    3  502    0 -0.54813403648E+03  0.25650549382E+03  0.12645382973E+04  0.14018926834E+04  0.00000000000E+00 0. -1.
         -3    1    3    3    0  502 -0.25668573846E+02 -0.53748629358E+01  0.55211962310E+02  0.61123854730E+02  0.00000000000E+00 0.  1.
         11    1    5    5    0    0  0.58322591287E+02 -0.51572808254E+02  0.12064591427E+03  0.14358522151E+03  0.00000000000E+00 0.  1.
        -11    1    5    5    0    0  0.22370423642E+03 -0.50203985655E+03  0.72832263849E+03  0.91243710397E+03  0.00000000000E+00 0. -1.
          3    1    6    6  503    0  0.26248167590E+03  0.28149079375E+03  0.20644015248E+03  0.43675076841E+03  0.00000000000E+00 0. -1.
         -3    1    6    6    0  503  0.29294106715E+02  0.20991240171E+02  0.58179047002E+02  0.68436674102E+02  0.00000000000E+00 0.  1.
<mgrwt>
<rscale>  0 0.17957758E+04</rscale>
<asrwt>0</asrwt>
<pdfrwt beam="1">  1        2 0.41981262E+00 0.17957758E+04</pdfrwt>
<pdfrwt beam="2">  1       -1 0.45452947E-01 0.17957758E+04</pdfrwt>
<totfact> 0.13220520E+01</totfact>
</mgrwt>
</event>
<event>
12    6  0.1611689E-007  0.4116744E+04  0.7818608E-02  0.7981401E-01
          2   -1    0    0  501    0  0.00000000000E+00  0.00000000000E+00  0.19459104630E+04  0.19459104630E+04  0.00000000000E+00 0. -1.
         -1   -1    0    0    0  501 -0.00000000000E+00 -0.00000000000E+00 -0.21773332114E+04  0.21773332114E+04  0.00000000000E+00 0.  1.
         24    2    1    2    0    0  0.13801406074E+04 -0.11962197128E+04 -0.81208449322E+03  0.20004414566E+04  0.80963569738E+02 0.  0.
        254    2    1    2    0    0 -0.13801406074E+04  0.11962197128E+04  0.58066174482E+03  0.21228022179E+04  0.91290278620E+03 0.  0.
         23    2    4    4    0    0 -0.52377215704E+03  0.20772275088E+03  0.57696516217E+03  0.81170458463E+03  0.92138594605E+02 0.  0.
         23    2    4    4    0    0 -0.85636845032E+03  0.98849696193E+03  0.36965826487E+01  0.13110976333E+04  0.92033541827E+02 0.  0.
          2    1    3    3  502    0  0.16672045490E+03 -0.11304985606E+03 -0.80001266287E+02  0.21673989629E+03  0.00000000000E+00 0. -1.
         -1    1    3    3    0  502  0.12134201525E+04 -0.10831698568E+04 -0.73208322693E+03  0.17837015603E+04  0.00000000000E+00 0.  1.
         11    1    5    5    0    0 -0.25913603090E+03  0.15193102139E+03  0.29606893646E+03  0.42177165968E+03  0.00000000000E+00 0. -1.
        -11    1    5    5    0    0 -0.26463612615E+03  0.55791729494E+02  0.28089622571E+03  0.38993292495E+03  0.00000000000E+00 0.  1.
          2    1    6    6  503    0 -0.21967571350E+03  0.21317166890E+03 -0.27730007172E+02  0.30735733735E+03  0.00000000000E+00 0. -1.
         -2    1    6    6    0  503 -0.63669273682E+03  0.77532529304E+03  0.31426589821E+02  0.10037402959E+04  0.00000000000E+00 0.  1.
<mgrwt>
<rscale>  0 0.41167441E+04</rscale>
<asrwt>0</asrwt>
<pdfrwt beam="1">  1        2 0.29937084E+00 0.41167441E+04</pdfrwt>
<pdfrwt beam="2">  1       -1 0.33497434E+00 0.41167441E+04</pdfrwt>
<totfact> 0.12431971E-01</totfact>
</mgrwt>
</event>
<event>
12    6  0.1611689E-007  0.1667217E+04  0.7818608E-02  0.8780286E-01
         -1   -1    0    0    0  501 -0.00000000000E+00  0.00000000000E+00  0.52957803266E+03  0.52957803266E+03  0.00000000000E+00 0.  1.
          2   -1    0    0  501    0  0.00000000000E+00 -0.00000000000E+00 -0.13121823748E+04  0.13121823748E+04  0.00000000000E+00 0. -1.
         24    2    1    2    0    0  0.52529802676E+03  0.10617661883E+03 -0.62453396979E+01  0.54164199349E+03  0.78265915566E+02 0.  0.
        254    2    1    2    0    0 -0.52529802676E+03 -0.10617661883E+03 -0.77635900241E+03  0.13001184139E+04  0.89463014612E+03 0.  0.
         23    2    4    4    0    0 -0.66723162352E+03  0.17282589237E+03 -0.64377201970E+03  0.94815504331E+03  0.97410185950E+02 0.  0.
         23    2    4    4    0    0  0.14193359675E+03 -0.27900251120E+03 -0.13258698271E+03  0.35196337063E+03  0.91166655841E+02 0.  0.
          2    1    3    3  502    0  0.44914405189E+01 -0.44532034205E+01 -0.67014441941E+01  0.92148474174E+01  0.00000000000E+00 0. -1.
         -1    1    3    3    0  502  0.52080658624E+03  0.11062982225E+03  0.45610449626E+00  0.53242714608E+03  0.00000000000E+00 0.  1.
         11    1    5    5    0    0 -0.48357921258E+02  0.99564033633E+01 -0.86402299554E+02  0.99513696970E+02  0.00000000000E+00 0. -1.
        -11    1    5    5    0    0 -0.61887370226E+03  0.16286948901E+03 -0.55736972014E+03  0.84864134634E+03  0.00000000000E+00 0.  1.
          4    1    6    6  503    0  0.13958189895E+03 -0.28119417490E+03 -0.11538750979E+03  0.33446606394E+03  0.00000000000E+00 0.  1.
         -4    1    6    6    0  503  0.23516978002E+01  0.21916637066E+01 -0.17199472922E+02  0.17497306683E+02  0.00000000000E+00 0. -1.
<mgrwt>
<rscale>  0 0.16672168E+04</rscale>
<asrwt>0</asrwt>
<pdfrwt beam="1">  1        2 0.20187421E+00 0.16672168E+04</pdfrwt>
<pdfrwt beam="2">  1       -1 0.81473544E-01 0.16672168E+04</pdfrwt>
<totfact> 0.26534240E+01</totfact>
</mgrwt>
</event>
<event>
12    6  0.1611689E-007  0.1860284E+04  0.7818608E-02  0.8674882E-01
         -1   -1    0    0    0  501 -0.00000000000E+00  0.00000000000E+00  0.28305506633E+03  0.28305506633E+03  0.00000000000E+00 0.  1.
          2   -1    0    0  501    0  0.00000000000E+00 -0.00000000000E+00 -0.30565221574E+04  0.30565221574E+04  0.00000000000E+00 0. -1.
         24    2    1    2    0    0  0.66850173441E+03  0.21250628926E+03 -0.87514681828E+03  0.11245312084E+04  0.81455468099E+02 0.  0.
        254    2    1    2    0    0 -0.66850173441E+03 -0.21250628926E+03 -0.18983202728E+04  0.22150460153E+04  0.90041962437E+03 0.  0.
         23    2    4    4    0    0 -0.66099262053E+03  0.14140258280E+03 -0.16125961280E+04  0.17509742514E+04  0.92404665837E+02 0.  0.
         23    2    4    4    0    0 -0.75091138771E+01 -0.35390887206E+03 -0.28572414478E+03  0.46407176388E+03  0.91741150017E+02 0.  0.
          2    1    3    3  502    0  0.29572205591E+03  0.77541951648E+02 -0.44093172718E+03  0.53654923041E+03  0.00000000000E+00 0. -1.
         -1    1    3    3    0  502  0.37277967850E+03  0.13496433761E+03 -0.43421509110E+03  0.58798197802E+03  0.00000000000E+00 0.  1.
         11    1    5    5    0    0 -0.39364619077E+03  0.46581944325E+02 -0.87015243851E+03  0.95618641869E+03  0.00000000000E+00 0.  1.
        -11    1    5    5    0    0 -0.26734642976E+03  0.94820638472E+02 -0.74244368950E+03  0.79478783273E+03  0.00000000000E+00 0. -1.
          1    1    6    6  503    0 -0.47022054239E+02 -0.25216991617E+03 -0.20288085214E+03  0.32704950752E+03  0.00000000000E+00 0. -1.
         -1    1    6    6    0  503  0.39512940362E+02 -0.10173895588E+03 -0.82843292640E+02  0.13702225635E+03  0.00000000000E+00 0.  1.
<mgrwt>
<rscale>  0 0.18602839E+04</rscale>
<asrwt>0</asrwt>
<pdfrwt beam="1">  1        2 0.47023415E+00 0.18602839E+04</pdfrwt>
<pdfrwt beam="2">  1       -1 0.43546936E-01 0.18602839E+04</pdfrwt>
<totfact> 0.89652775E+00</totfact>
</mgrwt>
</event>
<event>
12    6  0.1611689E-007  0.1617685E+04  0.7818608E-02  0.8809756E-01
         -3   -1    0    0    0  501 -0.00000000000E+00  0.00000000000E+00  0.48436318634E+03  0.48436318634E+03  0.00000000000E+00 0.  1.
          2   -1    0    0  501    0  0.00000000000E+00 -0.00000000000E+00 -0.13506937435E+04  0.13506937435E+04  0.00000000000E+00 0. -1.
         24    2    1    2    0    0  0.45559460602E+02  0.34154065455E+03  0.19104678594E+03  0.40175671323E+03  0.78637771098E+02 0.  0.
        254    2    1    2    0    0 -0.45559460602E+02 -0.34154065455E+03 -0.10573773431E+04  0.14333002166E+04  0.90419963618E+03 0.  0.
         23    2    4    4    0    0  0.36413154583E+03 -0.20314184451E+03 -0.20490409622E+03  0.47333614989E+03  0.90570582868E+02 0.  0.
         23    2    4    4    0    0 -0.40969100644E+03 -0.13839881005E+03 -0.85247324684E+03  0.95996406669E+03  0.88427492288E+02 0.  0.
          2    1    3    3  502    0 -0.51112229662E+01  0.20546695060E+03  0.87316502376E+02  0.22330912202E+03  0.00000000000E+00 0. -1.
         -1    1    3    3    0  502  0.50670683568E+02  0.13607370395E+03  0.10373028356E+03  0.17844759121E+03  0.00000000000E+00 0.  1.
         11    1    5    5    0    0  0.30441574396E+03 -0.20343144622E+03 -0.18619360275E+03  0.41075705251E+03  0.00000000000E+00 0.  1.
        -11    1    5    5    0    0  0.59715801874E+02  0.28960171382E+00 -0.18710493473E+02  0.62579097378E+02  0.00000000000E+00 0. -1.
          3    1    6    6  503    0 -0.90921097387E+02  0.44977961397E+01 -0.15094303790E+03  0.17626876301E+03  0.00000000000E+00 0. -1.
         -3    1    6    6    0  503 -0.31876990905E+03 -0.14289660619E+03 -0.70153020894E+03  0.78369530369E+03  0.00000000000E+00 0.  1.
<mgrwt>
<rscale>  0 0.16176852E+04</rscale>
<asrwt>0</asrwt>
<pdfrwt beam="1">  1        2 0.20779903E+00 0.16176852E+04</pdfrwt>
<pdfrwt beam="2">  1       -3 0.74517415E-01 0.16176852E+04</pdfrwt>
<totfact> 0.16045348E+01</totfact>
</mgrwt>
</event>
<event>
12    6  0.1611689E-007  0.1532440E+04  0.7818608E-02  0.8863163E-01
         -1   -1    0    0    0  501 -0.00000000000E+00  0.00000000000E+00  0.17490443342E+03  0.17490443342E+03  0.00000000000E+00 0.  1.
          2   -1    0    0  501    0  0.00000000000E+00 -0.00000000000E+00 -0.33566496539E+04  0.33566496539E+04  0.00000000000E+00 0. -1.
         24    2    1    2    0    0  0.17775988988E+03  0.43048616681E+03 -0.58224867334E+03  0.74984748634E+03  0.79629246450E+02 0.  0.
        254    2    1    2    0    0 -0.17775988988E+03 -0.43048616681E+03 -0.25994965472E+04  0.27817066010E+04  0.87383774075E+03 0.  0.
         23    2    4    4    0    0 -0.52208671012E+03 -0.20188422648E+03 -0.14259962620E+04  0.15345600660E+04  0.89874819601E+02 0.  0.
         23    2    4    4    0    0  0.34432682023E+03 -0.22860194033E+03 -0.11735002852E+04  0.12471465350E+04  0.86323543840E+02 0.  0.
          2    1    3    3  502    0  0.15023485392E+03  0.28953523725E+03 -0.36608547347E+03  0.49032615556E+03  0.00000000000E+00 0. -1.
         -1    1    3    3    0  502  0.27525035965E+02  0.14095092956E+03 -0.21616319987E+03  0.25952133077E+03  0.00000000000E+00 0.  1.
         11    1    5    5    0    0 -0.10957115321E+03 -0.50329850017E+02 -0.21828782382E+03  0.24937623272E+03  0.00000000000E+00 0.  1.
        -11    1    5    5    0    0 -0.41251555690E+03 -0.15155437646E+03 -0.12077084381E+04  0.12851838333E+04  0.00000000000E+00 0. -1.
          1    1    6    6  503    0  0.17188497995E+03 -0.15960716234E+03 -0.71343351425E+03  0.75100350989E+03  0.00000000000E+00 0. -1.
         -1    1    6    6    0  503  0.17244184028E+03 -0.68994777987E+02 -0.46006677096E+03  0.49614302515E+03  0.00000000000E+00 0.  1.
<mgrwt>
<rscale>  0 0.15324398E+04</rscale>
<asrwt>0</asrwt>
<pdfrwt beam="1">  1        2 0.51640767E+00 0.15324398E+04</pdfrwt>
<pdfrwt beam="2">  1       -1 0.26908373E-01 0.15324398E+04</pdfrwt>
<totfact> 0.13972705E+01</totfact>
</mgrwt>
</event>
<event>
12    6  0.1611689E-007  0.1803705E+04  0.7818608E-02  0.8704332E-01
          2   -1    0    0  501    0  0.00000000000E+00  0.00000000000E+00  0.50707976031E+03  0.50707976031E+03  0.00000000000E+00 0. -1.
         -1   -1    0    0    0  501 -0.00000000000E+00 -0.00000000000E+00 -0.16039647133E+04  0.16039647133E+04  0.00000000000E+00 0.  1.
         24    2    1    2    0    0  0.40934085095E+03  0.25593801653E+03  0.13320336510E+03  0.50727995652E+03  0.80781292735E+02 0.  0.
        254    2    1    2    0    0 -0.40934085095E+03 -0.25593801653E+03 -0.12300883181E+04  0.16037645171E+04  0.90877893648E+03 0.  0.
         23    2    4    4    0    0 -0.12520158450E+03 -0.24158680645E+03 -0.12703312611E+04  0.13022333716E+04  0.89613723342E+02 0.  0.
         23    2    4    4    0    0 -0.28413926644E+03 -0.14351210082E+02  0.40242942967E+02  0.30153114551E+03  0.91435536237E+02 0.  0.
          2    1    3    3  502    0  0.35616119706E+03  0.22596905607E+03  0.86883067805E+02  0.43065238890E+03  0.00000000000E+00 0. -1.
         -1    1    3    3    0  502  0.53179653884E+02  0.29968960459E+02  0.46320297292E+02  0.76627567620E+02  0.00000000000E+00 0.  1.
         11    1    5    5    0    0 -0.95263975632E+02 -0.11221758098E+03 -0.80403510416E+03  0.81739859265E+03  0.00000000000E+00 0.  1.
        -11    1    5    5    0    0 -0.29937608873E+02 -0.12936922547E+03 -0.46629615689E+03  0.48483477893E+03  0.00000000000E+00 0. -1.
          4    1    6    6  503    0 -0.21740379640E+03 -0.30428818307E+02 -0.45402524743E+01  0.21956989221E+03  0.00000000000E+00 0.  1.
         -4    1    6    6    0  503 -0.66735470040E+02  0.16077608225E+02  0.44783195441E+02  0.81961253294E+02  0.00000000000E+00 0. -1.
<mgrwt>
<rscale>  0 0.18037051E+04</rscale>
<asrwt>0</asrwt>
<pdfrwt beam="1">  1        2 0.78012270E-01 0.18037051E+04</pdfrwt>
<pdfrwt beam="2">  1       -1 0.24676381E+00 0.18037051E+04</pdfrwt>
<totfact> 0.47828477E+00</totfact>
</mgrwt>
</event>
<event>
12    6  0.1611689E-007  0.1718910E+04  0.7818608E-02  0.8750652E-01
          2   -1    0    0  501    0  0.00000000000E+00  0.00000000000E+00  0.29873890113E+04  0.29873890113E+04  0.00000000000E+00 0. -1.
         -1   -1    0    0    0  501 -0.00000000000E+00 -0.00000000000E+00 -0.24726044360E+03  0.24726044360E+03  0.00000000000E+00 0.  1.
         24    2    1    2    0    0  0.34159330121E+03  0.35219701462E+03  0.16732653376E+04  0.17454469770E+04  0.77714470229E+02 0.  0.
        254    2    1    2    0    0 -0.34159330121E+03 -0.35219701462E+03  0.10668632301E+04  0.14892024779E+04  0.91585924026E+03 0.  0.
         23    2    4    4    0    0  0.11529112368E+03  0.14903887798E+03  0.66180042360E+03  0.69406802243E+03  0.90807426637E+02 0.  0.
         23    2    4    4    0    0 -0.45688442489E+03 -0.50123589260E+03  0.40506280649E+03  0.79513445549E+03  0.90455112430E+02 0.  0.
          4    1    3    3  502    0  0.21398799425E+03  0.23066641841E+03  0.11957911590E+04  0.12364927635E+04  0.00000000000E+00 0. -1.
         -3    1    3    3    0  502  0.12760530696E+03  0.12153059621E+03  0.47747417869E+03  0.50895421355E+03  0.00000000000E+00 0.  1.
         11    1    5    5    0    0  0.11475024521E+03  0.14363868352E+03  0.66340528278E+03  0.68840849748E+03  0.00000000000E+00 0. -1.
        -11    1    5    5    0    0  0.54087847110E+00  0.54001944546E+01 -0.16048591806E+01  0.56595249498E+01  0.00000000000E+00 0.  1.
          1    1    6    6  503    0 -0.24054224604E+03 -0.32629057420E+03  0.25684632008E+03  0.47989180352E+03  0.00000000000E+00 0. -1.
         -1    1    6    6    0  503 -0.21634217885E+03 -0.17494531840E+03  0.14821648641E+03  0.31524265198E+03  0.00000000000E+00 0.  1.
<mgrwt>
<rscale>  0 0.17189103E+04</rscale>
<asrwt>0</asrwt>
<pdfrwt beam="1">  1        2 0.45959828E+00 0.17189103E+04</pdfrwt>
<pdfrwt beam="2">  1       -1 0.38040070E-01 0.17189103E+04</pdfrwt>
<totfact> 0.12863958E+01</totfact>
</mgrwt>
</event>
<event>
12    6  0.1611689E-007  0.1842302E+04  0.7818608E-02  0.8684122E-01
          2   -1    0    0  501    0  0.00000000000E+00  0.00000000000E+00  0.23558453130E+04  0.23558453130E+04  0.00000000000E+00 0. -1.
         -1   -1    0    0    0  501 -0.00000000000E+00 -0.00000000000E+00 -0.36017614764E+03  0.36017614764E+03  0.00000000000E+00 0.  1.
         24    2    1    2    0    0 -0.55311392894E+03  0.79773610405E+02  0.14004965924E+04  0.15097997391E+04  0.76195141890E+02 0.  0.
        254    2    1    2    0    0  0.55311392894E+03 -0.79773610405E+02  0.59517257298E+03  0.12062217215E+04  0.88794234192E+03 0.  0.
         23    2    4    4    0    0  0.26552902888E+03  0.25929479316E+03 -0.83983843563E+02  0.38875536893E+03  0.79611531559E+02 0.  0.
         23    2    4    4    0    0  0.28758490006E+03 -0.33906840356E+03  0.67915641654E+03  0.81746635261E+03  0.96567812860E+02 0.  0.
          2    1    3    3  502    0 -0.45885335105E+03  0.94510484449E+02  0.11748592430E+04  0.12648212799E+04  0.00000000000E+00 0. -1.
         -1    1    3    3    0  502 -0.94260577887E+02 -0.14736874045E+02  0.22563734943E+03  0.24497845917E+03  0.00000000000E+00 0.  1.
         11    1    5    5    0    0  0.73282549524E+02  0.28723836738E+02 -0.26848848685E+02  0.83164003857E+02  0.00000000000E+00 0. -1.
        -11    1    5    5    0    0  0.19224647935E+03  0.23057095642E+03 -0.57134994878E+02  0.30559136507E+03  0.00000000000E+00 0.  1.
          3    1    6    6  503    0  0.33934975808E+02 -0.80062604959E+02  0.86011241785E+02  0.12230918612E+03  0.00000000000E+00 0. -1.
         -3    1    6    6    0  503  0.25364992425E+03 -0.25900579860E+03  0.59314517476E+03  0.69515716649E+03  0.00000000000E+00 0.  1.
<mgrwt>
<rscale>  0 0.18423021E+04</rscale>
<asrwt>0</asrwt>
<pdfrwt beam="1">  1        2 0.36243773E+00 0.18423021E+04</pdfrwt>
<pdfrwt beam="2">  1       -1 0.55411716E-01 0.18423021E+04</pdfrwt>
<totfact> 0.14872689E+01</totfact>
</mgrwt>
</event>
<event>
12    6  0.1611689E-007  0.1497735E+04  0.7818608E-02  0.8885961E-01
         -1   -1    0    0    0  501 -0.00000000000E+00  0.00000000000E+00  0.49740041359E+03  0.49740041359E+03  0.00000000000E+00 0.  1.
          2   -1    0    0  501    0  0.00000000000E+00 -0.00000000000E+00 -0.11274666255E+04  0.11274666255E+04  0.00000000000E+00 0. -1.
         24    2    1    2    0    0 -0.35030711220E+03 -0.31510570848E+03 -0.15037380929E+03  0.50077235348E+03  0.78447352497E+02 0.  0.
        254    2    1    2    0    0  0.35030711220E+03  0.31510570848E+03 -0.47969240258E+03  0.11240946856E+04  0.90082039312E+03 0.  0.
         23    2    4    4    0    0  0.40567893947E+03  0.37692083198E+02  0.13680996783E+03  0.43954397583E+03  0.92118642677E+02 0.  0.
         23    2    4    4    0    0 -0.55371827271E+02  0.27741362528E+03 -0.61650237040E+03  0.68455070973E+03  0.92250434864E+02 0.  0.
          4    1    3    3  502    0 -0.32616892059E+03 -0.28795926006E+03 -0.11492497525E+03  0.45001605543E+03  0.00000000000E+00 0. -1.
         -3    1    3    3    0  502 -0.24138191608E+02 -0.27146448421E+02 -0.35448834046E+02  0.50756298045E+02  0.00000000000E+00 0.  1.
         11    1    5    5    0    0  0.36924762197E+03  0.12769801837E+02  0.14042850070E+03  0.39525566153E+03  0.00000000000E+00 0. -1.
        -11    1    5    5    0    0  0.36431317501E+02  0.24922281361E+02 -0.36185328688E+01  0.44288314297E+02  0.00000000000E+00 0.  1.
          1    1    6    6  503    0 -0.28941492154E+02  0.23843718158E+03 -0.56920822735E+03  0.61780895560E+03  0.00000000000E+00 0. -1.
         -1    1    6    6    0  503 -0.26430335117E+02  0.38976443705E+02 -0.47294143050E+02  0.66741754136E+02  0.00000000000E+00 0.  1.
<mgrwt>
<rscale>  0 0.14977348E+04</rscale>
<asrwt>0</asrwt>
<pdfrwt beam="1">  1        2 0.17345640E+00 0.14977348E+04</pdfrwt>
<pdfrwt beam="2">  1       -1 0.76523142E-01 0.14977348E+04</pdfrwt>
<totfact> 0.39589102E+01</totfact>
</mgrwt>
</event>
<event>
12    6  0.1611689E-007  0.3333002E+04  0.7818608E-02  0.8154548E-01
          2   -1    0    0  501    0  0.00000000000E+00  0.00000000000E+00  0.22149364404E+04  0.22149364404E+04  0.00000000000E+00 0. -1.
         -1   -1    0    0    0  501 -0.00000000000E+00 -0.00000000000E+00 -0.12538622542E+04  0.12538622542E+04  0.00000000000E+00 0.  1.
         24    2    1    2    0    0  0.26904211012E+03 -0.14124221145E+04  0.10316616971E+04  0.17715552376E+04  0.82232693970E+02 0.  0.
        254    2    1    2    0    0 -0.26904211012E+03  0.14124221145E+04 -0.70587510821E+02  0.16972434570E+04  0.89907333910E+03 0.  0.
         23    2    4    4    0    0 -0.57410533924E+03  0.88619700334E+03  0.77647836823E+02  0.10628915119E+04  0.93632848306E+02 0.  0.
         23    2    4    4    0    0  0.30506322912E+03  0.52622511119E+03 -0.14823534764E+03  0.63435194510E+03  0.10223615088E+03 0.  0.
          4    1    3    3  502    0  0.25001492680E+03 -0.12697052745E+04  0.89837722355E+03  0.15753541137E+04  0.00000000000E+00 0. -1.
         -3    1    3    3    0  502  0.19027183322E+02 -0.14271684000E+03  0.13328447354E+03  0.19620112388E+03  0.00000000000E+00 0.  1.
         11    1    5    5    0    0 -0.36801490471E+03  0.51286677944E+03  0.11448129301E+02  0.63134646844E+03  0.00000000000E+00 0. -1.
        -11    1    5    5    0    0 -0.20609043453E+03  0.37333022390E+03  0.66199707522E+02  0.43154504349E+03  0.00000000000E+00 0.  1.
          4    1    6    6  503    0  0.36779478517E+02  0.26429170652E+02  0.79733160834E+01  0.45987007629E+02  0.00000000000E+00 0.  1.
         -4    1    6    6    0  503  0.26828375061E+03  0.49979594054E+03 -0.15620866373E+03  0.58836493747E+03  0.00000000000E+00 0. -1.
<mgrwt>
<rscale>  0 0.33330018E+04</rscale>
<asrwt>0</asrwt>
<pdfrwt beam="1">  1        2 0.34075945E+00 0.33330018E+04</pdfrwt>
<pdfrwt beam="2">  1       -1 0.19290189E+00 0.33330018E+04</pdfrwt>
<totfact> 0.80875710E-01</totfact>
</mgrwt>
</event>
<event>
12    6  0.1611689E-007  0.2359606E+04  0.7818608E-02  0.8454783E-01
         -3   -1    0    0    0  501 -0.00000000000E+00  0.00000000000E+00  0.14526905348E+04  0.14526905348E+04  0.00000000000E+00 0.  1.
          4   -1    0    0  501    0  0.00000000000E+00 -0.00000000000E+00 -0.95817728919E+03  0.95817728919E+03  0.00000000000E+00 0. -1.
         24    2    1    2    0    0 -0.18759552563E+03 -0.91292625342E+03  0.59247579565E+03  0.11073104530E+04  0.80513635405E+02 0.  0.
        254    2    1    2    0    0  0.18759552563E+03  0.91292625342E+03 -0.97962550056E+02  0.13035573710E+04  0.90611187653E+03 0.  0.
         23    2    4    4    0    0 -0.29955930983E+03  0.63919617768E+03 -0.17217868419E+03  0.73240984547E+03  0.92038843932E+02 0.  0.
         23    2    4    4    0    0  0.48715483546E+03  0.27373007574E+03  0.74216134130E+02  0.57114752550E+03  0.91942771544E+02 0.  0.
          4    1    3    3  502    0 -0.70673019305E+02 -0.32175096803E+03  0.16477145030E+03  0.36833136157E+03  0.00000000000E+00 0. -1.
         -3    1    3    3    0  502 -0.11692250632E+03 -0.59117528539E+03  0.42770434535E+03  0.73897909143E+03  0.00000000000E+00 0.  1.
         11    1    5    5    0    0 -0.19856983029E+03  0.48113276968E+03 -0.15959790833E+03  0.54441731411E+03  0.00000000000E+00 0.  1.
        -11    1    5    5    0    0 -0.10098947954E+03  0.15806340800E+03 -0.12580775851E+02  0.18799253136E+03  0.00000000000E+00 0. -1.
          1    1    6    6  503    0  0.23341940653E+03  0.79304126787E+02  0.26467828141E+02  0.24794013350E+03  0.00000000000E+00 0. -1.
         -1    1    6    6    0  503  0.25373542893E+03  0.19442594895E+03  0.47748305989E+02  0.32320739200E+03  0.00000000000E+00 0.  1.
<mgrwt>
<rscale>  0 0.23596060E+04</rscale>
<asrwt>0</asrwt>
<pdfrwt beam="1">  1        4 0.14741189E+00 0.23596060E+04</pdfrwt>
<pdfrwt beam="2">  1       -3 0.22349085E+00 0.23596060E+04</pdfrwt>
<totfact> 0.67376554E-02</totfact>
</mgrwt>
</event>
<event>
12    6  0.1611689E-007  0.2016092E+04  0.7818608E-02  0.8599134E-01
          2   -1    0    0  501    0  0.00000000000E+00  0.00000000000E+00  0.28246815982E+04  0.28246815982E+04  0.00000000000E+00 0. -1.
         -1   -1    0    0    0  501 -0.00000000000E+00 -0.00000000000E+00 -0.35974219056E+03  0.35974219056E+03  0.00000000000E+00 0.  1.
         24    2    1    2    0    0  0.61227611814E+03  0.50805556611E+03  0.11636384678E+04  0.14118288211E+04  0.78763146527E+02 0.  0.
        254    2    1    2    0    0 -0.61227611814E+03 -0.50805556611E+03  0.13013009398E+04  0.17725949677E+04  0.90316459201E+03 0.  0.
         23    2    4    4    0    0  0.16754882044E+03 -0.26998525081E+03  0.63374319937E+03  0.71490349332E+03  0.92151609448E+02 0.  0.
         23    2    4    4    0    0 -0.77982493858E+03 -0.23807031529E+03  0.66755774047E+03  0.10576914743E+04  0.90958826829E+02 0.  0.
          4    1    3    3  502    0  0.55606254155E+03  0.48360004037E+03  0.10939392264E+04  0.13190062851E+04  0.00000000000E+00 0. -1.
         -3    1    3    3    0  502  0.56213576588E+02  0.24455525732E+02  0.69699241409E+02  0.92822535974E+02  0.00000000000E+00 0.  1.
         11    1    5    5    0    0  0.76955970209E+02 -0.90018416894E+02  0.15174976082E+03  0.19249292620E+03  0.00000000000E+00 0. -1.
        -11    1    5    5    0    0  0.90592850233E+02 -0.17996683392E+03  0.48199343855E+03  0.52241056711E+03  0.00000000000E+00 0.  1.
          2    1    6    6  503    0 -0.28402152954E+03 -0.63134489035E+02  0.19061419134E+03  0.34783324006E+03  0.00000000000E+00 0.  1.
         -2    1    6    6    0  503 -0.49580340903E+03 -0.17493582626E+03  0.47694354913E+03  0.70985823428E+03  0.00000000000E+00 0. -1.
<mgrwt>
<rscale>  0 0.20160924E+04</rscale>
<asrwt>0</asrwt>
<pdfrwt beam="1">  1        2 0.43456638E+00 0.20160924E+04</pdfrwt>
<pdfrwt beam="2">  1       -1 0.55344954E-01 0.20160924E+04</pdfrwt>
<totfact> 0.77993878E+00</totfact>
</mgrwt>
</event>
<event>
12    6  0.1611689E-007  0.3329818E+04  0.7818608E-02  0.8155349E-01
          2   -1    0    0  501    0  0.00000000000E+00  0.00000000000E+00  0.19474643329E+04  0.19474643329E+04  0.00000000000E+00 0. -1.
         -1   -1    0    0    0  501 -0.00000000000E+00 -0.00000000000E+00 -0.14233495563E+04  0.14233495563E+04  0.00000000000E+00 0.  1.
         24    2    1    2    0    0  0.52014173841E+03  0.32676938103E+03 -0.11887115240E+04  0.13403624498E+04  0.78808332553E+02 0.  0.
        254    2    1    2    0    0 -0.52014173841E+03 -0.32676938103E+03  0.17128263005E+04  0.20304514394E+04  0.90090701834E+03 0.  0.
         23    2    4    4    0    0 -0.73476362496E+03 -0.12700918729E+03  0.97531701400E+03  0.12311069182E+04  0.91498896724E+02 0.  0.
         23    2    4    4    0    0  0.21462188655E+03 -0.19976019373E+03  0.73750928655E+03  0.79934452122E+03  0.95210433583E+02 0.  0.
          4    1    3    3  502    0  0.29589032671E+03  0.17770002529E+03 -0.58329912491E+03  0.67776563320E+03  0.00000000000E+00 0. -1.
         -3    1    3    3    0  502  0.22425141170E+03  0.14906935574E+03 -0.60541239905E+03  0.66259681662E+03  0.00000000000E+00 0.  1.
         11    1    5    5    0    0 -0.11634245059E+02 -0.83570087042E+01  0.42670973325E+02  0.45011189909E+02  0.00000000000E+00 0. -1.
        -11    1    5    5    0    0 -0.72312937990E+03 -0.11865217859E+03  0.93264604068E+03  0.11860957283E+04  0.00000000000E+00 0.  1.
          1    1    6    6  503    0 -0.33514110117E+01  0.70313952991E+01  0.20282095493E+02  0.21726386566E+02  0.00000000000E+00 0. -1.
         -1    1    6    6    0  503  0.21797329756E+03 -0.20679158903E+03  0.71722719106E+03  0.77761813465E+03  0.00000000000E+00 0.  1.
<mgrwt>
<rscale>  0 0.33298183E+04</rscale>
<asrwt>0</asrwt>
<pdfrwt beam="1">  1        2 0.29960990E+00 0.33298183E+04</pdfrwt>
<pdfrwt beam="2">  1       -1 0.21897685E+00 0.33298183E+04</pdfrwt>
<totfact> 0.75728686E-01</totfact>
</mgrwt>
</event>
<event>
12    6  0.1611689E-007  0.1663403E+04  0.7818608E-02  0.8782517E-01
          2   -1    0    0  501    0  0.00000000000E+00  0.00000000000E+00  0.47853788686E+03  0.47853788686E+03  0.00000000000E+00 0. -1.
         -1   -1    0    0    0  501 -0.00000000000E+00 -0.00000000000E+00 -0.14455014493E+04  0.14455014493E+04  0.00000000000E+00 0.  1.
         24    2    1    2    0    0 -0.33867803604E+03  0.42198085298E+03 -0.58398482750E+03  0.80001745573E+03  0.78860626090E+02 0.  0.
        254    2    1    2    0    0  0.33867803604E+03 -0.42198085298E+03 -0.38297873499E+03  0.11240218805E+04  0.90773444572E+03 0.  0.
         23    2    4    4    0    0  0.14299485341E+02 -0.43774132702E+03 -0.58115751302E+03  0.73345745251E+03  0.91617875147E+02 0.  0.
         23    2    4    4    0    0  0.32437855070E+03  0.15760474042E+02  0.19817877802E+03  0.39056442796E+03  0.88294437177E+02 0.  0.
          2    1    3    3  502    0 -0.13780511106E+03  0.23356311815E+03 -0.27885766817E+03  0.38897760590E+03  0.00000000000E+00 0. -1.
         -1    1    3    3    0  502 -0.20087292498E+03  0.18841773482E+03 -0.30512715933E+03  0.41103984983E+03  0.00000000000E+00 0.  1.
         11    1    5    5    0    0 -0.35649311041E+02 -0.10916021179E+03 -0.16043081314E+03  0.19729386970E+03  0.00000000000E+00 0.  1.
        -11    1    5    5    0    0  0.49948796381E+02 -0.32858111523E+03 -0.42072669988E+03  0.53616358281E+03  0.00000000000E+00 0. -1.
          2    1    6    6  503    0  0.38707302429E+02  0.68419411737E+00  0.63517964363E+02  0.74385853358E+02  0.00000000000E+00 0. -1.
         -2    1    6    6    0  503  0.28567124827E+03  0.15076279925E+02  0.13466081366E+03  0.31617857461E+03  0.00000000000E+00 0.  1.
<mgrwt>
<rscale>  0 0.16634028E+04</rscale>
<asrwt>0</asrwt>
<pdfrwt beam="1">  1        2 0.73621214E-01 0.16634028E+04</pdfrwt>
<pdfrwt beam="2">  1       -1 0.22238484E+00 0.16634028E+04</pdfrwt>
<totfact> 0.74974149E+00</totfact>
</mgrwt>
</event>
<event>
12    6  0.1611689E-007  0.1838915E+04  0.7818608E-02  0.8685874E-01
          2   -1    0    0  501    0  0.00000000000E+00  0.00000000000E+00  0.16927810139E+04  0.16927810139E+04  0.00000000000E+00 0. -1.
         -1   -1    0    0    0  501 -0.00000000000E+00 -0.00000000000E+00 -0.49941636972E+03  0.49941636972E+03  0.00000000000E+00 0.  1.
         24    2    1    2    0    0  0.26579219884E+02  0.27220306887E+03 -0.31112922849E+03  0.42196416676E+03  0.80320580035E+02 0.  0.
        254    2    1    2    0    0 -0.26579219884E+02 -0.27220306887E+03  0.15044938727E+04  0.17702332169E+04  0.89186482356E+03 0.  0.
         23    2    4    4    0    0  0.41840852523E+03 -0.10664333751E+03  0.60021974770E+03  0.74491257443E+03  0.90512444440E+02 0.  0.
         23    2    4    4    0    0 -0.44498774511E+03 -0.16555973136E+03  0.90427412501E+03  0.10253206425E+04  0.90258565983E+02 0.  0.
          2    1    3    3  502    0 -0.23869920536E+02  0.68709410924E+02 -0.56334293028E+02  0.92001678392E+02  0.00000000000E+00 0. -1.
         -1    1    3    3    0  502  0.50449140420E+02  0.20349365795E+03 -0.25479493546E+03  0.32996248837E+03  0.00000000000E+00 0.  1.
         11    1    5    5    0    0  0.36446790294E+03 -0.12283422518E+03  0.53154359484E+03  0.65609731928E+03  0.00000000000E+00 0. -1.
        -11    1    5    5    0    0  0.53940622290E+02  0.16190887667E+02  0.68676152851E+02  0.88815255148E+02  0.00000000000E+00 0.  1.
          2    1    6    6  503    0 -0.77704195888E+02 -0.41613741010E+01  0.10162613245E+03  0.12799660109E+03  0.00000000000E+00 0. -1.
         -2    1    6    6    0  503 -0.36728354922E+03 -0.16139835726E+03  0.80264799256E+03  0.89732404137E+03  0.00000000000E+00 0.  1.
<mgrwt>
<rscale>  0 0.18389155E+04</rscale>
<asrwt>0</asrwt>
<pdfrwt beam="1">  1        2 0.26042785E+00 0.18389155E+04</pdfrwt>
<pdfrwt beam="2">  1       -1 0.76833288E-01 0.18389155E+04</pdfrwt>
<totfact> 0.18031702E+01</totfact>
</mgrwt>
</event>
<event>
12    6  0.1611689E-007  0.2023718E+04  0.7818608E-02  0.8595611E-01
          2   -1    0    0  501    0  0.00000000000E+00  0.00000000000E+00  0.66277282114E+03  0.66277282114E+03  0.00000000000E+00 0. -1.
         -1   -1    0    0    0  501 -0.00000000000E+00 -0.00000000000E+00 -0.15448103763E+04  0.15448103763E+04  0.00000000000E+00 0.  1.
         24    2    1    2    0    0  0.72925093405E+03  0.16018938223E+03 -0.71048089672E+03  0.10334867973E+04  0.76447973543E+02 0.  0.
        254    2    1    2    0    0 -0.72925093405E+03 -0.16018938223E+03 -0.17155665840E+03  0.11740964001E+04  0.88972080263E+03 0.  0.
         23    2    4    4    0    0  0.10901514891E+03  0.14653378265E+03 -0.18685129383E+03  0.27670062156E+03  0.91067973602E+02 0.  0.
         23    2    4    4    0    0 -0.83826608295E+03 -0.30672316488E+03  0.15294635433E+02  0.89739577851E+03  0.91192827123E+02 0.  0.
          2    1    3    3  502    0  0.48480084938E+03  0.13340098652E+03 -0.44286592385E+03  0.67004321747E+03  0.00000000000E+00 0. -1.
         -1    1    3    3    0  502  0.24445008467E+03  0.26788395708E+02 -0.26761497287E+03  0.36344357986E+03  0.00000000000E+00 0.  1.
         11    1    5    5    0    0  0.22763942494E+02  0.96524820877E+01  0.55249388380E+01  0.25335596252E+02  0.00000000000E+00 0. -1.
        -11    1    5    5    0    0  0.86251206412E+02  0.13688130056E+03 -0.19237623267E+03  0.25136502530E+03  0.00000000000E+00 0.  1.
          3    1    6    6  503    0 -0.35393900773E+03 -0.13010954441E+03  0.51527113430E+02  0.38059999758E+03  0.00000000000E+00 0. -1.
         -3    1    6    6    0  503 -0.48432707522E+03 -0.17661362047E+03 -0.36232477997E+02  0.51679578093E+03  0.00000000000E+00 0.  1.
<mgrwt>
<rscale>  0 0.20237177E+04</rscale>
<asrwt>0</asrwt>
<pdfrwt beam="1">  1        2 0.10196505E+00 0.20237177E+04</pdfrwt>
<pdfrwt beam="2">  1       -1 0.23766313E+00 0.20237177E+04</pdfrwt>
<totfact> 0.39023296E+00</totfact>
</mgrwt>
</event>
<event>
12    6  0.1611689E-007  0.1851166E+04  0.7818608E-02  0.8679553E-01
          2   -1    0    0  501    0  0.00000000000E+00  0.00000000000E+00  0.29718708997E+04  0.29718708997E+04  0.00000000000E+00 0. -1.
         -1   -1    0    0    0  501 -0.00000000000E+00 -0.00000000000E+00 -0.28827090207E+03  0.28827090207E+03  0.00000000000E+00 0.  1.
         24    2    1    2    0    0 -0.46290286639E+02 -0.73549184712E+03  0.14904362253E+04  0.16645666124E+04  0.79314674287E+02 0.  0.
        254    2    1    2    0    0  0.46290286639E+02  0.73549184712E+03  0.11931637724E+04  0.15955751894E+04  0.76100548593E+03 0.  0.
         23    2    4    4    0    0 -0.48854028296E+01  0.70055617392E+02 -0.90093548209E+02  0.14632688695E+03  0.91449733337E+02 0.  0.
         23    2    4    4    0    0  0.51175689469E+02  0.66543622973E+03  0.12832573206E+04  0.14492483025E+04  0.90260536142E+02 0.  0.
          2    1    3    3  502    0 -0.34188076607E+02 -0.71209207721E+03  0.14109786386E+04  0.15808556764E+04  0.00000000000E+00 0. -1.
         -1    1    3    3    0  502 -0.12102210033E+02 -0.23399769912E+02  0.79457586724E+02  0.83710936010E+02  0.00000000000E+00 0.  1.
         11    1    5    5    0    0 -0.28268479215E+02 -0.10917429696E+02 -0.31291269228E+02  0.43559622567E+02  0.00000000000E+00 0. -1.
        -11    1    5    5    0    0  0.23383076385E+02  0.80973047088E+02 -0.58802278981E+02  0.10276726439E+03  0.00000000000E+00 0.  1.
          2    1    6    6  503    0  0.22658159846E+02  0.21387121696E+03  0.50735204210E+03  0.55105388510E+03  0.00000000000E+00 0.  1.
         -2    1    6    6    0  503  0.28517529623E+02  0.45156501276E+03  0.77590527850E+03  0.89819441740E+03  0.00000000000E+00 0. -1.
<mgrwt>
<rscale>  0 0.18511660E+04</rscale>
<asrwt>0</asrwt>
<pdfrwt beam="1">  1        2 0.45721089E+00 0.18511660E+04</pdfrwt>
<pdfrwt beam="2">  1       -1 0.44349372E-01 0.18511660E+04</pdfrwt>
<totfact> 0.97985081E+00</totfact>
</mgrwt>
</event>
<event>
12    6  0.1611689E-007  0.3790905E+04  0.7818608E-02  0.8048109E-01
         -1   -1    0    0    0  501 -0.00000000000E+00  0.00000000000E+00  0.29451701056E+04  0.29451701056E+04  0.00000000000E+00 0.  1.
          2   -1    0    0  501    0  0.00000000000E+00 -0.00000000000E+00 -0.12198754562E+04  0.12198754562E+04  0.00000000000E+00 0. -1.
         24    2    1    2    0    0  0.15024032906E+04 -0.77848967190E+01 -0.24798412753E+03  0.15248997041E+04  0.80911852666E+02 0.  0.
        254    2    1    2    0    0 -0.15024032906E+04  0.77848967190E+01  0.19732787770E+04  0.26401458577E+04  0.90513245757E+03 0.  0.
         23    2    4    4    0    0  0.93824230262E+02  0.58041973123E+02  0.25176683051E+03  0.29024583478E+03  0.93189327917E+02 0.  0.
         23    2    4    4    0    0 -0.15962275209E+04 -0.50257076404E+02  0.17215119465E+04  0.23499000229E+04  0.89211341776E+02 0.  0.
          2    1    3    3  502    0  0.35616121745E+03  0.63595588624E+00 -0.93776336489E+02  0.36830044603E+03  0.00000000000E+00 0. -1.
         -1    1    3    3    0  502  0.11462420732E+04 -0.84208526053E+01 -0.15420779104E+03  0.11565992581E+04  0.00000000000E+00 0.  1.
         11    1    5    5    0    0  0.95902370144E+02  0.75843374218E+02  0.23827029817E+03  0.26781003902E+03  0.00000000000E+00 0. -1.
        -11    1    5    5    0    0 -0.20781398815E+01 -0.17801401094E+02  0.13496532338E+02  0.22435795761E+02  0.00000000000E+00 0.  1.
          2    1    6    6  503    0 -0.15810951027E+04 -0.47565768485E+02  0.17153086483E+04  0.23333255206E+04  0.00000000000E+00 0. -1.
         -2    1    6    6    0  503 -0.15132418151E+02 -0.26913079197E+01  0.62032982113E+01  0.16574502288E+02  0.00000000000E+00 0.  1.
<mgrwt>
<rscale>  0 0.37909053E+04</rscale>
<asrwt>0</asrwt>
<pdfrwt beam="1">  1        2 0.18767315E+00 0.37909053E+04</pdfrwt>
<pdfrwt beam="2">  1       -1 0.45310309E+00 0.37909053E+04</pdfrwt>
<totfact> 0.51880420E-02</totfact>
</mgrwt>
</event>
<event>
12    6  0.1611689E-007  0.1857169E+04  0.7818608E-02  0.8676475E-01
         -1   -1    0    0    0  501 -0.00000000000E+00  0.00000000000E+00  0.41879069919E+03  0.41879069919E+03  0.00000000000E+00 0.  1.
          2   -1    0    0  501    0  0.00000000000E+00 -0.00000000000E+00 -0.20589497793E+04  0.20589497793E+04  0.00000000000E+00 0. -1.
         24    2    1    2    0    0  0.53682503499E+03  0.32439145780E+02 -0.10700831472E+02  0.54371007017E+03  0.79200481261E+02 0.  0.
        254    2    1    2    0    0 -0.53682503499E+03 -0.32439145780E+02 -0.16294582487E+04  0.19340304084E+04  0.89224773462E+03 0.  0.
         23    2    4    4    0    0  0.12628508540E+03  0.23536525285E+03 -0.72429449687E+03  0.77705842292E+03  0.88727388029E+02 0.  0.
         23    2    4    4    0    0 -0.66311012040E+03 -0.26780439863E+03 -0.90516375180E+03  0.11569719854E+04  0.88478979583E+02 0.  0.
          2    1    3    3  502    0  0.82536407499E+02  0.34085626928E+02 -0.32742413092E+01  0.89357759495E+02  0.00000000000E+00 0. -1.
         -1    1    3    3    0  502  0.45428862750E+03 -0.16464811481E+01 -0.74265901632E+01  0.45435231067E+03  0.00000000000E+00 0.  1.
         11    1    5    5    0    0  0.99362016522E+02  0.11445380070E+03 -0.47653461893E+03  0.50005772253E+03  0.00000000000E+00 0.  1.
        -11    1    5    5    0    0  0.26923068882E+02  0.12091145215E+03 -0.24775987794E+03  0.27700070039E+03  0.00000000000E+00 0. -1.
          3    1    6    6  503    0 -0.68221063387E+02 -0.53486265002E+02 -0.13576163942E+03  0.16107798351E+03  0.00000000000E+00 0. -1.
         -3    1    6    6    0  503 -0.59488905701E+03 -0.21431813363E+03 -0.76940211238E+03  0.99589400194E+03  0.00000000000E+00 0.  1.
<mgrwt>
<rscale>  0 0.18571688E+04</rscale>
<asrwt>0</asrwt>
<pdfrwt beam="1">  1        2 0.31676150E+00 0.18571688E+04</pdfrwt>
<pdfrwt beam="2">  1       -1 0.64429339E-01 0.18571688E+04</pdfrwt>
<totfact> 0.16193296E+01</totfact>
</mgrwt>
</event>
<event>
12    6  0.1611689E-007  0.2423106E+04  0.7818608E-02  0.8430903E-01
          2   -1    0    0  501    0  0.00000000000E+00  0.00000000000E+00  0.21810752500E+04  0.21810752500E+04  0.00000000000E+00 0. -1.
         -1   -1    0    0    0  501 -0.00000000000E+00 -0.00000000000E+00 -0.67299861843E+03  0.67299861843E+03  0.00000000000E+00 0.  1.
         24    2    1    2    0    0 -0.56615469399E+03  0.79374692061E+02  0.16777981303E+04  0.17743331750E+04  0.80125966941E+02 0.  0.
        254    2    1    2    0    0  0.56615469399E+03 -0.79374692061E+02 -0.16972149870E+03  0.10797406935E+04  0.90011282556E+03 0.  0.
         23    2    4    4    0    0  0.21169590604E+03 -0.47331825662E+03 -0.11528223704E+03  0.53898507321E+03  0.91485443020E+02 0.  0.
         23    2    4    4    0    0  0.35445878796E+03  0.39394356456E+03 -0.54439261661E+02  0.54075562026E+03  0.92846341975E+02 0.  0.
          4    1    3    3  502    0 -0.37048935915E+03  0.34181591656E+02  0.11902616159E+04  0.12470579220E+04  0.00000000000E+00 0. -1.
         -3    1    3    3    0  502 -0.19566533485E+03  0.45193100405E+02  0.48753651440E+03  0.52727525303E+03  0.00000000000E+00 0.  1.
         11    1    5    5    0    0  0.10948833142E+02 -0.76767000025E+02  0.73993483773E+01  0.77896082035E+02  0.00000000000E+00 0.  1.
        -11    1    5    5    0    0  0.20074707289E+03 -0.39655125659E+03 -0.12268158541E+03  0.46108899117E+03  0.00000000000E+00 0. -1.
          1    1    6    6  503    0  0.14191768711E+03  0.11011770167E+03  0.11880871970E+02  0.18002136889E+03  0.00000000000E+00 0. -1.
         -1    1    6    6    0  503  0.21254110085E+03  0.28382586288E+03 -0.66320133631E+02  0.36073425137E+03  0.00000000000E+00 0.  1.
<mgrwt>
<rscale>  0 0.24231060E+04</rscale>
<asrwt>0</asrwt>
<pdfrwt beam="1">  1        2 0.33555003E+00 0.24231060E+04</pdfrwt>
<pdfrwt beam="2">  1       -1 0.10353825E+00 0.24231060E+04</pdfrwt>
<totfact> 0.47526597E+00</totfact>
</mgrwt>
</event>
<event>
12    6  0.1611689E-007  0.1576983E+04  0.7818608E-02  0.8834814E-01
         -1   -1    0    0    0  501 -0.00000000000E+00  0.00000000000E+00  0.37214609495E+03  0.37214609495E+03  0.00000000000E+00 0.  1.
          2   -1    0    0  501    0  0.00000000000E+00 -0.00000000000E+00 -0.16706319557E+04  0.16706319557E+04  0.00000000000E+00 0. -1.
         24    2    1    2    0    0  0.22798170752E+03 -0.38121473482E+03 -0.81441443559E+03  0.93099261496E+03  0.78587805712E+02 0.  0.
        254    2    1    2    0    0 -0.22798170752E+03  0.38121473482E+03 -0.48407142517E+03  0.11117854357E+04  0.89690655999E+03 0.  0.
         23    2    4    4    0    0 -0.12979169922E+01  0.63917255088E+03 -0.31168873113E+03  0.71689250291E+03  0.90784146392E+02 0.  0.
         23    2    4    4    0    0 -0.22668379052E+03 -0.25795781606E+03 -0.17238269404E+03  0.39489293278E+03  0.91087097923E+02 0.  0.
          4    1    3    3  502    0  0.22365851165E+03 -0.36319610258E+03 -0.80292927296E+03  0.90919192481E+03  0.00000000000E+00 0. -1.
         -3    1    3    3    0  502  0.43231958630E+01 -0.18018632239E+02 -0.11485162623E+02  0.21800690144E+02  0.00000000000E+00 0.  1.
         11    1    5    5    0    0  0.59973984933E+01 -0.30465037294E+00 -0.19516878603E+01  0.63143238784E+01  0.00000000000E+00 0.  1.
        -11    1    5    5    0    0 -0.72953154855E+01  0.63947720125E+03 -0.30973704327E+03  0.71057817904E+03  0.00000000000E+00 0. -1.
          2    1    6    6  503    0 -0.77178432394E+02 -0.14226404088E+03 -0.11052349250E+03  0.19598727037E+03  0.00000000000E+00 0.  1.
         -2    1    6    6    0  503 -0.14950535813E+03 -0.11569377518E+03 -0.61859201538E+02  0.19890566241E+03  0.00000000000E+00 0. -1.
<mgrwt>
<rscale>  0 0.15769834E+04</rscale>
<asrwt>0</asrwt>
<pdfrwt beam="1">  1        2 0.25702030E+00 0.15769834E+04</pdfrwt>
<pdfrwt beam="2">  1       -1 0.57253246E-01 0.15769834E+04</pdfrwt>
<totfact> 0.34426587E+01</totfact>
</mgrwt>
</event>
<event>
12    6  0.1611689E-007  0.1218616E+04  0.7818608E-02  0.9096716E-01
          2   -1    0    0  501    0  0.00000000000E+00  0.00000000000E+00  0.15192497062E+03  0.15192497062E+03  0.00000000000E+00 0. -1.
         -1   -1    0    0    0  501 -0.00000000000E+00 -0.00000000000E+00 -0.24436825906E+04  0.24436825906E+04  0.00000000000E+00 0.  1.
         24    2    1    2    0    0  0.54787630102E+02 -0.12154309997E+03 -0.29879971383E+02  0.15834092437E+03  0.80028907777E+02 0.  0.
        254    2    1    2    0    0 -0.54787630102E+02  0.12154309997E+03 -0.22618776486E+04  0.24372666368E+04  0.89799986210E+03 0.  0.
         23    2    4    4    0    0 -0.72271431246E+02 -0.13935272298E+03 -0.25909706781E+02  0.18424593739E+03  0.92913461676E+02 0.  0.
         23    2    4    4    0    0  0.17483801144E+02  0.26089582295E+03 -0.22359679418E+04  0.22530206994E+04  0.90428544550E+02 0.  0.
          2    1    3    3  502    0 -0.16093900707E+02 -0.37690597723E+02  0.88234048608E+01  0.41921918730E+02  0.00000000000E+00 0. -1.
         -3    1    3    3    0  502  0.70881530809E+02 -0.83852502244E+02 -0.38703376244E+02  0.11641900564E+03  0.00000000000E+00 0.  1.
         11    1    5    5    0    0 -0.83513010405E+02 -0.61434300897E+02 -0.13578380354E+02  0.10456083706E+03  0.00000000000E+00 0.  1.
        -11    1    5    5    0    0  0.11241579159E+02 -0.77918422088E+02 -0.12331326427E+02  0.79685100327E+02  0.00000000000E+00 0. -1.
          1    1    6    6  503    0 -0.18891158980E+02  0.14354460903E+03 -0.14882985259E+04  0.14953241899E+04  0.00000000000E+00 0. -1.
         -1    1    6    6    0  503  0.36374960124E+02  0.11735121393E+03 -0.74766941585E+03  0.75769650951E+03  0.00000000000E+00 0.  1.
<mgrwt>
<rscale>  0 0.12186163E+04</rscale>
<asrwt>0</asrwt>
<pdfrwt beam="1">  1        2 0.23373071E-01 0.12186163E+04</pdfrwt>
<pdfrwt beam="2">  1       -1 0.37595120E+00 0.12186163E+04</pdfrwt>
<totfact> 0.28329264E+00</totfact>
</mgrwt>
</event>
<event>
12    6  0.1611689E-007  0.1418115E+04  0.7818608E-02  0.8940809E-01
          2   -1    0    0  501    0  0.00000000000E+00  0.00000000000E+00  0.17042725885E+04  0.17042725885E+04  0.00000000000E+00 0. -1.
         -1   -1    0    0    0  501 -0.00000000000E+00 -0.00000000000E+00 -0.29500133623E+03  0.29500133623E+03  0.00000000000E+00 0.  1.
         24    2    1    2    0    0 -0.25620863599E+03 -0.20462957468E+03  0.53855108027E+02  0.34178134674E+03  0.79987426058E+02 0.  0.
        254    2    1    2    0    0  0.25620863599E+03  0.20462957468E+03  0.13554161442E+04  0.16574925780E+04  0.89588648500E+03 0.  0.
         23    2    4    4    0    0  0.77177196850E+02 -0.11070073402E+03 -0.75088001819E+02  0.17917966839E+03  0.90863487269E+02 0.  0.
         23    2    4    4    0    0  0.17903143914E+03  0.31533030871E+03  0.14305041460E+04  0.14783129096E+04  0.87071734807E+02 0.  0.
          2    1    3    3  502    0 -0.82754196622E+02 -0.48499545437E+02  0.50463153173E+02  0.10838354485E+03  0.00000000000E+00 0. -1.
         -1    1    3    3    0  502 -0.17345443937E+03 -0.15613002925E+03  0.33919548546E+01  0.23339780189E+03  0.00000000000E+00 0.  1.
         11    1    5    5    0    0  0.56088380337E+02 -0.11181455977E+02 -0.90709600751E+01  0.57906939854E+02  0.00000000000E+00 0. -1.
        -11    1    5    5    0    0  0.21088816513E+02 -0.99519278047E+02 -0.66017041744E+02  0.12127272853E+03  0.00000000000E+00 0.  1.
          1    1    6    6  503    0  0.89015836051E+02  0.15750087970E+03  0.88637700358E+03  0.90465161175E+03  0.00000000000E+00 0. -1.
         -1    1    6    6    0  503  0.90015603091E+02  0.15782942901E+03  0.54412714245E+03  0.57366129782E+03  0.00000000000E+00 0.  1.
<mgrwt>
<rscale>  0 0.14181152E+04</rscale>
<asrwt>0</asrwt>
<pdfrwt beam="1">  1        2 0.26219578E+00 0.14181152E+04</pdfrwt>
<pdfrwt beam="2">  1       -1 0.45384822E-01 0.14181152E+04</pdfrwt>
<totfact> 0.52058032E+01</totfact>
</mgrwt>
</event>
<event>
12    6  0.1611689E-007  0.1472612E+04  0.7818608E-02  0.8902873E-01
          2   -1    0    0  501    0  0.00000000000E+00  0.00000000000E+00  0.65538624417E+03  0.65538624417E+03  0.00000000000E+00 0. -1.
         -1   -1    0    0    0  501 -0.00000000000E+00 -0.00000000000E+00 -0.82721706452E+03  0.82721706452E+03  0.00000000000E+00 0.  1.
         24    2    1    2    0    0 -0.21096489137E+02 -0.41127243506E+03  0.15119089887E+03  0.44573132069E+03  0.78915427208E+02 0.  0.
        254    2    1    2    0    0  0.21096489137E+02  0.41127243506E+03 -0.32302171922E+03  0.10368719880E+04  0.89508123136E+03 0.  0.
         23    2    4    4    0    0 -0.18762879664E+03 -0.22417708472E+03 -0.56465582633E+02  0.31113828997E+03  0.90325759451E+02 0.  0.
         23    2    4    4    0    0  0.20872528578E+03  0.63544951978E+03 -0.26655613658E+03  0.72573369803E+03  0.90966419072E+02 0.  0.
          2    1    3    3  502    0  0.69862501609E+01 -0.28645406377E+03  0.13507862253E+03  0.31678221636E+03  0.00000000000E+00 0. -1.
         -1    1    3    3    0  502 -0.28082739298E+02 -0.12481837129E+03  0.16112276344E+02  0.12894910433E+03  0.00000000000E+00 0.  1.
         11    1    5    5    0    0 -0.15353580452E+03 -0.22428977280E+03 -0.52276917475E+02  0.27678876703E+03  0.00000000000E+00 0. -1.
        -11    1    5    5    0    0 -0.34092992126E+02  0.11268807941E+00 -0.41886651573E+01  0.34349522944E+02  0.00000000000E+00 0.  1.
          2    1    6    6  503    0  0.34818617906E+02  0.34749881242E+02 -0.26491273925E+02  0.55871978606E+02  0.00000000000E+00 0.  1.
         -2    1    6    6    0  503  0.17390666787E+03  0.60069963854E+03 -0.24006486266E+03  0.66986171943E+03  0.00000000000E+00 0. -1.
<mgrwt>
<rscale>  0 0.14726122E+04</rscale>
<asrwt>0</asrwt>
<pdfrwt beam="1">  1        2 0.10082865E+00 0.14726122E+04</pdfrwt>
<pdfrwt beam="2">  1       -1 0.12726416E+00 0.14726122E+04</pdfrwt>
<totfact> 0.26344706E+01</totfact>
</mgrwt>
</event>
<event>
12    6  0.1611689E-007  0.2671048E+04  0.7818608E-02  0.8344460E-01
          2   -1    0    0  501    0  0.00000000000E+00  0.00000000000E+00  0.18077799256E+04  0.18077799256E+04  0.00000000000E+00 0. -1.
         -1   -1    0    0    0  501 -0.00000000000E+00 -0.00000000000E+00 -0.98663789186E+03  0.98663789186E+03  0.00000000000E+00 0.  1.
         24    2    1    2    0    0 -0.41715377014E+03  0.10463926592E+04 -0.15091594268E+02  0.11295768257E+04  0.82226417238E+02 0.  0.
        254    2    1    2    0    0  0.41715377014E+03 -0.10463926592E+04  0.83623362802E+03  0.16648409918E+04  0.89635594601E+03 0.  0.
         23    2    4    4    0    0  0.54997164199E+03 -0.30080633355E+03  0.18464362196E+03  0.66088903261E+03  0.98629554400E+02 0.  0.
         23    2    4    4    0    0 -0.13281787185E+03 -0.74558632570E+03  0.65159000606E+03  0.10039519592E+04  0.99047686137E+02 0.  0.
          4    1    3    3  502    0 -0.37948521341E+03  0.10006201713E+04 -0.12366421934E+02  0.10702348728E+04  0.00000000000E+00 0. -1.
         -3    1    3    3    0  502 -0.37668556722E+02  0.45772487912E+02 -0.27251723341E+01  0.59341952946E+02  0.00000000000E+00 0.  1.
         11    1    5    5    0    0  0.22510159899E+02 -0.20526900180E+02  0.32431656019E+02  0.44495766561E+02  0.00000000000E+00 0. -1.
        -11    1    5    5    0    0  0.52746148209E+03 -0.28027943337E+03  0.15221196594E+03  0.61639326605E+03  0.00000000000E+00 0.  1.
          1    1    6    6  503    0 -0.14316912464E+02 -0.12117668485E+03  0.61273892725E+02  0.13654029758E+03  0.00000000000E+00 0. -1.
         -1    1    6    6    0  503 -0.11850095939E+03 -0.62440964085E+03  0.59031611334E+03  0.86741166157E+03  0.00000000000E+00 0.  1.
<mgrwt>
<rscale>  0 0.26710479E+04</rscale>
<asrwt>0</asrwt>
<pdfrwt beam="1">  1        2 0.27811999E+00 0.26710479E+04</pdfrwt>
<pdfrwt beam="2">  1       -1 0.15179045E+00 0.26710479E+04</pdfrwt>
<totfact> 0.28891046E+00</totfact>
</mgrwt>
</event>
<event>
12    6  0.1611689E-007  0.1511294E+04  0.7818608E-02  0.8876977E-01
          2   -1    0    0  501    0  0.00000000000E+00  0.00000000000E+00  0.28092561394E+04  0.28092561394E+04  0.00000000000E+00 0. -1.
         -1   -1    0    0    0  501 -0.00000000000E+00 -0.00000000000E+00 -0.20325755567E+03  0.20325755567E+03  0.00000000000E+00 0.  1.
         24    2    1    2    0    0  0.13697048617E+03  0.21143370700E+03  0.16413507425E+04  0.16625152544E+04  0.80371542528E+02 0.  0.
        254    2    1    2    0    0 -0.13697048617E+03 -0.21143370700E+03  0.96464784125E+03  0.13499984406E+04  0.91021162680E+03 0.  0.
         23    2    4    4    0    0  0.37118558379E+03 -0.19343344935E+03  0.44013917233E+03  0.61424929675E+03  0.91566754840E+02 0.  0.
         23    2    4    4    0    0 -0.50815606996E+03 -0.18000257649E+02  0.52450866892E+03  0.73574914389E+03  0.87583435967E+02 0.  0.
          2    1    3    3  502    0  0.12254764737E+03  0.21627256828E+03  0.15159907491E+04  0.15362355617E+04  0.00000000000E+00 0. -1.
         -3    1    3    3    0  502  0.14422838802E+02 -0.48388612764E+01  0.12535999341E+03  0.12627969277E+03  0.00000000000E+00 0.  1.
         11    1    5    5    0    0  0.16103225740E+03 -0.11001373666E+03  0.26080940929E+03  0.32566233763E+03  0.00000000000E+00 0. -1.
        -11    1    5    5    0    0  0.21015332639E+03 -0.83419712692E+02  0.17932976304E+03  0.28858695912E+03  0.00000000000E+00 0.  1.
          1    1    6    6  503    0 -0.24608674028E+03 -0.26525316801E+02  0.31190362145E+03  0.39817853439E+03  0.00000000000E+00 0. -1.
         -1    1    6    6    0  503 -0.26206932968E+03  0.85250591519E+01  0.21260504746E+03  0.33757060950E+03  0.00000000000E+00 0.  1.
<mgrwt>
<rscale>  0 0.15112942E+04</rscale>
<asrwt>0</asrwt>
<pdfrwt beam="1">  1        2 0.43219322E+00 0.15112942E+04</pdfrwt>
<pdfrwt beam="2">  1       -1 0.31270395E-01 0.15112942E+04</pdfrwt>
<totfact> 0.23925753E+01</totfact>
</mgrwt>
</event>
<event>
12    6  0.1611689E-007  0.1788662E+04  0.7818608E-02  0.8712352E-01
         -1   -1    0    0    0  501 -0.00000000000E+00  0.00000000000E+00  0.36475299583E+03  0.36475299583E+03  0.00000000000E+00 0.  1.
          2   -1    0    0  501    0  0.00000000000E+00 -0.00000000000E+00 -0.21927927451E+04  0.21927927451E+04  0.00000000000E+00 0. -1.
         24    2    1    2    0    0 -0.19529163325E+03  0.53065822724E+03 -0.22146946472E+03  0.61240382947E+03  0.79074334654E+02 0.  0.
        254    2    1    2    0    0  0.19529163325E+03 -0.53065822724E+03 -0.16065702845E+04  0.19451419115E+04  0.93955947144E+03 0.  0.
         23    2    4    4    0    0  0.30698020138E+03  0.86622577833E+02 -0.10513429225E+04  0.11024707153E+04  0.91539184828E+02 0.  0.
         23    2    4    4    0    0 -0.11168856814E+03 -0.61728080507E+03 -0.55522736206E+03  0.84267119618E+03  0.91144899637E+02 0.  0.
          4    1    3    3  502    0 -0.92312767583E+00  0.80742989107E+02 -0.35388435540E+02  0.88162485358E+02  0.00000000000E+00 0. -1.
         -3    1    3    3    0  502 -0.19436850557E+03  0.44991523813E+03 -0.18608102918E+03  0.52424134411E+03  0.00000000000E+00 0.  1.
         11    1    5    5    0    0  0.87956067745E+01 -0.17525246119E+00 -0.12794531309E+03  0.12824740369E+03  0.00000000000E+00 0. -1.
        -11    1    5    5    0    0  0.29818459461E+03  0.86797830295E+02 -0.92339760939E+03  0.97422331159E+03  0.00000000000E+00 0.  1.
          4    1    6    6  503    0  0.46609498886E+01 -0.61018360340E+02 -0.86782048313E+02  0.10618892909E+03  0.00000000000E+00 0. -1.
         -4    1    6    6    0  503 -0.11634951802E+03 -0.55626244473E+03 -0.46844531375E+03  0.73648226709E+03  0.00000000000E+00 0.  1.
<mgrwt>
<rscale>  0 0.17886618E+04</rscale>
<asrwt>0</asrwt>
<pdfrwt beam="1">  1        2 0.33735273E+00 0.17886618E+04</pdfrwt>
<pdfrwt beam="2">  1       -1 0.56115846E-01 0.17886618E+04</pdfrwt>
<totfact> 0.18025129E+01</totfact>
</mgrwt>
</event>
<event>
12    6  0.1611689E-007  0.1141131E+04  0.7818608E-02  0.9166004E-01
         -1   -1    0    0    0  501 -0.00000000000E+00  0.00000000000E+00  0.18087891951E+03  0.18087891951E+03  0.00000000000E+00 0.  1.
          2   -1    0    0  501    0  0.00000000000E+00 -0.00000000000E+00 -0.17997966002E+04  0.17997966002E+04  0.00000000000E+00 0. -1.
         24    2    1    2    0    0 -0.32976761853E+01 -0.21790415195E+03 -0.45891590722E+03  0.51410410489E+03  0.78778973517E+02 0.  0.
        254    2    1    2    0    0  0.32976761853E+01  0.21790415195E+03 -0.11600017735E+04  0.14665714149E+04  0.87047946915E+03 0.  0.
         23    2    4    4    0    0 -0.32101655564E+03 -0.17608216981E+03 -0.43154800204E+03  0.57309663101E+03  0.90274641482E+02 0.  0.
         23    2    4    4    0    0  0.32431423182E+03  0.39398632175E+03 -0.72845377147E+03  0.89347478384E+03  0.85131366142E+02 0.  0.
          4    1    3    3  502    0  0.17177919275E+02 -0.16664507867E+03 -0.27429543702E+03  0.32140885166E+03  0.00000000000E+00 0. -1.
         -3    1    3    3    0  502 -0.20475595460E+02 -0.51259073273E+02 -0.18462047020E+03  0.19269525324E+03  0.00000000000E+00 0.  1.
         11    1    5    5    0    0 -0.25007915532E+03 -0.14719675718E+03 -0.38952594306E+03  0.48573339350E+03  0.00000000000E+00 0. -1.
        -11    1    5    5    0    0 -0.70937400320E+02 -0.28885412628E+02 -0.42022058979E+02  0.87363237507E+02  0.00000000000E+00 0.  1.
          4    1    6    6  503    0  0.94151841582E+01  0.61963104389E+01 -0.14156565234E+01  0.11359755243E+02  0.00000000000E+00 0.  1.
         -4    1    6    6    0  503  0.31489904766E+03  0.38779001132E+03 -0.72703811495E+03  0.88211502860E+03  0.00000000000E+00 0. -1.
<mgrwt>
<rscale>  0 0.11411315E+04</rscale>
<asrwt>0</asrwt>
<pdfrwt beam="1">  1        2 0.27689179E+00 0.11411315E+04</pdfrwt>
<pdfrwt beam="2">  1       -1 0.27827525E-01 0.11411315E+04</pdfrwt>
<totfact> 0.11338267E+02</totfact>
</mgrwt>
</event>
<event>
12    6  0.1611689E-007  0.1234958E+04  0.7818608E-02  0.9082797E-01
         -1   -1    0    0    0  501 -0.00000000000E+00  0.00000000000E+00  0.33392075267E+03  0.33392075267E+03  0.00000000000E+00 0.  1.
          2   -1    0    0  501    0  0.00000000000E+00 -0.00000000000E+00 -0.11418278862E+04  0.11418278862E+04  0.00000000000E+00 0. -1.
         24    2    1    2    0    0 -0.86580896498E+02  0.26709093047E+03 -0.17120281179E+03  0.34039439020E+03  0.87886980466E+02 0.  0.
        254    2    1    2    0    0  0.86580896498E+02 -0.26709093047E+03 -0.63670432172E+03  0.11353542487E+04  0.89710816508E+03 0.  0.
         23    2    4    4    0    0  0.43071618979E+03 -0.21259495392E+03 -0.11669000811E+03  0.50270079329E+03  0.91534031925E+02 0.  0.
         23    2    4    4    0    0 -0.34413529329E+03 -0.54495976553E+02 -0.52001431361E+03  0.63265345536E+03  0.91850948133E+02 0.  0.
          2    1    3    3  502    0 -0.74756853349E+02  0.27141790517E+03 -0.16210384564E+03  0.32485985154E+03  0.00000000000E+00 0. -1.
         -1    1    3    3    0  502 -0.11824043149E+02 -0.43269746978E+01 -0.90989661532E+01  0.15534538664E+02  0.00000000000E+00 0.  1.
         11    1    5    5    0    0  0.11198385763E+03 -0.97308210446E+02 -0.54813952624E+02  0.15815764791E+03  0.00000000000E+00 0.  1.
        -11    1    5    5    0    0  0.31873233216E+03 -0.11528674348E+03 -0.61876055489E+02  0.34454314538E+03  0.00000000000E+00 0. -1.
          4    1    6    6  503    0 -0.33041578738E+03 -0.30430392901E+02 -0.49033541414E+03  0.59205525057E+03  0.00000000000E+00 0. -1.
         -4    1    6    6    0  503 -0.13719505914E+02 -0.24065583652E+02 -0.29678899465E+02  0.40598204794E+02  0.00000000000E+00 0.  1.
<mgrwt>
<rscale>  0 0.12349575E+04</rscale>
<asrwt>0</asrwt>
<pdfrwt beam="1">  1        2 0.17566583E+00 0.12349575E+04</pdfrwt>
<pdfrwt beam="2">  1       -1 0.51372423E-01 0.12349575E+04</pdfrwt>
<totfact> 0.87840272E+01</totfact>
</mgrwt>
</event>
<event>
12    6  0.1611689E-007  0.1671209E+04  0.7818608E-02  0.8777957E-01
         -1   -1    0    0    0  501 -0.00000000000E+00  0.00000000000E+00  0.89073193318E+03  0.89073193318E+03  0.00000000000E+00 0.  1.
          2   -1    0    0  501    0  0.00000000000E+00 -0.00000000000E+00 -0.78388906948E+03  0.78388906948E+03  0.00000000000E+00 0. -1.
         24    2    1    2    0    0 -0.30108656328E+02 -0.59303021560E+03  0.67608977830E+02  0.60296236177E+03  0.80007924774E+02 0.  0.
        254    2    1    2    0    0  0.30108656328E+02  0.59303021560E+03  0.39233885872E+02  0.10716586409E+04  0.89124720309E+03 0.  0.
         23    2    4    4    0    0 -0.38763524653E+03  0.11022673798E+03 -0.65791480908E+02  0.41827632115E+03  0.90639636794E+02 0.  0.
         23    2    4    4    0    0  0.41774390285E+03  0.48280347761E+03  0.10502536678E+03  0.65338231975E+03  0.90933831563E+02 0.  0.
          4    1    3    3  502    0  0.15852566654E+02 -0.32435298954E+02  0.10482308154E+02  0.37592968385E+02  0.00000000000E+00 0. -1.
         -1    1    3    3    0  502 -0.45961222982E+02 -0.56059491664E+03  0.57126669676E+02  0.56536939338E+03  0.00000000000E+00 0.  1.
         11    1    5    5    0    0  0.48796316659E+01  0.32188716981E+01 -0.31559976602E+01  0.66432116807E+01  0.00000000000E+00 0. -1.
        -11    1    5    5    0    0 -0.39251487819E+03  0.10700786628E+03 -0.62635483248E+02  0.41163310947E+03  0.00000000000E+00 0.  1.
          4    1    6    6  503    0  0.15641540066E+03  0.12381203733E+03  0.12995161190E+02  0.19991016074E+03  0.00000000000E+00 0. -1.
         -4    1    6    6    0  503  0.26132850219E+03  0.35899144028E+03  0.92030205590E+02  0.45347215900E+03  0.00000000000E+00 0.  1.
<mgrwt>
<rscale>  0 0.16712092E+04</rscale>
<asrwt>0</asrwt>
<pdfrwt beam="1">  1        2 0.12059832E+00 0.16712092E+04</pdfrwt>
<pdfrwt beam="2">  1       -1 0.13703568E+00 0.16712092E+04</pdfrwt>
<totfact> 0.17080310E+01</totfact>
</mgrwt>
</event>
<event>
12    6  0.1611689E-007  0.1740891E+04  0.7818608E-02  0.8738380E-01
          2   -1    0    0  501    0  0.00000000000E+00  0.00000000000E+00  0.10269164941E+04  0.10269164941E+04  0.00000000000E+00 0. -1.
         -1   -1    0    0    0  501 -0.00000000000E+00 -0.00000000000E+00 -0.73781621713E+03  0.73781621713E+03  0.00000000000E+00 0.  1.
         24    2    1    2    0    0 -0.59697121020E+03  0.18635604407E+03  0.21518406483E+03  0.66643022779E+03  0.81986985490E+02 0.  0.
        254    2    1    2    0    0  0.59697121020E+03 -0.18635604407E+03  0.73916212182E+02  0.10983024835E+04  0.89983417241E+03 0.  0.
         23    2    4    4    0    0  0.49492388486E+03  0.28275773235E+03  0.16476813984E+03  0.60066969371E+03  0.93562567439E+02 0.  0.
         23    2    4    4    0    0  0.10204732533E+03 -0.46911377642E+03 -0.90851927657E+02  0.49763278977E+03  0.94355332983E+02 0.  0.
          4    1    3    3  502    0 -0.21853809523E+02 -0.10171586055E+01  0.23045368184E+02  0.31775975154E+02  0.00000000000E+00 0. -1.
         -3    1    3    3    0  502 -0.57511740067E+03  0.18737320267E+03  0.19213869665E+03  0.63465425264E+03  0.00000000000E+00 0.  1.
         11    1    5    5    0    0  0.17794577657E+03  0.80320044644E+02  0.14891234777E+02  0.19580030093E+03  0.00000000000E+00 0. -1.
        -11    1    5    5    0    0  0.31697810829E+03  0.20243768771E+03  0.14987690506E+03  0.40486939278E+03  0.00000000000E+00 0.  1.
          3    1    6    6  503    0 -0.11240588495E+02 -0.25659770474E+02  0.85055706898E+01  0.29276601293E+02  0.00000000000E+00 0. -1.
         -3    1    6    6    0  503  0.11328791383E+03 -0.44345400595E+03 -0.99357498346E+02  0.46835618848E+03  0.00000000000E+00 0.  1.
<mgrwt>
<rscale>  0 0.17408913E+04</rscale>
<asrwt>0</asrwt>
<pdfrwt beam="1">  1        2 0.15798715E+00 0.17408913E+04</pdfrwt>
<pdfrwt beam="2">  1       -1 0.11351019E+00 0.17408913E+04</pdfrwt>
<totfact> 0.18554845E+01</totfact>
</mgrwt>
</event>
<event>
12    6  0.1611689E-007  0.1775839E+04  0.7818608E-02  0.8719255E-01
         -1   -1    0    0    0  501 -0.00000000000E+00  0.00000000000E+00  0.82545883206E+03  0.82545883206E+03  0.00000000000E+00 0.  1.
          2   -1    0    0  501    0  0.00000000000E+00 -0.00000000000E+00 -0.95510636207E+03  0.95510636207E+03  0.00000000000E+00 0. -1.
         24    2    1    2    0    0  0.62868388675E+03 -0.85735454919E+02  0.11757344941E+03  0.64982997092E+03  0.76560286127E+02 0.  0.
        254    2    1    2    0    0 -0.62868388675E+03  0.85735454919E+02 -0.24722097941E+03  0.11307352232E+04  0.90269038692E+03 0.  0.
         23    2    4    4    0    0  0.16123533214E+03  0.21329083353E+03 -0.15240783568E+03  0.31995761078E+03  0.87492355771E+02 0.  0.
         23    2    4    4    0    0 -0.78991921889E+03 -0.12755537861E+03 -0.94813143730E+02  0.81077761243E+03  0.90155740865E+02 0.  0.
          2    1    3    3  502    0  0.43758736883E+03 -0.42903536232E+02  0.49338441602E+02  0.44244513852E+03  0.00000000000E+00 0. -1.
         -1    1    3    3    0  502  0.19109651792E+03 -0.42831918687E+02  0.68235007804E+02  0.20738483240E+03  0.00000000000E+00 0.  1.
         11    1    5    5    0    0  0.71320812297E+00  0.43169571063E+02 -0.49523092887E+01  0.43458553805E+02  0.00000000000E+00 0.  1.
        -11    1    5    5    0    0  0.16052212401E+03  0.17012126247E+03 -0.14745552639E+03  0.27649905697E+03  0.00000000000E+00 0. -1.
          1    1    6    6  503    0 -0.28258432995E+03 -0.31734365363E+01 -0.23594777485E+02  0.28358541528E+03  0.00000000000E+00 0. -1.
         -1    1    6    6    0  503 -0.50733488894E+03 -0.12438194208E+03 -0.71218366246E+02  0.52719219715E+03  0.00000000000E+00 0.  1.
<mgrwt>
<rscale>  0 0.17758389E+04</rscale>
<asrwt>0</asrwt>
<pdfrwt beam="1">  1        2 0.14693944E+00 0.17758389E+04</pdfrwt>
<pdfrwt beam="2">  1       -1 0.12699367E+00 0.17758389E+04</pdfrwt>
<totfact> 0.15642890E+01</totfact>
</mgrwt>
</event>
<event>
12    6  0.1611689E-007  0.1267034E+04  0.7818608E-02  0.9056124E-01
         -1   -1    0    0    0  501 -0.00000000000E+00  0.00000000000E+00  0.27065796197E+03  0.27065796197E+03  0.00000000000E+00 0.  1.
          2   -1    0    0  501    0  0.00000000000E+00 -0.00000000000E+00 -0.14828458769E+04  0.14828458769E+04  0.00000000000E+00 0. -1.
         24    2    1    2    0    0  0.26632706359E+03 -0.10122177100E+03 -0.17456980447E+03  0.34387471692E+03  0.81235783854E+02 0.  0.
        254    2    1    2    0    0 -0.26632706359E+03  0.10122177100E+03 -0.10376181105E+04  0.14096291220E+04  0.91061900188E+03 0.  0.
         23    2    4    4    0    0 -0.37503690181E+03 -0.29996809442E+03 -0.75212314033E+03  0.89700761949E+03  0.91103873757E+02 0.  0.
         23    2    4    4    0    0  0.10870983822E+03  0.40118986541E+03 -0.28549497017E+03  0.51262150249E+03  0.92207861864E+02 0.  0.
          2    1    3    3  502    0  0.24910385779E+03 -0.10954828603E+03 -0.17694602055E+03  0.32459737080E+03  0.00000000000E+00 0. -1.
         -1    1    3    3    0  502  0.17223205795E+02  0.83265150345E+01  0.23762160825E+01  0.19277346118E+02  0.00000000000E+00 0.  1.
         11    1    5    5    0    0  0.49570256012E+01 -0.49353995358E+00 -0.71583280691E+01  0.87210862420E+01  0.00000000000E+00 0.  1.
        -11    1    5    5    0    0 -0.37999392741E+03 -0.29947455446E+03 -0.74496481226E+03  0.88828653325E+03  0.00000000000E+00 0. -1.
          1    1    6    6  503    0  0.88686378197E+02  0.20971480236E+03 -0.19548492709E+03  0.30009986459E+03  0.00000000000E+00 0. -1.
         -1    1    6    6    0  503  0.20023460026E+02  0.19147506305E+03 -0.90010043075E+02  0.21252163790E+03  0.00000000000E+00 0.  1.
<mgrwt>
<rscale>  0 0.12670344E+04</rscale>
<asrwt>0</asrwt>
<pdfrwt beam="1">  1        2 0.22813013E+00 0.12670344E+04</pdfrwt>
<pdfrwt beam="2">  1       -1 0.41639687E-01 0.12670344E+04</pdfrwt>
<totfact> 0.82169267E+01</totfact>
</mgrwt>
</event>
<event>
12    6  0.1611689E-007  0.1988168E+04  0.7818608E-02  0.8612173E-01
         -3   -1    0    0    0  501 -0.00000000000E+00  0.00000000000E+00  0.16714225266E+04  0.16714225266E+04  0.00000000000E+00 0.  1.
          4   -1    0    0  501    0  0.00000000000E+00 -0.00000000000E+00 -0.59123461774E+03  0.59123461774E+03  0.00000000000E+00 0. -1.
         24    2    1    2    0    0 -0.16350917052E+03  0.70831700979E+02  0.13036394179E+04  0.13180496182E+04  0.77631730710E+02 0.  0.
        254    2    1    2    0    0  0.16350917052E+03 -0.70831700979E+02 -0.22345150896E+03  0.94460752614E+03  0.90033350647E+03 0.  0.
         23    2    4    4    0    0 -0.13353382550E+03 -0.87465884065E+02 -0.49707153101E+03  0.53002537316E+03  0.91461608493E+02 0.  0.
         23    2    4    4    0    0  0.29704299602E+03  0.16634183085E+02  0.27362002205E+03  0.41458215298E+03  0.92191146918E+02 0.  0.
          2    1    3    3  502    0 -0.61835515245E+02  0.60628950161E+02  0.44472477289E+03  0.45307794492E+03  0.00000000000E+00 0. -1.
         -1    1    3    3    0  502 -0.10167365527E+03  0.10202750818E+02  0.85891464497E+03  0.86497167332E+03  0.00000000000E+00 0.  1.
         11    1    5    5    0    0 -0.44567502005E+02  0.15420170881E+02 -0.10742146832E+03  0.11731758505E+03  0.00000000000E+00 0. -1.
        -11    1    5    5    0    0 -0.88966323495E+02 -0.10288605495E+03 -0.38965006268E+03  0.41270778811E+03  0.00000000000E+00 0.  1.
          4    1    6    6  503    0  0.77698079314E+02  0.39630162254E+02  0.50164516307E+02  0.10061818914E+03  0.00000000000E+00 0. -1.
         -4    1    6    6    0  503  0.21934491671E+03 -0.22995979169E+02  0.22345550574E+03  0.31396396384E+03  0.00000000000E+00 0.  1.
<mgrwt>
<rscale>  0 0.19881679E+04</rscale>
<asrwt>0</asrwt>
<pdfrwt beam="1">  1        4 0.90959173E-01 0.19881679E+04</pdfrwt>
<pdfrwt beam="2">  1       -3 0.25714193E+00 0.19881679E+04</pdfrwt>
<totfact> 0.14619320E-01</totfact>
</mgrwt>
</event>
<event>
12    6  0.1611689E-007  0.3504314E+04  0.7818608E-02  0.8112768E-01
          4   -1    0    0  501    0  0.00000000000E+00  0.00000000000E+00  0.37759445366E+04  0.37759445366E+04  0.00000000000E+00 0. -1.
         -3   -1    0    0    0  501 -0.00000000000E+00 -0.00000000000E+00 -0.81305571618E+03  0.81305571618E+03  0.00000000000E+00 0.  1.
         24    2    1    2    0    0 -0.51010024841E+03  0.27731120017E+03  0.33936758319E+04  0.34439009808E+04  0.79464132689E+02 0.  0.
        254    2    1    2    0    0  0.51010024841E+03 -0.27731120017E+03 -0.43078701144E+03  0.11450992720E+04  0.88801527485E+03 0.  0.
         23    2    4    4    0    0  0.84423358495E+02  0.30752713362E+03 -0.13900135477E+03  0.35971937364E+03  0.91522728195E+02 0.  0.
         23    2    4    4    0    0  0.42567688991E+03 -0.58483833378E+03 -0.29178565666E+03  0.78537989837E+03  0.91902252737E+02 0.  0.
          2    1    3    3  502    0 -0.25817903818E+03  0.12151463691E+03  0.18778579839E+04  0.18994138124E+04  0.00000000000E+00 0. -1.
         -1    1    3    3    0  502 -0.25192121023E+03  0.15579656326E+03  0.15158178479E+04  0.15444871684E+04  0.00000000000E+00 0.  1.
         11    1    5    5    0    0  0.17278040685E+02  0.14862722523E+02  0.95538691748E+01  0.24712499406E+02  0.00000000000E+00 0. -1.
        -11    1    5    5    0    0  0.67145317810E+02  0.29266441109E+03 -0.14855522395E+03  0.33500687424E+03  0.00000000000E+00 0.  1.
          3    1    6    6  503    0 -0.32730428882E+01 -0.46429283701E+00  0.11804016148E+01  0.35102315535E+01  0.00000000000E+00 0. -1.
         -3    1    6    6    0  503  0.42894993280E+03 -0.58437404094E+03 -0.29296605828E+03  0.78186966681E+03  0.00000000000E+00 0.  1.
<mgrwt>
<rscale>  0 0.35043135E+04</rscale>
<asrwt>0</asrwt>
<pdfrwt beam="1">  1        4 0.58091453E+00 0.35043135E+04</pdfrwt>
<pdfrwt beam="2">  1       -3 0.12508550E+00 0.35043135E+04</pdfrwt>
<totfact> 0.23372987E-04</totfact>
</mgrwt>
</event>
<event>
12    6  0.1611689E-007  0.1113383E+04  0.7818608E-02  0.9192245E-01
          4   -1    0    0  501    0  0.00000000000E+00  0.00000000000E+00  0.38375827172E+03  0.38375827172E+03  0.00000000000E+00 0. -1.
         -3   -1    0    0    0  501 -0.00000000000E+00 -0.00000000000E+00 -0.80755387222E+03  0.80755387222E+03  0.00000000000E+00 0.  1.
         24    2    1    2    0    0 -0.83866061790E+02 -0.13521073912E+03 -0.15747773848E+03  0.23608582800E+03  0.74978795480E+02 0.  0.
        254    2    1    2    0    0  0.83866061790E+02  0.13521073912E+03 -0.26631786202E+03  0.95522631595E+03  0.90344709350E+03 0.  0.
         23    2    4    4    0    0 -0.36294326692E+03 -0.84361875932E+02  0.77263219881E+00  0.38329036747E+03  0.89811846232E+02 0.  0.
         23    2    4    4    0    0  0.44680932871E+03  0.21957261505E+03 -0.26709049422E+03  0.57193594848E+03  0.89009480180E+02 0.  0.
          4    1    3    3  502    0 -0.94736784328E+02 -0.13223632211E+03 -0.13684159096E+03  0.21257263277E+03  0.00000000000E+00 0. -1.
         -3    1    3    3    0  502  0.10870722538E+02 -0.29744170113E+01 -0.20636147521E+02  0.23513195222E+02  0.00000000000E+00 0.  1.
         11    1    5    5    0    0 -0.36764928477E+03 -0.79776617042E+02 -0.18662524808E+01  0.37620976611E+03  0.00000000000E+00 0. -1.
        -11    1    5    5    0    0  0.47060178588E+01 -0.45852588905E+01  0.26388846796E+01  0.70806013539E+01  0.00000000000E+00 0.  1.
          2    1    6    6  503    0  0.12814585053E+03  0.78434717877E+02 -0.38367012341E+02  0.15506576545E+03  0.00000000000E+00 0. -1.
         -2    1    6    6    0  503  0.31866347817E+03  0.14113789717E+03 -0.22872348188E+03  0.41687018303E+03  0.00000000000E+00 0.  1.
<mgrwt>
<rscale>  0 0.11133831E+04</rscale>
<asrwt>0</asrwt>
<pdfrwt beam="1">  1        4 0.59039734E-01 0.11133831E+04</pdfrwt>
<pdfrwt beam="2">  1       -3 0.12423906E+00 0.11133831E+04</pdfrwt>
<totfact> 0.31946085E+00</totfact>
</mgrwt>
</event>
<event>
12    6  0.1611689E-007  0.1203966E+04  0.7818608E-02  0.9109392E-01
         -1   -1    0    0    0  501 -0.00000000000E+00  0.00000000000E+00  0.17983241222E+03  0.17983241222E+03  0.00000000000E+00 0.  1.
          2   -1    0    0  501    0  0.00000000000E+00 -0.00000000000E+00 -0.20151168188E+04  0.20151168188E+04  0.00000000000E+00 0. -1.
         24    2    1    2    0    0  0.61550534162E+02 -0.20454120942E+03 -0.15264510365E+03  0.27541448058E+03  0.83228804156E+02 0.  0.
        254    2    1    2    0    0 -0.61550534162E+02  0.20454120942E+03 -0.16826393029E+04  0.19195347504E+04  0.89872857959E+03 0.  0.
         23    2    4    4    0    0  0.15105353704E+03 -0.17336049957E+03 -0.13312184484E+04  0.13539473683E+04  0.90332080268E+02 0.  0.
         23    2    4    4    0    0 -0.21260407120E+03  0.37790170899E+03 -0.35142085447E+03  0.56558738215E+03  0.91554776722E+02 0.  0.
          4    1    3    3  502    0  0.73049890052E+02 -0.98775348698E+02 -0.81321076909E+02  0.14732947260E+03  0.00000000000E+00 0. -1.
         -3    1    3    3    0  502 -0.11499355889E+02 -0.10576586072E+03 -0.71324026739E+02  0.12808500798E+03  0.00000000000E+00 0.  1.
         11    1    5    5    0    0  0.57874115274E+02 -0.66618266011E+02 -0.77325853979E+03  0.77827769848E+03  0.00000000000E+00 0. -1.
        -11    1    5    5    0    0  0.93179421767E+02 -0.10674223356E+03 -0.55795990864E+03  0.57566966979E+03  0.00000000000E+00 0.  1.
          4    1    6    6  503    0 -0.20854814636E+02  0.61428019407E+02 -0.17566578973E+02  0.67207957554E+02  0.00000000000E+00 0.  1.
         -4    1    6    6    0  503 -0.19174925657E+03  0.31647368958E+03 -0.33385427550E+03  0.49837942459E+03  0.00000000000E+00 0. -1.
<mgrwt>
<rscale>  0 0.12039656E+04</rscale>
<asrwt>0</asrwt>
<pdfrwt beam="1">  1        2 0.31001797E+00 0.12039656E+04</pdfrwt>
<pdfrwt beam="2">  1       -1 0.27666526E-01 0.12039656E+04</pdfrwt>
<totfact> 0.86696530E+01</totfact>
</mgrwt>
</event>
<event>
12    6  0.1611689E-007  0.2261137E+04  0.7818608E-02  0.8493404E-01
         -1   -1    0    0    0  501 -0.00000000000E+00  0.00000000000E+00  0.65697905145E+03  0.65697905145E+03  0.00000000000E+00 0.  1.
          2   -1    0    0  501    0  0.00000000000E+00 -0.00000000000E+00 -0.19455492609E+04  0.19455492609E+04  0.00000000000E+00 0. -1.
         24    2    1    2    0    0  0.77753813424E+03 -0.27956400499E+03  0.69252735417E+00  0.83009219813E+03  0.79567548228E+02 0.  0.
        254    2    1    2    0    0 -0.77753813424E+03  0.27956400499E+03 -0.12892627368E+04  0.17724361142E+04  0.89252999467E+03 0.  0.
         23    2    4    4    0    0 -0.76977793515E+03 -0.13159931181E+03 -0.93317616029E+03  0.12202262133E+04  0.90872533211E+02 0.  0.
         23    2    4    4    0    0 -0.77601990899E+01  0.41116331679E+03 -0.35608657651E+03  0.55220990086E+03  0.94987530120E+02 0.  0.
          4    1    3    3  502    0  0.26225380125E+03 -0.12595068875E+03 -0.23306976683E+02  0.29186272017E+03  0.00000000000E+00 0. -1.
         -3    1    3    3    0  502  0.51528433299E+03 -0.15361331623E+03  0.23999504037E+02  0.53822947796E+03  0.00000000000E+00 0.  1.
         11    1    5    5    0    0 -0.67519527678E+03 -0.12603944769E+03 -0.85932929409E+03  0.11001006499E+04  0.00000000000E+00 0.  1.
        -11    1    5    5    0    0 -0.94582658369E+02 -0.55598641145E+01 -0.73846866201E+02  0.12012556348E+03  0.00000000000E+00 0. -1.
          4    1    6    6  503    0 -0.10596069007E+01  0.34735815530E+01 -0.29703816568E+02  0.29924993806E+02  0.00000000000E+00 0. -1.
         -4    1    6    6    0  503 -0.67005921891E+01  0.40768973524E+03 -0.32638275994E+03  0.52228490706E+03  0.00000000000E+00 0.  1.
<mgrwt>
<rscale>  0 0.22611370E+04</rscale>
<asrwt>0</asrwt>
<pdfrwt beam="1">  1        2 0.29931527E+00 0.22611370E+04</pdfrwt>
<pdfrwt beam="2">  1       -1 0.10107370E+00 0.22611370E+04</pdfrwt>
<totfact> 0.68964996E+00</totfact>
</mgrwt>
</event>
<event>
12    6  0.1611689E-007  0.2251431E+04  0.7818608E-02  0.8497321E-01
          2   -1    0    0  501    0  0.00000000000E+00  0.00000000000E+00  0.98138430509E+03  0.98138430509E+03  0.00000000000E+00 0. -1.
         -1   -1    0    0    0  501 -0.00000000000E+00 -0.00000000000E+00 -0.12912734570E+04  0.12912734570E+04  0.00000000000E+00 0.  1.
         24    2    1    2    0    0 -0.65441442337E+03 -0.47644779888E+03 -0.63004134855E+03  0.10288459424E+04  0.79442619685E+02 0.  0.
        254    2    1    2    0    0  0.65441442337E+03  0.47644779888E+03  0.32015219660E+03  0.12438118197E+04  0.88843101660E+03 0.  0.
         23    2    4    4    0    0 -0.21930814051E+02  0.50821478787E+03  0.10989002531E+03  0.52884943449E+03  0.94035501185E+02 0.  0.
         23    2    4    4    0    0  0.67634523742E+03 -0.31766988988E+02  0.21026217128E+03  0.71496238520E+03  0.92244294185E+02 0.  0.
          2    1    3    3  502    0 -0.92931479513E+02 -0.40004454373E+02 -0.61901063034E+02  0.11861010859E+03  0.00000000000E+00 0. -1.
         -1    1    3    3    0  502 -0.56148294386E+03 -0.43644334451E+03 -0.56814028552E+03  0.91023583386E+03  0.00000000000E+00 0.  1.
         11    1    5    5    0    0 -0.29696973069E+02  0.24839119662E+03  0.99449887444E+01  0.25035774317E+03  0.00000000000E+00 0. -1.
        -11    1    5    5    0    0  0.77661590185E+01  0.25982359126E+03  0.99945036569E+02  0.27849169132E+03  0.00000000000E+00 0.  1.
          4    1    6    6  503    0  0.90402102989E+02  0.26668276979E+02  0.22499594231E+02  0.96901852214E+02  0.00000000000E+00 0. -1.
         -4    1    6    6    0  503  0.58594313443E+03 -0.58435265967E+02  0.18776257705E+03  0.61806053299E+03  0.00000000000E+00 0.  1.
<mgrwt>
<rscale>  0 0.22514311E+04</rscale>
<asrwt>0</asrwt>
<pdfrwt beam="1">  1        2 0.15098220E+00 0.22514311E+04</pdfrwt>
<pdfrwt beam="2">  1       -1 0.19865746E+00 0.22514311E+04</pdfrwt>
<totfact> 0.41329723E+00</totfact>
</mgrwt>
</event>
<event>
12    6  0.1611689E-007  0.1527537E+04  0.7818608E-02  0.8866345E-01
         -1   -1    0    0    0  501 -0.00000000000E+00  0.00000000000E+00  0.35629057333E+03  0.35629057333E+03  0.00000000000E+00 0.  1.
          2   -1    0    0  501    0  0.00000000000E+00 -0.00000000000E+00 -0.16372661427E+04  0.16372661427E+04  0.00000000000E+00 0. -1.
         24    2    1    2    0    0 -0.47995892481E+03  0.15202586312E+02 -0.63694449224E+03  0.80136547607E+03  0.76789660128E+02 0.  0.
        254    2    1    2    0    0  0.47995892481E+03 -0.15202586312E+02 -0.64403107710E+03  0.11921912399E+04  0.88088151085E+03 0.  0.
         23    2    4    4    0    0  0.19557845929E+03 -0.26969077037E+03 -0.71368949895E+03  0.79334395987E+03  0.95172960389E+02 0.  0.
         23    2    4    4    0    0  0.28438046552E+03  0.25448818406E+03  0.69658421849E+02  0.39884728006E+03  0.92684260189E+02 0.  0.
          2    1    3    3  502    0 -0.31056663860E+02 -0.12136146373E+02 -0.23799984008E+02  0.40966347869E+02  0.00000000000E+00 0. -1.
         -1    1    3    3    0  502 -0.44890226095E+03  0.27338732685E+02 -0.61314450823E+03  0.76039912820E+03  0.00000000000E+00 0.  1.
         11    1    5    5    0    0 -0.43099803027E+01  0.50337491470E+01 -0.11282990372E+02  0.13085122560E+02  0.00000000000E+00 0.  1.
        -11    1    5    5    0    0  0.19988843960E+03 -0.27472451952E+03 -0.70240650858E+03  0.78025883731E+03  0.00000000000E+00 0. -1.
          3    1    6    6  503    0  0.26393601481E+03  0.19477155324E+03  0.45050918547E+02  0.33110083529E+03  0.00000000000E+00 0. -1.
         -3    1    6    6    0  503  0.20444450703E+02  0.59716630817E+02  0.24607503302E+02  0.67746444774E+02  0.00000000000E+00 0.  1.
<mgrwt>
<rscale>  0 0.15275372E+04</rscale>
<asrwt>0</asrwt>
<pdfrwt beam="1">  1        2 0.25188710E+00 0.15275372E+04</pdfrwt>
<pdfrwt beam="2">  1       -1 0.54813934E-01 0.15275372E+04</pdfrwt>
<totfact> 0.39267578E+01</totfact>
</mgrwt>
</event>
<event>
12    6  0.1611689E-007  0.1152480E+04  0.7818608E-02  0.9155499E-01
          2   -1    0    0  501    0  0.00000000000E+00  0.00000000000E+00  0.58245392150E+03  0.58245392150E+03  0.00000000000E+00 0. -1.
         -1   -1    0    0    0  501 -0.00000000000E+00 -0.00000000000E+00 -0.57009218337E+03  0.57009218337E+03  0.00000000000E+00 0.  1.
         24    2    1    2    0    0  0.38603045202E+02  0.20277182896E+03 -0.63166806462E+02  0.23054359476E+03  0.80954888227E+02 0.  0.
        254    2    1    2    0    0 -0.38603045202E+02 -0.20277182896E+03  0.75528544587E+02  0.92200251011E+03  0.89542026886E+03 0.  0.
         23    2    4    4    0    0 -0.21857713597E+03 -0.47122741146E+03 -0.10473722293E+03  0.53769690377E+03  0.91196692775E+02 0.  0.
         23    2    4    4    0    0  0.17997409077E+03  0.26845558250E+03  0.18026576751E+03  0.38430560634E+03  0.10361456947E+03 0.  0.
          2    1    3    3  502    0 -0.20651117709E+02  0.78902865786E+02 -0.59170572581E+01  0.81774950067E+02  0.00000000000E+00 0. -1.
         -1    1    3    3    0  502  0.59254162911E+02  0.12386896318E+03 -0.57249749204E+02  0.14876864470E+03  0.00000000000E+00 0.  1.
         11    1    5    5    0    0 -0.21527214986E+03 -0.43322523886E+03 -0.11684924767E+03  0.49767454504E+03  0.00000000000E+00 0. -1.
        -11    1    5    5    0    0 -0.33049861062E+01 -0.38002172597E+02  0.12112024737E+02  0.40022358732E+02  0.00000000000E+00 0.  1.
          4    1    6    6  503    0  0.76319582552E+01 -0.93368180250E+01  0.29980707299E+01  0.12426237795E+02  0.00000000000E+00 0.  1.
         -4    1    6    6    0  503  0.17234213251E+03  0.27779240052E+03  0.17726769678E+03  0.37187936855E+03  0.00000000000E+00 0. -1.
<mgrwt>
<rscale>  0 0.11524798E+04</rscale>
<asrwt>0</asrwt>
<pdfrwt beam="1">  1        2 0.89608296E-01 0.11524798E+04</pdfrwt>
<pdfrwt beam="2">  1       -1 0.87706489E-01 0.11524798E+04</pdfrwt>
<totfact> 0.74393254E+01</totfact>
</mgrwt>
</event>
<event>
12    6  0.1611689E-007  0.3453952E+04  0.7818608E-02  0.8124790E-01
         -1   -1    0    0    0  501 -0.00000000000E+00  0.00000000000E+00  0.13677851753E+04  0.13677851753E+04  0.00000000000E+00 0.  1.
          2   -1    0    0  501    0  0.00000000000E+00 -0.00000000000E+00 -0.21804932062E+04  0.21804932062E+04  0.00000000000E+00 0. -1.
         24    2    1    2    0    0 -0.15872960445E+04 -0.90155481669E+01 -0.11643765093E+03  0.15937641957E+04  0.83286084623E+02 0.  0.
        254    2    1    2    0    0  0.15872960445E+04  0.90155481669E+01 -0.69627038001E+03  0.19545141858E+04  0.90318505705E+03 0.  0.
         23    2    4    4    0    0  0.13270814233E+03  0.28937671376E+03 -0.46327167955E+02  0.33410709436E+03  0.90172116022E+02 0.  0.
         23    2    4    4    0    0  0.14545879022E+04 -0.28036116559E+03 -0.64994321205E+03  0.16204070914E+04  0.94152082560E+02 0.  0.
          4    1    3    3  502    0 -0.12948467643E+04 -0.71820659654E+01 -0.12728788428E+03  0.13011079627E+04  0.00000000000E+00 0. -1.
         -3    1    3    3    0  502 -0.29244928024E+03 -0.18334822015E+01  0.10850233342E+02  0.29265623303E+03  0.00000000000E+00 0.  1.
         11    1    5    5    0    0  0.20096312380E+02  0.15115185845E+03 -0.25594668721E+02  0.15461511294E+03  0.00000000000E+00 0.  1.
        -11    1    5    5    0    0  0.11261182995E+03  0.13822485531E+03 -0.20732499234E+02  0.17949198142E+03  0.00000000000E+00 0. -1.
          3    1    6    6  503    0  0.90740242663E+03 -0.22113186182E+03 -0.41169085714E+03  0.10206702827E+04  0.00000000000E+00 0. -1.
         -3    1    6    6    0  503  0.54718547556E+03 -0.59229303768E+02 -0.23825235491E+03  0.59973680870E+03  0.00000000000E+00 0.  1.
<mgrwt>
<rscale>  0 0.34539521E+04</rscale>
<asrwt>0</asrwt>
<pdfrwt beam="1">  1        2 0.33546049E+00 0.34539521E+04</pdfrwt>
<pdfrwt beam="2">  1       -1 0.21042849E+00 0.34539521E+04</pdfrwt>
<totfact> 0.63427396E-01</totfact>
</mgrwt>
</event>
<event>
12    6  0.1611689E-007  0.1979691E+04  0.7818608E-02  0.8616175E-01
         -1   -1    0    0    0  501 -0.00000000000E+00  0.00000000000E+00  0.10709197944E+04  0.10709197944E+04  0.00000000000E+00 0.  1.
          2   -1    0    0  501    0  0.00000000000E+00 -0.00000000000E+00 -0.91490922794E+03  0.91490922794E+03  0.00000000000E+00 0. -1.
         24    2    1    2    0    0  0.39530590160E+03  0.34252711179E+03  0.64236454323E+03  0.83197612176E+03  0.77204161922E+02 0.  0.
        254    2    1    2    0    0 -0.39530590160E+03 -0.34252711179E+03 -0.48635397674E+03  0.11538529006E+04  0.90622554998E+03 0.  0.
         23    2    4    4    0    0 -0.54973347715E+03 -0.25539583934E+03 -0.64931298929E+03  0.89289129009E+03  0.90628732793E+02 0.  0.
         23    2    4    4    0    0  0.15442757554E+03 -0.87131272447E+02  0.16295901255E+03  0.26096161053E+03  0.10052655207E+03 0.  0.
          2    1    3    3  502    0  0.58613261725E+02  0.78493539126E+02  0.87925141533E+02  0.13163426852E+03  0.00000000000E+00 0. -1.
         -1    1    3    3    0  502  0.33669263988E+03  0.26403357266E+03  0.55443940170E+03  0.70034185324E+03  0.00000000000E+00 0.  1.
         11    1    5    5    0    0 -0.50178555191E+03 -0.25309722870E+03 -0.61924712848E+03  0.83624993478E+03  0.00000000000E+00 0. -1.
        -11    1    5    5    0    0 -0.47947925241E+02 -0.22986106430E+01 -0.30065860808E+02  0.56641355315E+02  0.00000000000E+00 0.  1.
          3    1    6    6  503    0  0.16734769621E+03 -0.90668751486E+02  0.15419932366E+03  0.24495612942E+03  0.00000000000E+00 0. -1.
         -3    1    6    6    0  503 -0.12920120668E+02  0.35374790383E+01  0.87596888986E+01  0.16005481112E+02  0.00000000000E+00 0.  1.
<mgrwt>
<rscale>  0 0.19796913E+04</rscale>
<asrwt>0</asrwt>
<pdfrwt beam="1">  1        2 0.14075527E+00 0.19796913E+04</pdfrwt>
<pdfrwt beam="2">  1       -1 0.16475689E+00 0.19796913E+04</pdfrwt>
<totfact> 0.81862292E+00</totfact>
</mgrwt>
</event>
<event>
12    6  0.1611689E-007  0.3299977E+04  0.7818608E-02  0.8162901E-01
         -1   -1    0    0    0  501 -0.00000000000E+00  0.00000000000E+00  0.11386058534E+04  0.11386058534E+04  0.00000000000E+00 0.  1.
          2   -1    0    0  501    0  0.00000000000E+00 -0.00000000000E+00 -0.23910490047E+04  0.23910490047E+04  0.00000000000E+00 0. -1.
         24    2    1    2    0    0  0.80915132052E+03  0.10772163423E+04 -0.13475733481E+04  0.19072684326E+04  0.81228306416E+02 0.  0.
        254    2    1    2    0    0 -0.80915132052E+03 -0.10772163423E+04  0.95130196818E+02  0.16223864256E+04  0.89886987492E+03 0.  0.
         23    2    4    4    0    0 -0.29313272312E+03 -0.89191413445E+03  0.35648133097E+03  0.10084280486E+04  0.91709177524E+02 0.  0.
         23    2    4    4    0    0 -0.51601859740E+03 -0.18530220785E+03 -0.26135113415E+03  0.61395837703E+03  0.89601184719E+02 0.  0.
          2    1    3    3  502    0  0.77397530260E+03  0.10477967807E+04 -0.13152725650E+04  0.18511774045E+04  0.00000000000E+00 0. -1.
         -1    1    3    3    0  502  0.35176017921E+02  0.29419561559E+02 -0.32300783096E+02  0.56091028050E+02  0.00000000000E+00 0.  1.
         11    1    5    5    0    0 -0.95070310251E+02 -0.41691787629E+03  0.13800412493E+03  0.44933730978E+03  0.00000000000E+00 0.  1.
        -11    1    5    5    0    0 -0.19806241287E+03 -0.47499625816E+03  0.21847720604E+03  0.55909073880E+03  0.00000000000E+00 0. -1.
          3    1    6    6  503    0 -0.31329946948E+03 -0.11560952206E+03 -0.20667905039E+03  0.39273190478E+03  0.00000000000E+00 0. -1.
         -3    1    6    6    0  503 -0.20271912793E+03 -0.69692685793E+02 -0.54672083764E+02  0.22122647225E+03  0.00000000000E+00 0.  1.
<mgrwt>
<rscale>  0 0.32999772E+04</rscale>
<asrwt>0</asrwt>
<pdfrwt beam="1">  1        2 0.36785369E+00 0.32999772E+04</pdfrwt>
<pdfrwt beam="2">  1       -1 0.17517013E+00 0.32999772E+04</pdfrwt>
<totfact> 0.86122849E-01</totfact>
</mgrwt>
</event>
<event>
12    6  0.1611689E-007  0.1165736E+04  0.7818608E-02  0.9143387E-01
         -1   -1    0    0    0  501 -0.00000000000E+00  0.00000000000E+00  0.86520596521E+03  0.86520596521E+03  0.00000000000E+00 0.  1.
          2   -1    0    0  501    0  0.00000000000E+00 -0.00000000000E+00 -0.39266418142E+03  0.39266418142E+03  0.00000000000E+00 0. -1.
         24    2    1    2    0    0  0.24428380004E+02 -0.20843199614E+03  0.49068949860E+02  0.23116773152E+03  0.83606910561E+02 0.  0.
        254    2    1    2    0    0 -0.24428380004E+02  0.20843199614E+03  0.42347283393E+03  0.10267024151E+04  0.91145376479E+03 0.  0.
         23    2    4    4    0    0 -0.56954627839E+02 -0.29513238755E+03 -0.62292691183E+02  0.32021794684E+03  0.91171258027E+02 0.  0.
         23    2    4    4    0    0  0.32526247835E+02  0.50356438369E+03  0.48576552512E+03  0.70648446827E+03  0.92288207289E+02 0.  0.
          4    1    3    3  502    0  0.14430593952E+02 -0.16062371764E+03 -0.92747766184E+00  0.16127331126E+03  0.00000000000E+00 0. -1.
         -3    1    3    3    0  502  0.99977860523E+01 -0.47808278500E+02  0.49996427522E+02  0.69894420264E+02  0.00000000000E+00 0.  1.
         11    1    5    5    0    0 -0.23008760233E+02 -0.22690497957E+03 -0.10952282719E+02  0.22833139358E+03  0.00000000000E+00 0. -1.
        -11    1    5    5    0    0 -0.33945867606E+02 -0.68227407980E+02 -0.51340408465E+02  0.91886553252E+02  0.00000000000E+00 0.  1.
          1    1    6    6  503    0 -0.15625831701E+02  0.59723820577E+02  0.30533525654E+02  0.68872327894E+02  0.00000000000E+00 0. -1.
         -1    1    6    6    0  503  0.48152079536E+02  0.44384056311E+03  0.45523199946E+03  0.63761214038E+03  0.00000000000E+00 0.  1.
<mgrwt>
<rscale>  0 0.11657365E+04</rscale>
<asrwt>0</asrwt>
<pdfrwt beam="1">  1        2 0.60409874E-01 0.11657365E+04</pdfrwt>
<pdfrwt beam="2">  1       -1 0.13310861E+00 0.11657365E+04</pdfrwt>
<totfact> 0.43907350E+01</totfact>
</mgrwt>
</event>
<event>
12    6  0.1611689E-007  0.3532075E+04  0.7818608E-02  0.8106230E-01
          2   -1    0    0  501    0  0.00000000000E+00  0.00000000000E+00  0.35186241840E+04  0.35186241840E+04  0.00000000000E+00 0. -1.
         -1   -1    0    0    0  501 -0.00000000000E+00 -0.00000000000E+00 -0.88639453795E+03  0.88639453795E+03  0.00000000000E+00 0.  1.
         24    2    1    2    0    0  0.10313936382E+04  0.11507338471E+04  0.19435124555E+04  0.24841924378E+04  0.77525349979E+02 0.  0.
        254    2    1    2    0    0 -0.10313936382E+04 -0.11507338471E+04  0.68871719056E+03  0.19208262841E+04  0.90954990058E+03 0.  0.
         23    2    4    4    0    0 -0.11368725134E+04 -0.92714146581E+03  0.38680550200E+03  0.15197589582E+04  0.89321807852E+02 0.  0.
         23    2    4    4    0    0  0.10547887525E+03 -0.22359238125E+03  0.30191168857E+03  0.40106732591E+03  0.92655200325E+02 0.  0.
          2    1    3    3  502    0  0.52696374188E+03  0.62427541645E+03  0.97846133659E+03  0.12746753187E+04  0.00000000000E+00 0. -1.
         -1    1    3    3    0  502  0.50442989627E+03  0.52645843061E+03  0.96505111891E+03  0.12095171192E+04  0.00000000000E+00 0.  1.
         11    1    5    5    0    0 -0.18788761001E+03 -0.12498650700E+03  0.35265606698E+02  0.22840105942E+03  0.00000000000E+00 0. -1.
        -11    1    5    5    0    0 -0.94898490339E+03 -0.80215495881E+03  0.35153989530E+03  0.12913578988E+04  0.00000000000E+00 0.  1.
          2    1    6    6  503    0  0.51178179675E+02 -0.48272051025E+02  0.39026412916E+02  0.80451587244E+02  0.00000000000E+00 0. -1.
         -2    1    6    6    0  503  0.54300695573E+02 -0.17532033022E+03  0.26288527565E+03  0.32061573867E+03  0.00000000000E+00 0.  1.
<mgrwt>
<rscale>  0 0.35320755E+04</rscale>
<asrwt>0</asrwt>
<pdfrwt beam="1">  1        2 0.54132679E+00 0.35320755E+04</pdfrwt>
<pdfrwt beam="2">  1       -1 0.13636839E+00 0.35320755E+04</pdfrwt>
<totfact> 0.32884534E-01</totfact>
</mgrwt>
</event>
<event>
12    6  0.1611689E-007  0.4289947E+04  0.7818608E-02  0.7948480E-01
         -3   -1    0    0    0  501 -0.00000000000E+00  0.00000000000E+00  0.39863973686E+04  0.39863973686E+04  0.00000000000E+00 0.  1.
          4   -1    0    0  501    0  0.00000000000E+00 -0.00000000000E+00 -0.11541528638E+04  0.11541528638E+04  0.00000000000E+00 0. -1.
         24    2    1    2    0    0  0.20411804013E+04 -0.53466741479E+02  0.15661386055E+04  0.25745390977E+04  0.78646748541E+02 0.  0.
        254    2    1    2    0    0 -0.20411804013E+04  0.53466741479E+02  0.12661058993E+04  0.25660111347E+04  0.90117305338E+03 0.  0.
         23    2    4    4    0    0 -0.88303434764E+03  0.86401352850E+02  0.10603956857E+04  0.13858302954E+04  0.94189939215E+02 0.  0.
         23    2    4    4    0    0 -0.11581460537E+04 -0.32934611370E+02  0.20571021365E+03  0.11801808393E+04  0.90128526083E+02 0.  0.
          4    1    3    3  502    0  0.30495699338E+03 -0.36023430494E+02  0.23307987084E+03  0.38551612359E+03  0.00000000000E+00 0. -1.
         -3    1    3    3    0  502  0.17362234079E+04 -0.17443310985E+02  0.13330587346E+04  0.21890229741E+04  0.00000000000E+00 0.  1.
         11    1    5    5    0    0 -0.79831521568E+03  0.77863665971E+02  0.99739597673E+03  0.12799096329E+04  0.00000000000E+00 0. -1.
        -11    1    5    5    0    0 -0.84719131957E+02  0.85376868792E+01  0.62999708926E+02  0.10592066249E+03  0.00000000000E+00 0.  1.
          4    1    6    6  503    0 -0.94497959304E+03 -0.26274964906E+02  0.13191621525E+03  0.95450442266E+03  0.00000000000E+00 0. -1.
         -4    1    6    6    0  503 -0.21316646063E+03 -0.66596464646E+01  0.73793998405E+02  0.22567641665E+03  0.00000000000E+00 0.  1.
<mgrwt>
<rscale>  0 0.42899473E+04</rscale>
<asrwt>0</asrwt>
<pdfrwt beam="1">  1        4 0.17756198E+00 0.42899473E+04</pdfrwt>
<pdfrwt beam="2">  1       -3 0.61329190E+00 0.42899473E+04</pdfrwt>
<totfact> 0.24967667E-04</totfact>
</mgrwt>
</event>
<event>
12    6  0.1611689E-007  0.2333910E+04  0.7818608E-02  0.8464670E-01
         -1   -1    0    0    0  501 -0.00000000000E+00  0.00000000000E+00  0.86724004810E+03  0.86724004810E+03  0.00000000000E+00 0.  1.
          2   -1    0    0  501    0  0.00000000000E+00 -0.00000000000E+00 -0.15702500754E+04  0.15702500754E+04  0.00000000000E+00 0. -1.
         24    2    1    2    0    0  0.50945920665E+02  0.92872733556E+03 -0.67114485367E+03  0.11495562904E+04  0.76904482914E+02 0.  0.
        254    2    1    2    0    0 -0.50945920665E+02 -0.92872733556E+03 -0.31865173621E+02  0.12879338331E+04  0.89029670252E+03 0.  0.
         23    2    4    4    0    0  0.16148364860E+03 -0.67180849206E+03  0.34397598176E+03  0.77708120142E+03  0.90178150381E+02 0.  0.
         23    2    4    4    0    0 -0.21242956927E+03 -0.25691884350E+03 -0.37584115538E+03  0.51085263168E+03  0.92629494075E+02 0.  0.
          4    1    3    3  502    0  0.22014760529E+02  0.73491110010E+03 -0.56043823438E+03  0.92448363387E+03  0.00000000000E+00 0. -1.
         -3    1    3    3    0  502  0.28931160137E+02  0.19381623546E+03 -0.11070661928E+03  0.22507265651E+03  0.00000000000E+00 0.  1.
         11    1    5    5    0    0  0.15175586286E+03 -0.62688161720E+03  0.29294012969E+03  0.70839559815E+03  0.00000000000E+00 0. -1.
        -11    1    5    5    0    0  0.97277857374E+01 -0.44926874858E+02  0.51035852073E+02  0.68685603271E+02  0.00000000000E+00 0.  1.
          3    1    6    6  503    0 -0.18775439631E+03 -0.17413391151E+03 -0.31089327516E+03  0.40277656462E+03  0.00000000000E+00 0. -1.
         -3    1    6    6    0  503 -0.24675172962E+02 -0.82784931993E+02 -0.64947880223E+02  0.10807606706E+03  0.00000000000E+00 0.  1.
<mgrwt>
<rscale>  0 0.23339098E+04</rscale>
<asrwt>0</asrwt>
<pdfrwt beam="1">  1        2 0.24157693E+00 0.23339098E+04</pdfrwt>
<pdfrwt beam="2">  1       -1 0.13342155E+00 0.23339098E+04</pdfrwt>
<totfact> 0.56651481E+00</totfact>
</mgrwt>
</event>
<event>
12    6  0.1611689E-007  0.2289177E+04  0.7818608E-02  0.8482201E-01
         -1   -1    0    0    0  501 -0.00000000000E+00  0.00000000000E+00  0.65691566757E+03  0.65691566757E+03  0.00000000000E+00 0.  1.
          2   -1    0    0  501    0  0.00000000000E+00 -0.00000000000E+00 -0.19942939717E+04  0.19942939717E+04  0.00000000000E+00 0. -1.
         24    2    1    2    0    0  0.52997344615E+03  0.37090489177E+02  0.36672109553E+03  0.65058867798E+03  0.80831355299E+02 0.  0.
        254    2    1    2    0    0 -0.52997344615E+03 -0.37090489177E+02 -0.17040993997E+04  0.20006209613E+04  0.90348320891E+03 0.  0.
         23    2    4    4    0    0 -0.23381169381E+03 -0.45829569332E+03 -0.91492978284E+03  0.10538867425E+04  0.94222649704E+02 0.  0.
         23    2    4    4    0    0 -0.29616175234E+03  0.42120520415E+03 -0.78916961682E+03  0.94673421882E+03  0.91604527336E+02 0.  0.
          2    1    3    3  502    0  0.17840630175E+02  0.38757525732E+01 -0.24126194652E+01  0.18415490103E+02  0.00000000000E+00 0. -1.
         -1    1    3    3    0  502  0.51213281598E+03  0.33214736604E+02  0.36913371500E+03  0.63217318788E+03  0.00000000000E+00 0.  1.
         11    1    5    5    0    0 -0.13082775357E+03 -0.34460422067E+03 -0.61493198091E+03  0.71694442682E+03  0.00000000000E+00 0.  1.
        -11    1    5    5    0    0 -0.10298394024E+03 -0.11369147266E+03 -0.29999780193E+03  0.33694231564E+03  0.00000000000E+00 0. -1.
          4    1    6    6  503    0 -0.27821008481E+03  0.33785615635E+03 -0.65484785846E+03  0.78763783010E+03  0.00000000000E+00 0.  1.
         -4    1    6    6    0  503 -0.17951667526E+02  0.83349047793E+02 -0.13432175837E+03  0.15909638873E+03  0.00000000000E+00 0. -1.
<mgrwt>
<rscale>  0 0.22891771E+04</rscale>
<asrwt>0</asrwt>
<pdfrwt beam="1">  1        2 0.30681445E+00 0.22891771E+04</pdfrwt>
<pdfrwt beam="2">  1       -1 0.10106395E+00 0.22891771E+04</pdfrwt>
<totfact> 0.64652120E+00</totfact>
</mgrwt>
</event>
<event>
12    6  0.1611689E-007  0.1375796E+04  0.7818608E-02  0.8971528E-01
          2   -1    0    0  501    0  0.00000000000E+00  0.00000000000E+00  0.91595144124E+03  0.91595144124E+03  0.00000000000E+00 0. -1.
         -1   -1    0    0    0  501 -0.00000000000E+00 -0.00000000000E+00 -0.51662492542E+03  0.51662492542E+03  0.00000000000E+00 0.  1.
         24    2    1    2    0    0 -0.13306060731E+03  0.19043719322E+03 -0.22872176585E+03  0.33543727488E+03  0.78949790531E+02 0.  0.
        254    2    1    2    0    0  0.13306060731E+03 -0.19043719322E+03  0.62804828167E+03  0.10971390918E+04  0.86907887606E+03 0.  0.
         23    2    4    4    0    0  0.36110933584E+03  0.31144659846E+02 -0.15699200656E+02  0.37311930919E+03  0.87187222247E+02 0.  0.
         23    2    4    4    0    0 -0.22804872853E+03 -0.22158185307E+03  0.64374748233E+03  0.72401978259E+03  0.93215258302E+02 0.  0.
          2    1    3    3  502    0 -0.25714026338E+01 -0.69298127346E+01 -0.18077402807E+01  0.76093587749E+01  0.00000000000E+00 0. -1.
         -1    1    3    3    0  502 -0.13048920468E+03  0.19736700596E+03 -0.22691402557E+03  0.32782791610E+03  0.00000000000E+00 0.  1.
         11    1    5    5    0    0  0.29940856647E+03  0.56399238879E+02 -0.20902876968E+00  0.30467426461E+03  0.00000000000E+00 0. -1.
        -11    1    5    5    0    0  0.61700769368E+02 -0.25254579033E+02 -0.15490171886E+02  0.68445044582E+02  0.00000000000E+00 0.  1.
          4    1    6    6  503    0 -0.58118720192E+02 -0.11416538572E+03  0.29222777217E+03  0.31907458651E+03  0.00000000000E+00 0. -1.
         -4    1    6    6    0  503 -0.16993000834E+03 -0.10741646735E+03  0.35151971016E+03  0.40494519607E+03  0.00000000000E+00 0.  1.
<mgrwt>
<rscale>  0 0.13757955E+04</rscale>
<asrwt>0</asrwt>
<pdfrwt beam="1">  1        2 0.14091561E+00 0.13757955E+04</pdfrwt>
<pdfrwt beam="2">  1       -1 0.79480758E-01 0.13757955E+04</pdfrwt>
<totfact> 0.50355741E+01</totfact>
</mgrwt>
</event>
<event>
12    6  0.1611689E-007  0.1519256E+04  0.7818608E-02  0.8871748E-01
         -1   -1    0    0    0  501 -0.00000000000E+00  0.00000000000E+00  0.37739297472E+03  0.37739297472E+03  0.00000000000E+00 0.  1.
          2   -1    0    0  501    0  0.00000000000E+00 -0.00000000000E+00 -0.15290023402E+04  0.15290023402E+04  0.00000000000E+00 0. -1.
         24    2    1    2    0    0  0.12192139292E+03  0.21568623895E+03 -0.91288189733E+03  0.94947238277E+03  0.82213547798E+02 0.  0.
        254    2    1    2    0    0 -0.12192139292E+03 -0.21568623895E+03 -0.23872746818E+03  0.95692293218E+03  0.89293074443E+03 0.  0.
         23    2    4    4    0    0  0.33397127958E+03 -0.52363357909E+02  0.93222999971E+02  0.36265974178E+03  0.92481477868E+02 0.  0.
         23    2    4    4    0    0 -0.45589267251E+03 -0.16332288105E+03 -0.33195046815E+03  0.59426319040E+03  0.91897409327E+02 0.  0.
          2    1    3    3  502    0  0.12840113329E+03  0.20293116196E+03 -0.89452966701E+03  0.92620258728E+03  0.00000000000E+00 0. -1.
         -1    1    3    3    0  502 -0.64797403660E+01  0.12755076994E+02 -0.18352230319E+02  0.23269795488E+02  0.00000000000E+00 0.  1.
         11    1    5    5    0    0  0.24738241760E+03 -0.77186650864E+02  0.82430869745E+02  0.27193875762E+03  0.00000000000E+00 0.  1.
        -11    1    5    5    0    0  0.86588861979E+02  0.24823292955E+02  0.10792130226E+02  0.90720984159E+02  0.00000000000E+00 0. -1.
          3    1    6    6  503    0  0.26733583861E+01  0.39096152858E+01 -0.41614487773E+01  0.63047278030E+01  0.00000000000E+00 0. -1.
         -3    1    6    6    0  503 -0.45856603089E+03 -0.16723249633E+03 -0.32778901937E+03  0.58795846260E+03  0.00000000000E+00 0.  1.
<mgrwt>
<rscale>  0 0.15192561E+04</rscale>
<asrwt>0</asrwt>
<pdfrwt beam="1">  1        2 0.23523113E+00 0.15192561E+04</pdfrwt>
<pdfrwt beam="2">  1       -1 0.58060459E-01 0.15192561E+04</pdfrwt>
<totfact> 0.40386362E+01</totfact>
</mgrwt>
</event>
<event>
12    6  0.1611689E-007  0.1685096E+04  0.7818608E-02  0.8769911E-01
         -1   -1    0    0    0  501 -0.00000000000E+00  0.00000000000E+00  0.35505146260E+03  0.35505146260E+03  0.00000000000E+00 0.  1.
          2   -1    0    0  501    0  0.00000000000E+00 -0.00000000000E+00 -0.19993925652E+04  0.19993925652E+04  0.00000000000E+00 0. -1.
         24    2    1    2    0    0 -0.34812147182E+03 -0.11001774152E+03 -0.12605547521E+04  0.13149437421E+04  0.82378997054E+02 0.  0.
        254    2    1    2    0    0  0.34812147182E+03  0.11001774152E+03 -0.38378635044E+03  0.10395002857E+04  0.89441400848E+03 0.  0.
         23    2    4    4    0    0  0.93029583481E+02  0.29847255411E+03  0.19028276781E+03  0.37729230407E+03  0.91660144151E+02 0.  0.
         23    2    4    4    0    0  0.25509188834E+03 -0.18845481260E+03 -0.57406911825E+03  0.66220798161E+03  0.91525791430E+02 0.  0.
          4    1    3    3  502    0 -0.25755919480E+03 -0.65540671077E+02 -0.10206921677E+04  0.10547249971E+04  0.00000000000E+00 0. -1.
         -3    1    3    3    0  502 -0.90562277021E+02 -0.44477070439E+02 -0.23986258445E+03  0.26021874497E+03  0.00000000000E+00 0.  1.
         11    1    5    5    0    0  0.58129681445E+02  0.21615978788E+03  0.18012050898E+03  0.28731082736E+03  0.00000000000E+00 0. -1.
        -11    1    5    5    0    0  0.34899902036E+02  0.82312766234E+02  0.10162258825E+02  0.89981476714E+02  0.00000000000E+00 0.  1.
          1    1    6    6  503    0  0.19858968965E+03 -0.16278406302E+03 -0.51980167083E+03  0.57976744735E+03  0.00000000000E+00 0. -1.
         -1    1    6    6    0  503  0.56502198686E+02 -0.25670749575E+02 -0.54267447422E+02  0.82440534265E+02  0.00000000000E+00 0.  1.
<mgrwt>
<rscale>  0 0.16850961E+04</rscale>
<asrwt>0</asrwt>
<pdfrwt beam="1">  1        2 0.30759885E+00 0.16850961E+04</pdfrwt>
<pdfrwt beam="2">  1       -1 0.54623303E-01 0.16850961E+04</pdfrwt>
<totfact> 0.24568578E+01</totfact>
</mgrwt>
</event>
<event>
12    6  0.1611689E-007  0.2180335E+04  0.7818608E-02  0.8526658E-01
          2   -1    0    0  501    0  0.00000000000E+00  0.00000000000E+00  0.15972130718E+04  0.15972130718E+04  0.00000000000E+00 0. -1.
         -1   -1    0    0    0  501 -0.00000000000E+00 -0.00000000000E+00 -0.74408675414E+03  0.74408675414E+03  0.00000000000E+00 0.  1.
         24    2    1    2    0    0 -0.69244013808E+03  0.39946174822E+03 -0.78212534153E+02  0.80707949291E+03  0.78848425801E+02 0.  0.
        254    2    1    2    0    0  0.69244013808E+03 -0.39946174822E+03  0.93133885183E+03  0.15342203331E+04  0.92054165595E+03 0.  0.
         23    2    4    4    0    0 -0.30111966273E+02 -0.47570991832E+03  0.33482081685E+03  0.58967259271E+03  0.91663134878E+02 0.  0.
         23    2    4    4    0    0  0.72255210436E+03  0.76248170102E+02  0.59651803498E+03  0.94454774035E+03  0.91876769585E+02 0.  0.
          4    1    3    3  502    0 -0.58920915790E+03  0.30662563058E+03 -0.57421633542E+02  0.66669629748E+03  0.00000000000E+00 0. -1.
         -3    1    3    3    0  502 -0.10323098018E+03  0.92836117645E+02 -0.20790900611E+02  0.14038319542E+03  0.00000000000E+00 0.  1.
         11    1    5    5    0    0 -0.62149025935E+02 -0.26833991311E+03  0.19659452274E+03  0.33840540298E+03  0.00000000000E+00 0. -1.
        -11    1    5    5    0    0  0.32037059662E+02 -0.20737000521E+03  0.13822629411E+03  0.25126718973E+03  0.00000000000E+00 0.  1.
          3    1    6    6  503    0  0.64579656498E+03  0.38938478442E+02  0.52390114930E+03  0.83249133490E+03  0.00000000000E+00 0. -1.
         -3    1    6    6    0  503  0.76755539374E+02  0.37309691659E+02  0.72616885688E+02  0.11205640545E+03  0.00000000000E+00 0.  1.
<mgrwt>
<rscale>  0 0.21803349E+04</rscale>
<asrwt>0</asrwt>
<pdfrwt beam="1">  1        2 0.24572509E+00 0.21803349E+04</pdfrwt>
<pdfrwt beam="2">  1       -1 0.11447489E+00 0.21803349E+04</pdfrwt>
<totfact> 0.80994808E+00</totfact>
</mgrwt>
</event>
<event>
12    6  0.1611689E-007  0.2685242E+04  0.7818608E-02  0.8339809E-01
          2   -1    0    0  501    0  0.00000000000E+00  0.00000000000E+00  0.30119009293E+04  0.30119009293E+04  0.00000000000E+00 0. -1.
         -1   -1    0    0    0  501 -0.00000000000E+00 -0.00000000000E+00 -0.59850270394E+03  0.59850270394E+03  0.00000000000E+00 0.  1.
         24    2    1    2    0    0 -0.36724301573E+02 -0.86357644974E+03  0.22096341104E+04  0.23740056069E+04  0.79415119182E+02 0.  0.
        254    2    1    2    0    0  0.36724301573E+02  0.86357644974E+03  0.20376411501E+03  0.12363980263E+04  0.86026002236E+03 0.  0.
         23    2    4    4    0    0  0.10544166101E+03  0.96661700238E+03 -0.41395278136E+01  0.97666574658E+03  0.91610434353E+02 0.  0.
         23    2    4    4    0    0 -0.68717359439E+02 -0.10304055263E+03  0.20790364283E+03  0.25973227976E+03  0.94326568222E+02 0.  0.
          2    1    3    3  502    0 -0.16316017180E+01 -0.52612390521E+03  0.14315710967E+04  0.15251900966E+04  0.00000000000E+00 0. -1.
         -1    1    3    3    0  502 -0.35092699856E+02 -0.33745254454E+03  0.77806301368E+03  0.84881551038E+03  0.00000000000E+00 0.  1.
         11    1    5    5    0    0  0.75557455881E+02  0.30065935163E+03  0.16760038345E+01  0.31001255434E+03  0.00000000000E+00 0. -1.
        -11    1    5    5    0    0  0.29884205132E+02  0.66595765075E+03 -0.58155316481E+01  0.66665319224E+03  0.00000000000E+00 0.  1.
          2    1    6    6  503    0 -0.59394985948E+02 -0.11988169775E+03  0.19527526988E+03  0.23671040712E+03  0.00000000000E+00 0. -1.
         -2    1    6    6    0  503 -0.93223734909E+01  0.16841145120E+02  0.12628372942E+02  0.23021872635E+02  0.00000000000E+00 0.  1.
<mgrwt>
<rscale>  0 0.26852418E+04</rscale>
<asrwt>0</asrwt>
<pdfrwt beam="1">  1        2 0.46336936E+00 0.26852418E+04</pdfrwt>
<pdfrwt beam="2">  1       -1 0.92077341E-01 0.26852418E+04</pdfrwt>
<totfact> 0.19618495E+00</totfact>
</mgrwt>
</event>
<event>
12    6  0.1611689E-007  0.3189390E+04  0.7818608E-02  0.8191625E-01
         -1   -1    0    0    0  501 -0.00000000000E+00  0.00000000000E+00  0.15152727508E+04  0.15152727508E+04  0.00000000000E+00 0.  1.
          2   -1    0    0  501    0  0.00000000000E+00 -0.00000000000E+00 -0.16782801586E+04  0.16782801586E+04  0.00000000000E+00 0. -1.
         24    2    1    2    0    0  0.18683737827E+02  0.35702748523E+03  0.13497242473E+04  0.13986367797E+04  0.81311687934E+02 0.  0.
        254    2    1    2    0    0 -0.18683737827E+02 -0.35702748523E+03 -0.15127316551E+04  0.17949161297E+04  0.89752389683E+03 0.  0.
         23    2    4    4    0    0 -0.12618893241E+03  0.18524142802E+03 -0.75938848829E+02  0.25267103397E+03  0.88531967805E+02 0.  0.
         23    2    4    4    0    0  0.10750519459E+03 -0.54226891325E+03 -0.14367928062E+04  0.15422450958E+04  0.92376546352E+02 0.  0.
          2    1    3    3  502    0  0.48398134041E+01  0.45678346343E+02  0.91415643671E+02  0.10230716019E+03  0.00000000000E+00 0. -1.
         -1    1    3    3    0  502  0.13843924423E+02  0.31134913888E+03  0.12583086036E+04  0.12963296195E+04  0.00000000000E+00 0.  1.
         11    1    5    5    0    0 -0.45568021393E+02  0.80798026822E+01 -0.12243926361E+02  0.47871092716E+02  0.00000000000E+00 0.  1.
        -11    1    5    5    0    0 -0.80620911021E+02  0.17716162534E+03 -0.63694922468E+02  0.20479994125E+03  0.00000000000E+00 0. -1.
          3    1    6    6  503    0  0.11858401864E+03 -0.46093568566E+03 -0.11696819898E+04  0.12628063323E+04  0.00000000000E+00 0. -1.
         -3    1    6    6    0  503 -0.11078824048E+02 -0.81333227589E+02 -0.26711081645E+03  0.27943876344E+03  0.00000000000E+00 0.  1.
<mgrwt>
<rscale>  0 0.31893900E+04</rscale>
<asrwt>0</asrwt>
<pdfrwt beam="1">  1        2 0.25819695E+00 0.31893900E+04</pdfrwt>
<pdfrwt beam="2">  1       -1 0.23311888E+00 0.31893900E+04</pdfrwt>
<totfact> 0.87063661E-01</totfact>
</mgrwt>
</event>
<event>
12    6  0.1611689E-007  0.1365529E+04  0.7818608E-02  0.8979156E-01
          2   -1    0    0  501    0  0.00000000000E+00  0.00000000000E+00  0.74045189067E+03  0.74045189067E+03  0.00000000000E+00 0. -1.
         -1   -1    0    0    0  501 -0.00000000000E+00 -0.00000000000E+00 -0.62957098621E+03  0.62957098621E+03  0.00000000000E+00 0.  1.
         24    2    1    2    0    0  0.29765331482E+03  0.11535253438E+02 -0.19820965747E+03  0.36725284992E+03  0.82807183017E+02 0.  0.
        254    2    1    2    0    0 -0.29765331482E+03 -0.11535253438E+02  0.30909056193E+03  0.10027700270E+04  0.90624510680E+03 0.  0.
         23    2    4    4    0    0 -0.16259952489E+03  0.43357196422E+03  0.91071664902E+02  0.48137681651E+03  0.94901726389E+02 0.  0.
         23    2    4    4    0    0 -0.13505378994E+03 -0.44510721766E+03  0.21801889703E+03  0.52139321045E+03  0.89211428973E+02 0.  0.
          2    1    3    3  502    0  0.46417283251E+02  0.13823356397E+02 -0.20069167084E+01  0.48473467806E+02  0.00000000000E+00 0. -1.
         -1    1    3    3    0  502  0.25123603157E+03 -0.22881029592E+01 -0.19620274076E+03  0.31877938211E+03  0.00000000000E+00 0.  1.
         11    1    5    5    0    0 -0.13633735194E+03  0.27681030582E+03  0.26106243851E+02  0.30966652210E+03  0.00000000000E+00 0. -1.
        -11    1    5    5    0    0 -0.26262172941E+02  0.15676165840E+03  0.64965421051E+02  0.17171029440E+03  0.00000000000E+00 0.  1.
          1    1    6    6  503    0 -0.13377583794E+03 -0.44051163357E+03  0.22540931186E+03  0.51259714396E+03  0.00000000000E+00 0. -1.
         -1    1    6    6    0  503 -0.12779519932E+01 -0.45955840877E+01 -0.73904148271E+01  0.87960664914E+01  0.00000000000E+00 0.  1.
<mgrwt>
<rscale>  0 0.13655285E+04</rscale>
<asrwt>0</asrwt>
<pdfrwt beam="1">  1        2 0.11391568E+00 0.13655285E+04</pdfrwt>
<pdfrwt beam="2">  1       -1 0.96857075E-01 0.13655285E+04</pdfrwt>
<totfact> 0.43566417E+01</totfact>
</mgrwt>
</event>
<event>
12    6  0.1611689E-007  0.1779585E+04  0.7818608E-02  0.8717232E-01
         -1   -1    0    0    0  501 -0.00000000000E+00  0.00000000000E+00  0.39839380887E+03  0.39839380887E+03  0.00000000000E+00 0.  1.
          2   -1    0    0  501    0  0.00000000000E+00 -0.00000000000E+00 -0.19873060733E+04  0.19873060733E+04  0.00000000000E+00 0. -1.
         24    2    1    2    0    0 -0.15362893762E+03  0.55590048570E+03 -0.10330584078E+04  0.11858792844E+04  0.80453731028E+02 0.  0.
        254    2    1    2    0    0  0.15362893762E+03 -0.55590048570E+03 -0.55585385670E+03  0.11998205978E+04  0.89329096963E+03 0.  0.
         23    2    4    4    0    0  0.29199961407E+03  0.14592467363E+03 -0.14208796246E+03  0.36743067232E+03  0.90876426475E+02 0.  0.
         23    2    4    4    0    0 -0.13837067645E+03 -0.70182515933E+03 -0.41376589424E+03  0.83238992548E+03  0.99828725530E+02 0.  0.
          4    1    3    3  502    0 -0.59441317834E+02  0.26728472987E+03 -0.56709241655E+03  0.62973661637E+03  0.00000000000E+00 0. -1.
         -3    1    3    3    0  502 -0.94187619788E+02  0.28861575583E+03 -0.46596599122E+03  0.55614266803E+03  0.00000000000E+00 0.  1.
         11    1    5    5    0    0  0.14287293738E+03  0.66475667457E+02 -0.11775402791E+03  0.19671731416E+03  0.00000000000E+00 0. -1.
        -11    1    5    5    0    0  0.14912667669E+03  0.79449006172E+02 -0.24333934549E+02  0.17071335816E+03  0.00000000000E+00 0.  1.
          2    1    6    6  503    0 -0.94192037969E+02 -0.39221380241E+03 -0.17882860746E+03  0.44122950679E+03  0.00000000000E+00 0. -1.
         -2    1    6    6    0  503 -0.44178638484E+02 -0.30961135692E+03 -0.23493728678E+03  0.39116041869E+03  0.00000000000E+00 0.  1.
<mgrwt>
<rscale>  0 0.17795847E+04</rscale>
<asrwt>0</asrwt>
<pdfrwt beam="1">  1        2 0.30573939E+00 0.17795847E+04</pdfrwt>
<pdfrwt beam="2">  1       -1 0.61291356E-01 0.17795847E+04</pdfrwt>
<totfact> 0.19744539E+01</totfact>
</mgrwt>
</event>
<event>
12    6  0.1611689E-007  0.2360543E+04  0.7818608E-02  0.8454425E-01
          2   -1    0    0  501    0  0.00000000000E+00  0.00000000000E+00  0.10314865488E+04  0.10314865488E+04  0.00000000000E+00 0. -1.
         -1   -1    0    0    0  501 -0.00000000000E+00 -0.00000000000E+00 -0.13505181248E+04  0.13505181248E+04  0.00000000000E+00 0.  1.
         24    2    1    2    0    0 -0.68827462598E+03  0.17368807866E+03  0.59092238325E+03  0.92706640646E+03  0.79833260794E+02 0.  0.
        254    2    1    2    0    0  0.68827462598E+03 -0.17368807866E+03 -0.90995395928E+03  0.14549382671E+04  0.88596819568E+03 0.  0.
         23    2    4    4    0    0  0.55673072523E+03  0.29114827091E+03 -0.42166126616E+03  0.76208226633E+03  0.90855606382E+02 0.  0.
         23    2    4    4    0    0  0.13154390075E+03 -0.46483634956E+03 -0.48829269313E+03  0.69285600082E+03  0.90791266135E+02 0.  0.
          2    1    3    3  502    0 -0.62770963157E+03  0.18003560358E+03  0.53142496101E+03  0.84192914744E+03  0.00000000000E+00 0. -1.
         -1    1    3    3    0  502 -0.60564994407E+02 -0.63475249273E+01  0.59497422246E+02  0.85137259024E+02  0.00000000000E+00 0.  1.
         11    1    5    5    0    0  0.34095317375E+03  0.22629605109E+03 -0.26124771252E+03  0.48549905945E+03  0.00000000000E+00 0.  1.
        -11    1    5    5    0    0  0.21577755148E+03  0.64852219815E+02 -0.16041355364E+03  0.27658320688E+03  0.00000000000E+00 0. -1.
          2    1    6    6  503    0  0.48139678780E+02 -0.12176778018E+03 -0.18946677751E+03  0.23030953246E+03  0.00000000000E+00 0. -1.
         -2    1    6    6    0  503  0.83404221967E+02 -0.34306856939E+03 -0.29882591561E+03  0.46254646835E+03  0.00000000000E+00 0.  1.
<mgrwt>
<rscale>  0 0.23605434E+04</rscale>
<asrwt>0</asrwt>
<pdfrwt beam="1">  1        2 0.15869024E+00 0.23605434E+04</pdfrwt>
<pdfrwt beam="2">  1       -1 0.20777202E+00 0.23605434E+04</pdfrwt>
<totfact> 0.32928629E+00</totfact>
</mgrwt>
</event>
<event>
12    6  0.1611689E-007  0.1699844E+04  0.7818608E-02  0.8761453E-01
          2   -1    0    0  501    0  0.00000000000E+00  0.00000000000E+00  0.54250202484E+03  0.54250202484E+03  0.00000000000E+00 0. -1.
         -1   -1    0    0    0  501 -0.00000000000E+00 -0.00000000000E+00 -0.13315479445E+04  0.13315479445E+04  0.00000000000E+00 0.  1.
         24    2    1    2    0    0  0.27952267525E+03  0.49658577582E+03 -0.82403614959E+02  0.58164800300E+03  0.82423812767E+02 0.  0.
        254    2    1    2    0    0 -0.27952267525E+03 -0.49658577582E+03 -0.70664230470E+03  0.12924019663E+04  0.91990713504E+03 0.  0.
         23    2    4    4    0    0  0.71020108723E+02  0.15329213168E+03  0.81846779551E+02  0.20834130465E+03  0.90359672537E+02 0.  0.
         23    2    4    4    0    0 -0.35054278397E+03 -0.64987790750E+03 -0.78848908426E+03  0.10840606617E+04  0.90834708123E+02 0.  0.
          4    1    3    3  502    0  0.16185026444E+03  0.21670152644E+03 -0.16578881232E+02  0.27097955451E+03  0.00000000000E+00 0. -1.
         -3    1    3    3    0  502  0.11767241082E+03  0.27988424938E+03 -0.65824733727E+02  0.31066844849E+03  0.00000000000E+00 0.  1.
         11    1    5    5    0    0  0.66845782844E+01  0.11688732518E+03  0.58082551718E+02  0.13069396768E+03  0.00000000000E+00 0.  1.
        -11    1    5    5    0    0  0.64335530438E+02  0.36404806500E+02  0.23764227833E+02  0.77647336964E+02  0.00000000000E+00 0. -1.
          2    1    6    6  503    0 -0.25485167979E+03 -0.38033541012E+03 -0.49422643675E+03  0.67369442158E+03  0.00000000000E+00 0. -1.
         -2    1    6    6    0  503 -0.95691104186E+02 -0.26954249738E+03 -0.29426264751E+03  0.41036624012E+03  0.00000000000E+00 0.  1.
<mgrwt>
<rscale>  0 0.16998441E+04</rscale>
<asrwt>0</asrwt>
<pdfrwt beam="1">  1        2 0.83461850E-01 0.16998441E+04</pdfrwt>
<pdfrwt beam="2">  1       -1 0.20485353E+00 0.16998441E+04</pdfrwt>
<totfact> 0.84784643E+00</totfact>
</mgrwt>
</event>
<event>
12    6  0.1611689E-007  0.1761016E+04  0.7818608E-02  0.8727310E-01
         -1   -1    0    0    0  501 -0.00000000000E+00  0.00000000000E+00  0.37255327865E+03  0.37255327865E+03  0.00000000000E+00 0.  1.
          2   -1    0    0  501    0  0.00000000000E+00 -0.00000000000E+00 -0.20810296697E+04  0.20810296697E+04  0.00000000000E+00 0. -1.
         24    2    1    2    0    0  0.13024801422E+03 -0.28908898116E+03 -0.13977261571E+04  0.14357923624E+04  0.85582202728E+02 0.  0.
        254    2    1    2    0    0 -0.13024801422E+03  0.28908898116E+03 -0.31075023389E+03  0.10177905859E+04  0.91585751330E+03 0.  0.
         23    2    4    4    0    0 -0.38547809293E+03 -0.79810849642E+02 -0.38022809189E+03  0.55482525861E+03  0.91074331605E+02 0.  0.
         23    2    4    4    0    0  0.25523007871E+03  0.36889983080E+03  0.69477858005E+02  0.46296532730E+03  0.90995842142E+02 0.  0.
          2    1    3    3  502    0  0.13001673521E+03 -0.28636443251E+03 -0.13980968009E+04  0.14330330088E+04  0.00000000000E+00 0. -1.
         -1    1    3    3    0  502  0.23127900866E+00 -0.27245486478E+01  0.37064381049E+00  0.27593535744E+01  0.00000000000E+00 0.  1.
         11    1    5    5    0    0 -0.90137790039E+02 -0.28825992432E+02 -0.14802226093E+03  0.17568821464E+03  0.00000000000E+00 0.  1.
        -11    1    5    5    0    0 -0.29534030289E+03 -0.50984857210E+02 -0.23220583096E+03  0.37913704397E+03  0.00000000000E+00 0. -1.
          3    1    6    6  503    0  0.13097939398E+03  0.12782036141E+03  0.81004917340E-01  0.18301271268E+03  0.00000000000E+00 0. -1.
         -3    1    6    6    0  503  0.12425068472E+03  0.24107946939E+03  0.69396853087E+02  0.27995261462E+03  0.00000000000E+00 0.  1.
<mgrwt>
<rscale>  0 0.17610161E+04</rscale>
<asrwt>0</asrwt>
<pdfrwt beam="1">  1        2 0.32015841E+00 0.17610161E+04</pdfrwt>
<pdfrwt beam="2">  1       -1 0.57315889E-01 0.17610161E+04</pdfrwt>
<totfact> 0.20020292E+01</totfact>
</mgrwt>
</event>
<event>
12    6  0.1611689E-007  0.2013526E+04  0.7818608E-02  0.8600323E-01
         -1   -1    0    0    0  501 -0.00000000000E+00  0.00000000000E+00  0.32572975446E+03  0.32572975446E+03  0.00000000000E+00 0.  1.
          2   -1    0    0  501    0  0.00000000000E+00 -0.00000000000E+00 -0.31116939959E+04  0.31116939959E+04  0.00000000000E+00 0. -1.
         24    2    1    2    0    0  0.14025891345E+02 -0.23608915402E+03 -0.23653007479E+04  0.23784663200E+04  0.80743995801E+02 0.  0.
        254    2    1    2    0    0 -0.14025891345E+02  0.23608915402E+03 -0.42066349358E+03  0.10589574304E+04  0.94260185147E+03 0.  0.
         23    2    4    4    0    0  0.54010638209E+02 -0.51357241916E+02 -0.65920633006E+03  0.66954333894E+03  0.90446568733E+02 0.  0.
         23    2    4    4    0    0 -0.68036529554E+02  0.28744639594E+03  0.23854283648E+03  0.38941409150E+03  0.86523117884E+02 0.  0.
          4    1    3    3  502    0 -0.10200239715E+02 -0.16470615821E+03 -0.18939670574E+04  0.19011426506E+04  0.00000000000E+00 0. -1.
         -3    1    3    3    0  502  0.24226131059E+02 -0.71382995808E+02 -0.47133369053E+03  0.47732366937E+03  0.00000000000E+00 0.  1.
         11    1    5    5    0    0  0.29464382558E+02  0.23753016286E+02 -0.23770530425E+03  0.24069932965E+03  0.00000000000E+00 0.  1.
        -11    1    5    5    0    0  0.24546255652E+02 -0.75110258203E+02 -0.42150102581E+03  0.42884400930E+03  0.00000000000E+00 0. -1.
          3    1    6    6  503    0 -0.69750665838E+02  0.29185162661E+03  0.22496135759E+03  0.37503351817E+03  0.00000000000E+00 0. -1.
         -3    1    6    6    0  503  0.17141362845E+01 -0.44052306710E+01  0.13581478890E+02  0.14380573330E+02  0.00000000000E+00 0.  1.
<mgrwt>
<rscale>  0 0.20135256E+04</rscale>
<asrwt>0</asrwt>
<pdfrwt beam="1">  1        2 0.47872214E+00 0.20135256E+04</pdfrwt>
<pdfrwt beam="2">  1       -1 0.50112271E-01 0.20135256E+04</pdfrwt>
<totfact> 0.62625178E+00</totfact>
</mgrwt>
</event>
<event>
12    6  0.1611689E-007  0.1232829E+04  0.7818608E-02  0.9084597E-01
          2   -1    0    0  501    0  0.00000000000E+00  0.00000000000E+00  0.21859804060E+04  0.21859804060E+04  0.00000000000E+00 0. -1.
         -1   -1    0    0    0  501 -0.00000000000E+00 -0.00000000000E+00 -0.17381990992E+03  0.17381990992E+03  0.00000000000E+00 0.  1.
         24    2    1    2    0    0  0.17040237939E+03  0.10092089015E+03  0.11141018050E+03  0.24466725377E+03  0.90707440578E+02 0.  0.
        254    2    1    2    0    0 -0.17040237939E+03 -0.10092089015E+03  0.19007503156E+04  0.21151330622E+04  0.90648447945E+03 0.  0.
         23    2    4    4    0    0  0.33290945932E+03  0.11781943521E+03  0.63009273492E+03  0.72808728836E+03  0.91564826528E+02 0.  0.
         23    2    4    4    0    0 -0.50331183872E+03 -0.21874032536E+03  0.12706575807E+04  0.13870457738E+04  0.90305893397E+02 0.  0.
          2    1    3    3  502    0 -0.39842695936E+01  0.28021617991E+01 -0.96436523691E+01  0.10804006014E+02  0.00000000000E+00 0. -1.
         -1    1    3    3    0  502  0.17438664899E+03  0.98118728349E+02  0.12105383287E+03  0.23386324775E+03  0.00000000000E+00 0.  1.
         11    1    5    5    0    0  0.53423106194E+02  0.53892302437E+02  0.16692175338E+03  0.18336106536E+03  0.00000000000E+00 0. -1.
        -11    1    5    5    0    0  0.27948635313E+03  0.63927132771E+02  0.46317098154E+03  0.54472622301E+03  0.00000000000E+00 0.  1.
          1    1    6    6  503    0 -0.10257609108E+03 -0.41028055374E+02  0.35628149277E+03  0.37301696728E+03  0.00000000000E+00 0. -1.
         -1    1    6    6    0  503 -0.40073574763E+03 -0.17771226998E+03  0.91437608793E+03  0.10140288065E+04  0.00000000000E+00 0.  1.
<mgrwt>
<rscale>  0 0.12328291E+04</rscale>
<asrwt>0</asrwt>
<pdfrwt beam="1">  1        2 0.33630466E+00 0.12328291E+04</pdfrwt>
<pdfrwt beam="2">  1       -1 0.26741526E-01 0.12328291E+04</pdfrwt>
<totfact> 0.73736819E+01</totfact>
</mgrwt>
</event>
<event>
12    6  0.1611689E-007  0.1587279E+04  0.7818608E-02  0.8828401E-01
         -1   -1    0    0    0  501 -0.00000000000E+00  0.00000000000E+00  0.22471018900E+04  0.22471018900E+04  0.00000000000E+00 0.  1.
          2   -1    0    0  501    0  0.00000000000E+00 -0.00000000000E+00 -0.28030052839E+03  0.28030052839E+03  0.00000000000E+00 0. -1.
         24    2    1    2    0    0 -0.37910721441E+03 -0.15365053021E+03  0.12185382259E+04  0.12878433581E+04  0.79839472784E+02 0.  0.
        254    2    1    2    0    0  0.37910721441E+03  0.15365053021E+03  0.74826313571E+03  0.12395590604E+04  0.89959889862E+03 0.  0.
         23    2    4    4    0    0  0.51856679062E+03  0.32295074968E+03  0.78327568820E+03  0.99779271637E+03  0.94131812116E+02 0.  0.
         23    2    4    4    0    0 -0.13945957621E+03 -0.16930021947E+03 -0.35012552493E+02  0.24176634399E+03  0.95464907383E+02 0.  0.
          4    1    3    3  502    0 -0.18762764379E+03 -0.40369617285E+02  0.63336798248E+03  0.66180725286E+03  0.00000000000E+00 0. -1.
         -3    1    3    3    0  502 -0.19147957062E+03 -0.11328091292E+03  0.58517024345E+03  0.62603610520E+03  0.00000000000E+00 0.  1.
         11    1    5    5    0    0  0.39727995927E+03  0.21096181976E+03  0.52598211844E+03  0.69209352284E+03  0.00000000000E+00 0. -1.
        -11    1    5    5    0    0  0.12128683135E+03  0.11198892992E+03  0.25729356976E+03  0.30569919353E+03  0.00000000000E+00 0.  1.
          3    1    6    6  503    0 -0.15037133486E+03 -0.13792362666E+03 -0.40695557039E+02  0.20806391686E+03  0.00000000000E+00 0. -1.
         -3    1    6    6    0  503  0.10911758646E+02 -0.31376592812E+02  0.56830045463E+01  0.33702427122E+02  0.00000000000E+00 0.  1.
<mgrwt>
<rscale>  0 0.15872792E+04</rscale>
<asrwt>0</asrwt>
<pdfrwt beam="1">  1        2 0.43123160E-01 0.15872792E+04</pdfrwt>
<pdfrwt beam="2">  1       -1 0.34570797E+00 0.15872792E+04</pdfrwt>
<totfact> 0.21679767E+00</totfact>
</mgrwt>
</event>
<event>
12    6  0.1611689E-007  0.1547957E+04  0.7818608E-02  0.8853174E-01
          2   -1    0    0  501    0  0.00000000000E+00  0.00000000000E+00  0.12991001811E+04  0.12991001811E+04  0.00000000000E+00 0. -1.
         -1   -1    0    0    0  501 -0.00000000000E+00 -0.00000000000E+00 -0.46112116094E+03  0.46112116094E+03  0.00000000000E+00 0.  1.
         24    2    1    2    0    0  0.25572401847E+03  0.34053293845E+03  0.59424517739E+03  0.73536855305E+03  0.79259839566E+02 0.  0.
        254    2    1    2    0    0 -0.25572401847E+03 -0.34053293845E+03  0.24373384280E+03  0.10248527890E+04  0.89975529854E+03 0.  0.
         23    2    4    4    0    0 -0.43760498580E+03 -0.37910823983E+03  0.44545375614E+03  0.73654240735E+03  0.94045137424E+02 0.  0.
         23    2    4    4    0    0  0.18188096733E+03  0.38575301375E+02 -0.20171991333E+03  0.28831038167E+03  0.88674757356E+02 0.  0.
          4    1    3    3  502    0  0.21794379729E+03  0.31129656644E+03  0.55929360279E+03  0.67617629741E+03  0.00000000000E+00 0. -1.
         -3    1    3    3    0  502  0.37780221179E+02  0.29236372012E+02  0.34951574601E+02  0.59192255641E+02  0.00000000000E+00 0.  1.
         11    1    5    5    0    0 -0.56402832965E+02 -0.18505231186E+02  0.67324838409E+02  0.89757211490E+02  0.00000000000E+00 0.  1.
        -11    1    5    5    0    0 -0.38120215283E+03 -0.36060300864E+03  0.37812891773E+03  0.64678519586E+03  0.00000000000E+00 0. -1.
          2    1    6    6  503    0  0.38985281899E+02  0.32069233668E+02 -0.10240045438E+03  0.11416716257E+03  0.00000000000E+00 0. -1.
         -2    1    6    6    0  503  0.14289568543E+03  0.65060677072E+01 -0.99319458954E+02  0.17414321910E+03  0.00000000000E+00 0.  1.
<mgrwt>
<rscale>  0 0.15479568E+04</rscale>
<asrwt>0</asrwt>
<pdfrwt beam="1">  1        2 0.19986157E+00 0.15479568E+04</pdfrwt>
<pdfrwt beam="2">  1       -1 0.70941717E-01 0.15479568E+04</pdfrwt>
<totfact> 0.36461718E+01</totfact>
</mgrwt>
</event>
<event>
12    6  0.1611689E-007  0.1410198E+04  0.7818608E-02  0.8946470E-01
         -1   -1    0    0    0  501 -0.00000000000E+00  0.00000000000E+00  0.56031891430E+03  0.56031891430E+03  0.00000000000E+00 0.  1.
          2   -1    0    0  501    0  0.00000000000E+00 -0.00000000000E+00 -0.88728874405E+03  0.88728874405E+03  0.00000000000E+00 0. -1.
         24    2    1    2    0    0  0.18356004620E+03  0.92431532841E+02  0.27067439690E+03  0.34875838639E+03  0.78293704155E+02 0.  0.
        254    2    1    2    0    0 -0.18356004620E+03 -0.92431532841E+02 -0.59764422665E+03  0.10988492720E+04  0.89891780605E+03 0.  0.
         23    2    4    4    0    0 -0.27625084749E+03 -0.32799600666E+03 -0.68405231816E+03  0.81203107927E+03  0.87011427995E+02 0.  0.
         23    2    4    4    0    0  0.92690801289E+02  0.23556447382E+03  0.86408091510E+02  0.28681819270E+03  0.10351865250E+03 0.  0.
          4    1    3    3  502    0  0.94913504484E+02  0.48388785845E+01  0.12567855077E+03  0.15756613279E+03  0.00000000000E+00 0. -1.
         -3    1    3    3    0  502  0.88646541719E+02  0.87592654257E+02  0.14499584613E+03  0.19119225359E+03  0.00000000000E+00 0.  1.
         11    1    5    5    0    0 -0.26965952885E+03 -0.29146726010E+03 -0.64983208790E+03  0.76154524992E+03  0.00000000000E+00 0.  1.
        -11    1    5    5    0    0 -0.65913186437E+01 -0.36528746558E+02 -0.34220230258E+02  0.50485829353E+02  0.00000000000E+00 0. -1.
          4    1    6    6  503    0 -0.17322444752E+02  0.11777366341E+02 -0.44513825703E+01  0.21414673868E+02  0.00000000000E+00 0. -1.
         -4    1    6    6    0  503  0.11001324604E+03  0.22378710747E+03  0.90859474080E+02  0.26540351883E+03  0.00000000000E+00 0.  1.
<mgrwt>
<rscale>  0 0.14101981E+04</rscale>
<asrwt>0</asrwt>
<pdfrwt beam="1">  1        2 0.13650596E+00 0.14101981E+04</pdfrwt>
<pdfrwt beam="2">  1       -1 0.86202910E-01 0.14101981E+04</pdfrwt>
<totfact> 0.44104149E+01</totfact>
</mgrwt>
</event>
<event>
12    6  0.1611689E-007  0.1917459E+04  0.7818608E-02  0.8646215E-01
         -1   -1    0    0    0  501 -0.00000000000E+00  0.00000000000E+00  0.35157235178E+03  0.35157235178E+03  0.00000000000E+00 0.  1.
          2   -1    0    0  501    0  0.00000000000E+00 -0.00000000000E+00 -0.26144317769E+04  0.26144317769E+04  0.00000000000E+00 0. -1.
         24    2    1    2    0    0 -0.59094941507E+03 -0.37919179120E+03 -0.51455815700E+03  0.87506150771E+03  0.89190356315E+02 0.  0.
        254    2    1    2    0    0  0.59094941507E+03  0.37919179120E+03 -0.17483012681E+04  0.20909426210E+04  0.90690467769E+03 0.  0.
         23    2    4    4    0    0 -0.21302140431E+03  0.23430728978E+02 -0.19530281192E+03  0.30395954380E+03  0.91220053543E+02 0.  0.
         23    2    4    4    0    0  0.80397081937E+03  0.35576106222E+03 -0.15529984562E+04  0.17869830772E+04  0.92570521018E+02 0.  0.
          2    1    3    3  502    0 -0.11927265909E+03 -0.84854105211E+02 -0.15364721726E+03  0.21221134217E+03  0.00000000000E+00 0. -1.
         -1    1    3    3    0  502 -0.47167675598E+03 -0.29433768599E+03 -0.36091093975E+03  0.66285016554E+03  0.00000000000E+00 0.  1.
         11    1    5    5    0    0 -0.10096218991E+03 -0.58799930843E+01 -0.36748148466E+02  0.10760280910E+03  0.00000000000E+00 0. -1.
        -11    1    5    5    0    0 -0.11205921440E+03  0.29310722063E+02 -0.15855466346E+03  0.19635673470E+03  0.00000000000E+00 0.  1.
          4    1    6    6  503    0  0.70913724789E+02  0.62358107577E+02 -0.16461947872E+03  0.18978109158E+03  0.00000000000E+00 0. -1.
         -4    1    6    6    0  503  0.73305709458E+03  0.29340295465E+03 -0.13883789775E+04  0.15972019856E+04  0.00000000000E+00 0.  1.
<mgrwt>
<rscale>  0 0.19174587E+04</rscale>
<asrwt>0</asrwt>
<pdfrwt beam="1">  1        2 0.40222028E+00 0.19174587E+04</pdfrwt>
<pdfrwt beam="2">  1       -1 0.54088053E-01 0.19174587E+04</pdfrwt>
<totfact> 0.10978729E+01</totfact>
</mgrwt>
</event>
<event>
12    6  0.1611689E-007  0.1321958E+04  0.7818608E-02  0.9012331E-01
         -1   -1    0    0    0  501 -0.00000000000E+00  0.00000000000E+00  0.81074700403E+03  0.81074700403E+03  0.00000000000E+00 0.  1.
          2   -1    0    0  501    0  0.00000000000E+00 -0.00000000000E+00 -0.53887749457E+03  0.53887749457E+03  0.00000000000E+00 0. -1.
         24    2    1    2    0    0 -0.25786332550E+02  0.31756293807E+03  0.23234035512E+03  0.40192421592E+03  0.77780975485E+02 0.  0.
        254    2    1    2    0    0  0.25786332550E+02 -0.31756293807E+03  0.39529154336E+02  0.94770028268E+03  0.89166255791E+03 0.  0.
         23    2    4    4    0    0 -0.16161093100E+03 -0.56842410262E+03  0.12521333062E+03  0.61083324802E+03  0.90635673190E+02 0.  0.
         23    2    4    4    0    0  0.18739726355E+03  0.25086116456E+03 -0.85684176289E+02  0.33686703467E+03  0.89936437062E+02 0.  0.
          2    1    3    3  502    0  0.19151716514E+02  0.26712080547E+02  0.15348586691E+02  0.36275371894E+02  0.00000000000E+00 0. -1.
         -1    1    3    3    0  502 -0.44938049065E+02  0.29085085752E+03  0.21699176843E+03  0.36564884403E+03  0.00000000000E+00 0.  1.
         11    1    5    5    0    0 -0.14523523996E+03 -0.35724119235E+03  0.69978048180E+02  0.39193299385E+03  0.00000000000E+00 0.  1.
        -11    1    5    5    0    0 -0.16375691034E+02 -0.21118291027E+03  0.55235282445E+02  0.21890025417E+03  0.00000000000E+00 0. -1.
          3    1    6    6  503    0  0.14747493283E+02  0.81240673247E+02 -0.34481746631E+02  0.89479195339E+02  0.00000000000E+00 0. -1.
         -3    1    6    6    0  503  0.17264977027E+03  0.16962049131E+03 -0.51202429659E+02  0.24738783933E+03  0.00000000000E+00 0.  1.
<mgrwt>
<rscale>  0 0.13219581E+04</rscale>
<asrwt>0</asrwt>
<pdfrwt beam="1">  1        2 0.82904230E-01 0.13219581E+04</pdfrwt>
<pdfrwt beam="2">  1       -1 0.12473031E+00 0.13219581E+04</pdfrwt>
<totfact> 0.35517595E+01</totfact>
</mgrwt>
</event>
<event>
12    6  0.1611689E-007  0.2088183E+04  0.7818608E-02  0.8566467E-01
         -1   -1    0    0    0  501 -0.00000000000E+00  0.00000000000E+00  0.43783812989E+03  0.43783812989E+03  0.00000000000E+00 0.  1.
          2   -1    0    0  501    0  0.00000000000E+00 -0.00000000000E+00 -0.24897950206E+04  0.24897950206E+04  0.00000000000E+00 0. -1.
         24    2    1    2    0    0  0.22028926403E+03  0.71436921887E+03 -0.13972625529E+04  0.15865711486E+04  0.77554028041E+02 0.  0.
        254    2    1    2    0    0 -0.22028926403E+03 -0.71436921887E+03 -0.65469433780E+03  0.13410620018E+04  0.90053976932E+03 0.  0.
         23    2    4    4    0    0 -0.19401725650E+03 -0.91527032820E+03 -0.46644025783E+03  0.10494955257E+04  0.92259822487E+02 0.  0.
         23    2    4    4    0    0 -0.26272007532E+02  0.20090110933E+03 -0.18825407998E+03  0.29156647614E+03  0.92303506281E+02 0.  0.
          4    1    3    3  502    0  0.16158703517E+03  0.61761364246E+03 -0.11853337795E+04  0.13463183688E+04  0.00000000000E+00 0. -1.
         -3    1    3    3    0  502  0.58702228856E+02  0.96755576409E+02 -0.21192877334E+03  0.24025277982E+03  0.00000000000E+00 0.  1.
         11    1    5    5    0    0 -0.18749886647E+03 -0.86648955393E+03 -0.46299133931E+03  0.10001604633E+04  0.00000000000E+00 0.  1.
        -11    1    5    5    0    0 -0.65183900243E+01 -0.48780774267E+02 -0.34489185144E+01  0.49335062435E+02  0.00000000000E+00 0. -1.
          1    1    6    6  503    0  0.29088677249E+02  0.74712456709E+02 -0.98975151574E+02  0.12737418483E+03  0.00000000000E+00 0. -1.
         -1    1    6    6    0  503 -0.55360684781E+02  0.12618865262E+03 -0.89278928401E+02  0.16419229131E+03  0.00000000000E+00 0.  1.
<mgrwt>
<rscale>  0 0.20881831E+04</rscale>
<asrwt>0</asrwt>
<pdfrwt beam="1">  1        2 0.38304539E+00 0.20881831E+04</pdfrwt>
<pdfrwt beam="2">  1       -1 0.67359711E-01 0.20881831E+04</pdfrwt>
<totfact> 0.82728734E+00</totfact>
</mgrwt>
</event>
<event>
12    6  0.1611689E-007  0.1630363E+04  0.7818608E-02  0.8802109E-01
          2   -1    0    0  501    0  0.00000000000E+00  0.00000000000E+00  0.88550164800E+03  0.88550164800E+03  0.00000000000E+00 0. -1.
         -1   -1    0    0    0  501 -0.00000000000E+00 -0.00000000000E+00 -0.75044589858E+03  0.75044589858E+03  0.00000000000E+00 0.  1.
         24    2    1    2    0    0  0.21394976269E+03  0.15422663371E+03  0.54915456478E+03  0.61377579600E+03  0.74763869854E+02 0.  0.
        254    2    1    2    0    0 -0.21394976269E+03 -0.15422663371E+03 -0.41409881536E+03  0.10221717506E+04  0.89654721197E+03 0.  0.
         23    2    4    4    0    0  0.16447128172E+03 -0.30006945206E+03 -0.48594403061E+03  0.60116634619E+03  0.90370882102E+02 0.  0.
         23    2    4    4    0    0 -0.37842104441E+03  0.14584281835E+03  0.71845215249E+02  0.42100540439E+03  0.87242197672E+02 0.  0.
          4    1    3    3  502    0  0.11955657385E+03  0.12776363449E+03  0.32467947447E+03  0.36882798402E+03  0.00000000000E+00 0. -1.
         -3    1    3    3    0  502  0.94393188841E+02  0.26462999218E+02  0.22447509031E+03  0.24494781198E+03  0.00000000000E+00 0.  1.
         11    1    5    5    0    0  0.11071702204E+03 -0.11023155068E+03 -0.20091051185E+03  0.25450793210E+03  0.00000000000E+00 0.  1.
        -11    1    5    5    0    0  0.53754259681E+02 -0.18983790139E+03 -0.28503351877E+03  0.34665841409E+03  0.00000000000E+00 0. -1.
          3    1    6    6  503    0 -0.34017940739E+03  0.15715397544E+03  0.68992669113E+02  0.38102413257E+03  0.00000000000E+00 0. -1.
         -3    1    6    6    0  503 -0.38241637020E+02 -0.11311157095E+02  0.28525461357E+01  0.39981271819E+02  0.00000000000E+00 0.  1.
<mgrwt>
<rscale>  0 0.16303632E+04</rscale>
<asrwt>0</asrwt>
<pdfrwt beam="1">  1        2 0.13623102E+00 0.16303632E+04</pdfrwt>
<pdfrwt beam="2">  1       -1 0.11545322E+00 0.16303632E+04</pdfrwt>
<totfact> 0.22274882E+01</totfact>
</mgrwt>
</event>
<event>
12    6  0.1611689E-007  0.1373108E+04  0.7818608E-02  0.8973517E-01
          2   -1    0    0  501    0  0.00000000000E+00  0.00000000000E+00  0.84720839693E+03  0.84720839693E+03  0.00000000000E+00 0. -1.
         -1   -1    0    0    0  501 -0.00000000000E+00 -0.00000000000E+00 -0.55636455142E+03  0.55636455142E+03  0.00000000000E+00 0.  1.
         24    2    1    2    0    0 -0.29634179777E+03  0.19606596834E+03  0.36377698089E+03  0.51424627097E+03  0.76519346162E+02 0.  0.
        254    2    1    2    0    0  0.29634179777E+03 -0.19606596834E+03 -0.72933135379E+02  0.88932667738E+03  0.81198668205E+03 0.  0.
         23    2    4    4    0    0  0.84930924301E+02  0.22856486838E+03  0.20618286574E+03  0.33150131576E+03  0.89031383588E+02 0.  0.
         23    2    4    4    0    0  0.21141087347E+03 -0.42463083671E+03 -0.27911600112E+03  0.55782536163E+03  0.90870716299E+02 0.  0.
          4    1    3    3  502    0 -0.29504570266E+03  0.18138508197E+03  0.33465935438E+03  0.48161125204E+03  0.00000000000E+00 0. -1.
         -3    1    3    3    0  502 -0.12960951143E+01  0.14680886369E+02  0.29117626513E+02  0.32635018935E+02  0.00000000000E+00 0.  1.
         11    1    5    5    0    0 -0.60427034192E+00  0.40298679425E+02  0.11808226522E+01  0.40320504067E+02  0.00000000000E+00 0. -1.
        -11    1    5    5    0    0  0.85535194643E+02  0.18826618895E+03  0.20500204309E+03  0.29118081169E+03  0.00000000000E+00 0.  1.
          3    1    6    6  503    0  0.18216829456E+03 -0.27197061848E+03 -0.18180648882E+03  0.37444212402E+03  0.00000000000E+00 0. -1.
         -3    1    6    6    0  503  0.29242578911E+02 -0.15266021823E+03 -0.97309512302E+02  0.18338323761E+03  0.00000000000E+00 0.  1.
<mgrwt>
<rscale>  0 0.13731085E+04</rscale>
<asrwt>0</asrwt>
<pdfrwt beam="1">  1        2 0.13033975E+00 0.13731085E+04</pdfrwt>
<pdfrwt beam="2">  1       -1 0.85594546E-01 0.13731085E+04</pdfrwt>
<totfact> 0.47876460E+01</totfact>
</mgrwt>
</event>
<event>
12    6  0.1611689E-007  0.1563600E+04  0.7818608E-02  0.8843227E-01
          2   -1    0    0  501    0  0.00000000000E+00  0.00000000000E+00  0.10154327176E+04  0.10154327176E+04  0.00000000000E+00 0. -1.
         -1   -1    0    0    0  501 -0.00000000000E+00 -0.00000000000E+00 -0.60192228635E+03  0.60192228635E+03  0.00000000000E+00 0.  1.
         24    2    1    2    0    0 -0.44310705260E+02  0.10264140996E+02  0.67167941892E+03  0.67808840240E+03  0.81128592221E+02 0.  0.
        254    2    1    2    0    0  0.44310705260E+02 -0.10264140996E+02 -0.25816898768E+03  0.93926660155E+03  0.90194330831E+03 0.  0.
         23    2    4    4    0    0  0.11213842311E+03  0.24386597430E+03 -0.49692807445E+03  0.57226103435E+03  0.92192954680E+02 0.  0.
         23    2    4    4    0    0 -0.67827717852E+02 -0.25413011530E+03  0.23875908678E+03  0.36700556720E+03  0.92219683532E+02 0.  0.
          2    1    3    3  502    0 -0.61847140242E+02  0.59487390250E+01  0.62429294427E+03  0.62737718840E+03  0.00000000000E+00 0. -1.
         -1    1    3    3    0  502  0.17536434982E+02  0.43154019706E+01  0.47386474648E+02  0.50711214002E+02  0.00000000000E+00 0.  1.
         11    1    5    5    0    0  0.96076028525E+01  0.11526414556E+03 -0.25146359686E+03  0.27678885424E+03  0.00000000000E+00 0.  1.
        -11    1    5    5    0    0  0.10253082026E+03  0.12860182874E+03 -0.24546447759E+03  0.29547218011E+03  0.00000000000E+00 0. -1.
          2    1    6    6  503    0 -0.67847000460E+02 -0.11900420177E+03  0.80425493395E+02  0.15885048158E+03  0.00000000000E+00 0. -1.
         -2    1    6    6    0  503  0.19282607215E-01 -0.13512591353E+03  0.15833359338E+03  0.20815508563E+03  0.00000000000E+00 0.  1.
<mgrwt>
<rscale>  0 0.15636004E+04</rscale>
<asrwt>0</asrwt>
<pdfrwt beam="1">  1        2 0.15622042E+00 0.15636004E+04</pdfrwt>
<pdfrwt beam="2">  1       -1 0.92603429E-01 0.15636004E+04</pdfrwt>
<totfact> 0.30631935E+01</totfact>
</mgrwt>
</event>
<event>
12    6  0.1611689E-007  0.2155866E+04  0.7818608E-02  0.8537025E-01
          2   -1    0    0  501    0  0.00000000000E+00  0.00000000000E+00  0.29361562684E+04  0.29361562684E+04  0.00000000000E+00 0. -1.
         -1   -1    0    0    0  501 -0.00000000000E+00 -0.00000000000E+00 -0.39573493838E+03  0.39573493838E+03  0.00000000000E+00 0.  1.
         24    2    1    2    0    0  0.30871947888E+03  0.57667991023E+02  0.23401078399E+04  0.23621717588E+04  0.71536015138E+02 0.  0.
        254    2    1    2    0    0 -0.30871947888E+03 -0.57667991023E+02  0.20031349009E+03  0.96971944803E+03  0.89531949590E+03 0.  0.
         23    2    4    4    0    0 -0.59619795917E+03 -0.16004144340E+03  0.18291647709E+03  0.65010339071E+03  0.90059485314E+02 0.  0.
         23    2    4    4    0    0  0.28747848029E+03  0.10237345237E+03  0.17397013004E+02  0.31961605732E+03  0.93421451816E+02 0.  0.
          2    1    3    3  502    0  0.24166746378E+03  0.42027639998E+02  0.20134295615E+04  0.20283165642E+04  0.00000000000E+00 0. -1.
         -1    1    3    3    0  502  0.67052015103E+02  0.15640351025E+02  0.32667827842E+03  0.33385519451E+03  0.00000000000E+00 0.  1.
         11    1    5    5    0    0 -0.12368450738E+03 -0.62416442487E+02  0.15570788988E+02  0.13941348259E+03  0.00000000000E+00 0. -1.
        -11    1    5    5    0    0 -0.47251345179E+03 -0.97625000909E+02  0.16734568810E+03  0.51068990811E+03  0.00000000000E+00 0.  1.
          1    1    6    6  503    0  0.25352894081E+01 -0.21645090237E+00  0.16572067613E+02  0.16766274731E+02  0.00000000000E+00 0. -1.
         -1    1    6    6    0  503  0.28494319088E+03  0.10258990328E+03  0.82494539076E+00  0.30284978259E+03  0.00000000000E+00 0.  1.
<mgrwt>
<rscale>  0 0.21558661E+04</rscale>
<asrwt>0</asrwt>
<pdfrwt beam="1">  1        2 0.45171633E+00 0.21558661E+04</pdfrwt>
<pdfrwt beam="2">  1       -1 0.60882300E-01 0.21558661E+04</pdfrwt>
<totfact> 0.54573042E+00</totfact>
</mgrwt>
</event>
<event>
12    6  0.1611689E-007  0.2506976E+04  0.7818608E-02  0.8400505E-01
          2   -1    0    0  501    0  0.00000000000E+00  0.00000000000E+00  0.13895849637E+04  0.13895849637E+04  0.00000000000E+00 0. -1.
         -1   -1    0    0    0  501 -0.00000000000E+00 -0.00000000000E+00 -0.11307203262E+04  0.11307203262E+04  0.00000000000E+00 0.  1.
         24    2    1    2    0    0 -0.26699593109E+03  0.10446350312E+04 -0.26442995134E+02  0.10812032981E+04  0.75843023799E+02 0.  0.
        254    2    1    2    0    0  0.26699593109E+03 -0.10446350312E+04  0.28530763263E+03  0.14391019918E+04  0.90943109796E+03 0.  0.
         23    2    4    4    0    0 -0.18724046490E+03 -0.22551048871E+03 -0.21298088381E+03  0.37376285387E+03  0.91781489699E+02 0.  0.
         23    2    4    4    0    0  0.45423639599E+03 -0.81912454245E+03  0.49828851644E+03  0.10653391379E+04  0.96748713987E+02 0.  0.
          4    1    3    3  502    0 -0.10434649223E+01  0.74847869372E+02  0.59245675680E+01  0.75089232713E+02  0.00000000000E+00 0. -1.
         -3    1    3    3    0  502 -0.26595246617E+03  0.96978716179E+03 -0.32367562702E+02  0.10061140654E+04  0.00000000000E+00 0.  1.
         11    1    5    5    0    0 -0.13840312150E+03 -0.97597761656E+02 -0.13169697055E+03  0.21453400470E+03  0.00000000000E+00 0.  1.
        -11    1    5    5    0    0 -0.48837343395E+02 -0.12791272705E+03 -0.81283913260E+02  0.15922884917E+03  0.00000000000E+00 0. -1.
          1    1    6    6  503    0  0.40361658347E+02 -0.56690347726E+02  0.11384614820E+02  0.70515731893E+02  0.00000000000E+00 0. -1.
         -1    1    6    6    0  503  0.41387473764E+03 -0.76243419472E+03  0.48690390162E+03  0.99482340601E+03  0.00000000000E+00 0.  1.
<mgrwt>
<rscale>  0 0.25069758E+04</rscale>
<asrwt>0</asrwt>
<pdfrwt beam="1">  1        2 0.21378230E+00 0.25069758E+04</pdfrwt>
<pdfrwt beam="2">  1       -1 0.17395697E+00 0.25069758E+04</pdfrwt>
<totfact> 0.34294992E+00</totfact>
</mgrwt>
</event>
<event>
12    6  0.1611689E-007  0.2278411E+04  0.7818608E-02  0.8486482E-01
          2   -1    0    0  501    0  0.00000000000E+00  0.00000000000E+00  0.11184544423E+04  0.11184544423E+04  0.00000000000E+00 0. -1.
         -1   -1    0    0    0  501 -0.00000000000E+00 -0.00000000000E+00 -0.11603411529E+04  0.11603411529E+04  0.00000000000E+00 0.  1.
         24    2    1    2    0    0 -0.23223713827E+03  0.62679575050E+03  0.66146843028E+03  0.94377981543E+03  0.79830160493E+02 0.  0.
        254    2    1    2    0    0  0.23223713827E+03 -0.62679575050E+03 -0.70335514091E+03  0.13350157798E+04  0.91692512064E+03 0.  0.
         23    2    4    4    0    0  0.40406111348E+03  0.67049631190E+00 -0.49571321802E+03  0.64616169365E+03  0.92344500778E+02 0.  0.
         23    2    4    4    0    0 -0.17182397521E+03 -0.62746624681E+03 -0.20764192289E+03  0.68885408616E+03  0.90373749165E+02 0.  0.
          2    1    3    3  502    0 -0.21287659701E+03  0.57341275117E+03  0.56973408885E+03  0.83589207482E+03  0.00000000000E+00 0. -1.
         -1    1    3    3    0  502 -0.19360541263E+02  0.53382999324E+02  0.91734341432E+02  0.10788774060E+03  0.00000000000E+00 0.  1.
         11    1    5    5    0    0  0.39497223747E+02  0.16606985223E+02 -0.21911497102E+02  0.48124176327E+02  0.00000000000E+00 0.  1.
        -11    1    5    5    0    0  0.36456388974E+03 -0.15936488911E+02 -0.47380172092E+03  0.59803751732E+03  0.00000000000E+00 0. -1.
          1    1    6    6  503    0 -0.12532853021E+03 -0.35678512626E+03 -0.15761645753E+03  0.40968990040E+03  0.00000000000E+00 0.  1.
         -1    1    6    6    0  503 -0.46495445003E+02 -0.27068112055E+03 -0.50025465359E+02  0.27916418577E+03  0.00000000000E+00 0. -1.
<mgrwt>
<rscale>  0 0.22784106E+04</rscale>
<asrwt>0</asrwt>
<pdfrwt beam="1">  1        2 0.17206991E+00 0.22784106E+04</pdfrwt>
<pdfrwt beam="2">  1       -1 0.17851402E+00 0.22784106E+04</pdfrwt>
<totfact> 0.46875852E+00</totfact>
</mgrwt>
</event>
<event>
12    6  0.1611689E-007  0.1561712E+04  0.7818608E-02  0.8844421E-01
          2   -1    0    0  501    0  0.00000000000E+00  0.00000000000E+00  0.14480484037E+04  0.14480484037E+04  0.00000000000E+00 0. -1.
         -1   -1    0    0    0  501 -0.00000000000E+00 -0.00000000000E+00 -0.42107449769E+03  0.42107449769E+03  0.00000000000E+00 0.  1.
         24    2    1    2    0    0 -0.39653235760E+03 -0.64081229713E+02 -0.25179292843E+02  0.41066777579E+03  0.81668296534E+02 0.  0.
        254    2    1    2    0    0  0.39653235760E+03  0.64081229713E+02  0.10521531989E+04  0.14584551256E+04  0.92667183237E+03 0.  0.
         23    2    4    4    0    0  0.22550694028E+03  0.47663741217E+03  0.70743339764E+03  0.88745227202E+03  0.95251877749E+02 0.  0.
         23    2    4    4    0    0  0.17102541731E+03 -0.41255618246E+03  0.34471980121E+03  0.57100285358E+03  0.88092113141E+02 0.  0.
          4    1    3    3  502    0 -0.22959435198E+03 -0.18191503472E+02  0.21611946640E+02  0.23132568707E+03  0.00000000000E+00 0. -1.
         -3    1    3    3    0  502 -0.16693800561E+03 -0.45889726241E+02 -0.46791239483E+02  0.17934208872E+03  0.00000000000E+00 0.  1.
         11    1    5    5    0    0  0.10773468469E+03  0.30119353052E+03  0.48181030729E+03  0.57832990353E+03  0.00000000000E+00 0.  1.
        -11    1    5    5    0    0  0.11777225560E+03  0.17544388166E+03  0.22562309036E+03  0.30912236849E+03  0.00000000000E+00 0. -1.
          4    1    6    6  503    0 -0.76433998847E+01 -0.27555262569E+02  0.94387709163E+01  0.30113194010E+02  0.00000000000E+00 0. -1.
         -4    1    6    6    0  503  0.17866881720E+03 -0.38500091989E+03  0.33528103030E+03  0.54088965957E+03  0.00000000000E+00 0.  1.
<mgrwt>
<rscale>  0 0.15617122E+04</rscale>
<asrwt>0</asrwt>
<pdfrwt beam="1">  1        2 0.22277667E+00 0.15617122E+04</pdfrwt>
<pdfrwt beam="2">  1       -1 0.64780693E-01 0.15617122E+04</pdfrwt>
<totfact> 0.35972387E+01</totfact>
</mgrwt>
</event>
<event>
12    6  0.1611689E-007  0.1920912E+04  0.7818608E-02  0.8644517E-01
         -1   -1    0    0    0  501 -0.00000000000E+00  0.00000000000E+00  0.34657157343E+03  0.34657157343E+03  0.00000000000E+00 0.  1.
          2   -1    0    0  501    0  0.00000000000E+00 -0.00000000000E+00 -0.26617178963E+04  0.26617178963E+04  0.00000000000E+00 0. -1.
         24    2    1    2    0    0 -0.30747665801E+03 -0.31221251671E+03  0.45291574238E+02  0.44761087856E+03  0.79281909029E+02 0.  0.
        254    2    1    2    0    0  0.30747665801E+03  0.31221251671E+03 -0.23604378971E+04  0.25606785912E+04  0.89072399226E+03 0.  0.
         23    2    4    4    0    0  0.18508865596E+02  0.22773008425E+03 -0.83924497691E+02  0.26266245952E+03  0.98715130302E+02 0.  0.
         23    2    4    4    0    0  0.28896779242E+03  0.84482432458E+02 -0.22765133994E+04  0.22980161317E+04  0.87893214527E+02 0.  0.
          2    1    3    3  502    0 -0.18397031007E+01 -0.27322601255E+02  0.44801571906E+00  0.27388131826E+02  0.00000000000E+00 0. -1.
         -1    1    3    3    0  502 -0.30563695491E+03 -0.28488991546E+03  0.44843558519E+02  0.42022274674E+03  0.00000000000E+00 0.  1.
         11    1    5    5    0    0 -0.10153865175E+02 -0.41229357808E+01 -0.15957712436E+02  0.19358413252E+02  0.00000000000E+00 0. -1.
        -11    1    5    5    0    0  0.28662730771E+02  0.23185302003E+03 -0.67966785255E+02  0.24330404627E+03  0.00000000000E+00 0.  1.
          3    1    6    6  503    0  0.72351635530E+02  0.22652824788E+02 -0.90044519104E+03  0.90363125870E+03  0.00000000000E+00 0. -1.
         -3    1    6    6    0  503  0.21661615689E+03  0.61829607670E+02 -0.13760682084E+04  0.13943848730E+04  0.00000000000E+00 0.  1.
<mgrwt>
<rscale>  0 0.19209120E+04</rscale>
<asrwt>0</asrwt>
<pdfrwt beam="1">  1        2 0.40949506E+00 0.19209120E+04</pdfrwt>
<pdfrwt beam="2">  1       -1 0.53318703E-01 0.19209120E+04</pdfrwt>
<totfact> 0.10582535E+01</totfact>
</mgrwt>
</event>
<event>
12    6  0.1611689E-007  0.1666609E+04  0.7818608E-02  0.8780641E-01
         -1   -1    0    0    0  501 -0.00000000000E+00  0.00000000000E+00  0.45993381960E+03  0.45993381960E+03  0.00000000000E+00 0.  1.
          2   -1    0    0  501    0  0.00000000000E+00 -0.00000000000E+00 -0.15097743778E+04  0.15097743778E+04  0.00000000000E+00 0. -1.
         24    2    1    2    0    0  0.45050964042E+03 -0.36791314080E+03 -0.48187338322E+03  0.75956362912E+03  0.80099525261E+02 0.  0.
        254    2    1    2    0    0 -0.45050964042E+03  0.36791314080E+03 -0.56796717495E+03  0.12101445683E+04  0.89640624103E+03 0.  0.
         23    2    4    4    0    0 -0.24848288782E+03 -0.14639950138E+03  0.11808674490E+03  0.32461192983E+03  0.90839782734E+02 0.  0.
         23    2    4    4    0    0 -0.20202675260E+03  0.51431264218E+03 -0.68605391985E+03  0.88553263842E+03  0.90364650655E+02 0.  0.
          2    1    3    3  502    0  0.28902945976E+03 -0.24029733419E+03 -0.35947773225E+03  0.52010102616E+03  0.00000000000E+00 0. -1.
         -1    1    3    3    0  502  0.16148018065E+03 -0.12761580661E+03 -0.12239565097E+03  0.23946260296E+03  0.00000000000E+00 0.  1.
         11    1    5    5    0    0 -0.20182386141E+03 -0.15494812805E+03  0.92656535863E+02  0.27078963617E+03  0.00000000000E+00 0. -1.
        -11    1    5    5    0    0 -0.46659026410E+02  0.85486266704E+01  0.25430209034E+02  0.53822293661E+02  0.00000000000E+00 0.  1.
          4    1    6    6  503    0 -0.18760607536E+03  0.39120272051E+03 -0.56405977393E+03  0.71161719809E+03  0.00000000000E+00 0. -1.
         -4    1    6    6    0  503 -0.14420677232E+02  0.12310992168E+03 -0.12199414591E+03  0.17391544033E+03  0.00000000000E+00 0.  1.
<mgrwt>
<rscale>  0 0.16666089E+04</rscale>
<asrwt>0</asrwt>
<pdfrwt beam="1">  1        2 0.23227298E+00 0.16666089E+04</pdfrwt>
<pdfrwt beam="2">  1       -1 0.70759050E-01 0.16666089E+04</pdfrwt>
<totfact> 0.27493593E+01</totfact>
</mgrwt>
</event>
<event>
12    6  0.1611689E-007  0.1399392E+04  0.7818608E-02  0.8954259E-01
         -1   -1    0    0    0  501 -0.00000000000E+00  0.00000000000E+00  0.73900876261E+03  0.73900876261E+03  0.00000000000E+00 0.  1.
          2   -1    0    0  501    0  0.00000000000E+00 -0.00000000000E+00 -0.66247481818E+03  0.66247481818E+03  0.00000000000E+00 0. -1.
         24    2    1    2    0    0  0.40657242589E+02 -0.27577398700E+02  0.43130767948E+03  0.44118092135E+03  0.78744947076E+02 0.  0.
        254    2    1    2    0    0 -0.40657242589E+02  0.27577398700E+02 -0.35477373504E+03  0.96030265945E+03  0.89101249731E+03 0.  0.
         23    2    4    4    0    0  0.86489584138E+02  0.40179443200E+03 -0.36144495118E+03  0.55494226827E+03  0.91647447471E+02 0.  0.
         23    2    4    4    0    0 -0.12714682673E+03 -0.37421703330E+03  0.66712161338E+01  0.40536039118E+03  0.89821144827E+02 0.  0.
          4    1    3    3  502    0 -0.14646325933E+02 -0.33225330378E+02  0.14112440536E+03  0.14572074400E+03  0.00000000000E+00 0. -1.
         -3    1    3    3    0  502  0.55303568522E+02  0.56479316778E+01  0.29018327412E+03  0.29546017735E+03  0.00000000000E+00 0.  1.
         11    1    5    5    0    0  0.27742747199E+02  0.37799121076E+02 -0.15584411624E+02  0.49409588765E+02  0.00000000000E+00 0. -1.
        -11    1    5    5    0    0  0.58746836939E+02  0.36399531092E+03 -0.34586053955E+03  0.50553267950E+03  0.00000000000E+00 0.  1.
          4    1    6    6  503    0 -0.10272314757E+03 -0.35620622017E+03  0.21976141596E+02  0.37137294884E+03  0.00000000000E+00 0.  1.
         -4    1    6    6    0  503 -0.24423679160E+02 -0.18010813126E+02 -0.15304925462E+02  0.33987442337E+02  0.00000000000E+00 0. -1.
<mgrwt>
<rscale>  0 0.13993923E+04</rscale>
<asrwt>0</asrwt>
<pdfrwt beam="1">  1        2 0.10191920E+00 0.13993923E+04</pdfrwt>
<pdfrwt beam="2">  1       -1 0.11369366E+00 0.13993923E+04</pdfrwt>
<totfact> 0.34461340E+01</totfact>
</mgrwt>
</event>
<event>
12    6  0.1611689E-007  0.1749210E+04  0.7818608E-02  0.8733785E-01
          2   -1    0    0  501    0  0.00000000000E+00  0.00000000000E+00  0.23983186554E+04  0.23983186554E+04  0.00000000000E+00 0. -1.
         -1   -1    0    0    0  501 -0.00000000000E+00 -0.00000000000E+00 -0.31894602032E+03  0.31894602032E+03  0.00000000000E+00 0.  1.
         24    2    1    2    0    0  0.49170620940E+02 -0.39340367579E+03  0.15464088300E+04  0.15984154373E+04  0.79796233261E+02 0.  0.
        254    2    1    2    0    0 -0.49170620940E+02  0.39340367579E+03  0.53296380518E+03  0.11188492384E+04  0.90032716200E+03 0.  0.
         23    2    4    4    0    0 -0.31101471985E+03 -0.16045653281E+03  0.23164984437E+03  0.42991644972E+03  0.93220429410E+02 0.  0.
         23    2    4    4    0    0  0.26184409891E+03  0.55386020860E+03  0.30131396080E+03  0.68893278871E+03  0.92275790888E+02 0.  0.
          4    1    3    3  502    0  0.71544082410E+01 -0.18024276934E+03  0.84887404804E+03  0.86782820356E+03  0.00000000000E+00 0. -1.
         -3    1    3    3    0  502  0.42016212699E+02 -0.21316090645E+03  0.69753478192E+03  0.73058723377E+03  0.00000000000E+00 0.  1.
         11    1    5    5    0    0 -0.16075648012E+03 -0.43415143730E+02  0.72094285817E+02  0.18145276700E+03  0.00000000000E+00 0. -1.
        -11    1    5    5    0    0 -0.15025823973E+03 -0.11704138908E+03  0.15955555856E+03  0.24846368272E+03  0.00000000000E+00 0.  1.
          4    1    6    6  503    0  0.48661718577E+02  0.15359197297E+03  0.41881608652E+02  0.16647079672E+03  0.00000000000E+00 0.  1.
         -4    1    6    6    0  503  0.21318238033E+03  0.40026823563E+03  0.25943235215E+03  0.52246199200E+03  0.00000000000E+00 0. -1.
<mgrwt>
<rscale>  0 0.17492103E+04</rscale>
<asrwt>0</asrwt>
<pdfrwt beam="1">  1        2 0.36897209E+00 0.17492103E+04</pdfrwt>
<pdfrwt beam="2">  1       -1 0.49068620E-01 0.17492103E+04</pdfrwt>
<totfact> 0.17908482E+01</totfact>
</mgrwt>
</event>
<event>
12    6  0.1611689E-007  0.2203818E+04  0.7818608E-02  0.8516841E-01
          2   -1    0    0  501    0  0.00000000000E+00  0.00000000000E+00  0.29334625241E+04  0.29334625241E+04  0.00000000000E+00 0. -1.
         -1   -1    0    0    0  501 -0.00000000000E+00 -0.00000000000E+00 -0.41391461582E+03  0.41391461582E+03  0.00000000000E+00 0.  1.
         24    2    1    2    0    0 -0.25377791295E+03 -0.65018786204E+03  0.15020806674E+03  0.71835239172E+03  0.79499750509E+02 0.  0.
        254    2    1    2    0    0  0.25377791295E+03  0.65018786204E+03  0.23693398415E+04  0.26290247482E+04  0.90047340711E+03 0.  0.
         23    2    4    4    0    0  0.21017372013E+03  0.69226734195E+03  0.91229084854E+03  0.11678337924E+04  0.90300105544E+02 0.  0.
         23    2    4    4    0    0  0.43604192820E+02 -0.42079479917E+02  0.14570489930E+04  0.14611909558E+04  0.91734578740E+02 0.  0.
          4    1    3    3  502    0 -0.11948130717E+02 -0.21346284291E+02  0.21206928013E+02  0.32375229364E+02  0.00000000000E+00 0. -1.
         -3    1    3    3    0  502 -0.24182978223E+03 -0.62884157774E+03  0.12900113872E+03  0.68597716235E+03  0.00000000000E+00 0.  1.
         11    1    5    5    0    0  0.35892642093E+02  0.70732694040E+02  0.64284680381E+02  0.10209758026E+03  0.00000000000E+00 0. -1.
        -11    1    5    5    0    0  0.17428107804E+03  0.62153464791E+03  0.84800616815E+03  0.10657362122E+04  0.00000000000E+00 0.  1.
          3    1    6    6  503    0  0.54839996358E+01 -0.43192922058E+02  0.26665364320E+03  0.27018487781E+03  0.00000000000E+00 0. -1.
         -3    1    6    6    0  503  0.38120193184E+02  0.11134421407E+01  0.11903953498E+04  0.11910060780E+04  0.00000000000E+00 0.  1.
<mgrwt>
<rscale>  0 0.22038176E+04</rscale>
<asrwt>0</asrwt>
<pdfrwt beam="1">  1        2 0.45130191E+00 0.22038176E+04</pdfrwt>
<pdfrwt beam="2">  1       -1 0.63679173E-01 0.22038176E+04</pdfrwt>
<totfact> 0.49865114E+00</totfact>
</mgrwt>
</event>
<event>
12    6  0.1611689E-007  0.1252809E+04  0.7818608E-02  0.9067848E-01
         -1   -1    0    0    0  501 -0.00000000000E+00  0.00000000000E+00  0.29653986868E+03  0.29653986868E+03  0.00000000000E+00 0.  1.
          2   -1    0    0  501    0  0.00000000000E+00 -0.00000000000E+00 -0.13232044947E+04  0.13232044947E+04  0.00000000000E+00 0. -1.
         24    2    1    2    0    0  0.10431638447E+03 -0.23574339858E+03 -0.41789808604E+03  0.49738992478E+03  0.79379272560E+02 0.  0.
        254    2    1    2    0    0 -0.10431638447E+03  0.23574339858E+03 -0.60876653996E+03  0.11223544386E+04  0.90698728083E+03 0.  0.
         23    2    4    4    0    0 -0.22643174855E+03  0.35316974009E+03 -0.76278206685E+03  0.87603255817E+03  0.97961009599E+02 0.  0.
         23    2    4    4    0    0  0.12211536409E+03 -0.11742634151E+03  0.15401552689E+03  0.24632188041E+03  0.90843703232E+02 0.  0.
          4    1    3    3  502    0  0.11020444291E+03 -0.21247230737E+03 -0.40419963753E+03  0.46975190007E+03  0.00000000000E+00 0. -1.
         -3    1    3    3    0  502 -0.58880584446E+01 -0.23271091211E+02 -0.13698448510E+02  0.27638024712E+02  0.00000000000E+00 0.  1.
         11    1    5    5    0    0 -0.76074572957E+01  0.70284034687E+02 -0.93868139721E+02  0.11751147430E+03  0.00000000000E+00 0. -1.
        -11    1    5    5    0    0 -0.21882429126E+03  0.28288570541E+03 -0.66891392713E+03  0.75852108387E+03  0.00000000000E+00 0.  1.
          2    1    6    6  503    0 -0.52092889505E+01 -0.31981650831E+02  0.55268985719E+01  0.32871101124E+02  0.00000000000E+00 0. -1.
         -2    1    6    6    0  503  0.12732465304E+03 -0.85444690677E+02  0.14848862832E+03  0.21345077928E+03  0.00000000000E+00 0.  1.
<mgrwt>
<rscale>  0 0.12528095E+04</rscale>
<asrwt>0</asrwt>
<pdfrwt beam="1">  1        2 0.20356992E+00 0.12528095E+04</pdfrwt>
<pdfrwt beam="2">  1       -1 0.45621518E-01 0.12528095E+04</pdfrwt>
<totfact> 0.85693402E+01</totfact>
</mgrwt>
</event>
<event>
12    6  0.1611689E-007  0.1865628E+04  0.7818608E-02  0.8672157E-01
         -1   -1    0    0    0  501 -0.00000000000E+00  0.00000000000E+00  0.86626482756E+03  0.86626482756E+03  0.00000000000E+00 0.  1.
          2   -1    0    0  501    0  0.00000000000E+00 -0.00000000000E+00 -0.10044753221E+04  0.10044753221E+04  0.00000000000E+00 0. -1.
         24    2    1    2    0    0  0.80385299800E+01  0.55468177813E+03 -0.51399977544E+03  0.76129493581E+03  0.87394034009E+02 0.  0.
        254    2    1    2    0    0 -0.80385299800E+01 -0.55468177813E+03  0.37578928091E+03  0.11094452139E+04  0.88425935446E+03 0.  0.
         23    2    4    4    0    0  0.15526245306E+03 -0.71175893388E+03  0.99839474529E+02  0.74079418909E+03  0.90005003297E+02 0.  0.
         23    2    4    4    0    0 -0.16330098304E+03  0.15707715575E+03  0.27594980638E+03  0.36865102477E+03  0.91732428829E+02 0.  0.
          4    1    3    3  502    0  0.71919924827E+01  0.15142454345E+03 -0.19572785004E+03  0.24756919921E+03  0.00000000000E+00 0. -1.
         -3    1    3    3    0  502  0.84653749727E+00  0.40325723468E+03 -0.31827192540E+03  0.51372573660E+03  0.00000000000E+00 0.  1.
         11    1    5    5    0    0  0.98630363074E+02 -0.34027583709E+03  0.99698929030E+01  0.35442205432E+03  0.00000000000E+00 0. -1.
        -11    1    5    5    0    0  0.56632089987E+02 -0.37148309679E+03  0.89869581626E+02  0.38637213476E+03  0.00000000000E+00 0.  1.
          4    1    6    6  503    0 -0.13234996544E+03  0.12414230418E+03  0.26660413583E+03  0.32249897718E+03  0.00000000000E+00 0. -1.
         -4    1    6    6    0  503 -0.30951017598E+02  0.32934851570E+02  0.93456705476E+01  0.46152047585E+02  0.00000000000E+00 0.  1.
<mgrwt>
<rscale>  0 0.18656277E+04</rscale>
<asrwt>0</asrwt>
<pdfrwt beam="1">  1        2 0.15453466E+00 0.18656277E+04</pdfrwt>
<pdfrwt beam="2">  1       -1 0.13327151E+00 0.18656277E+04</pdfrwt>
<totfact> 0.12764481E+01</totfact>
</mgrwt>
</event>
<event>
12    6  0.1611689E-007  0.1967768E+04  0.7818608E-02  0.8621840E-01
         -1   -1    0    0    0  501 -0.00000000000E+00  0.00000000000E+00  0.10368270083E+04  0.10368270083E+04  0.00000000000E+00 0.  1.
          2   -1    0    0  501    0  0.00000000000E+00 -0.00000000000E+00 -0.93364421832E+03  0.93364421832E+03  0.00000000000E+00 0. -1.
         24    2    1    2    0    0 -0.14188261313E+03 -0.74647504005E+03 -0.12214147849E+03  0.77361866107E+03  0.78813898959E+02 0.  0.
        254    2    1    2    0    0  0.14188261313E+03  0.74647504005E+03  0.22532426846E+03  0.11968525655E+04  0.89684412043E+03 0.  0.
         23    2    4    4    0    0 -0.14987004314E+03 -0.13644010099E+03  0.13058595404E+03  0.25673587102E+03  0.88225195300E+02 0.  0.
         23    2    4    4    0    0  0.29175265627E+03  0.88291514104E+03  0.94738314414E+02  0.94011669452E+03  0.10092220956E+03 0.  0.
          2    1    3    3  502    0 -0.26626945669E+02 -0.24808440453E+03 -0.71626858384E+02  0.25958673473E+03  0.00000000000E+00 0. -1.
         -1    1    3    3    0  502 -0.11525566746E+03 -0.49839063552E+03 -0.50514620110E+02  0.51403192634E+03  0.00000000000E+00 0.  1.
         11    1    5    5    0    0 -0.84198875767E+01 -0.52890121949E+02  0.51913370617E+02  0.74587247941E+02  0.00000000000E+00 0. -1.
        -11    1    5    5    0    0 -0.14145015556E+03 -0.83549979042E+02  0.78672583425E+02  0.18214862308E+03  0.00000000000E+00 0.  1.
          4    1    6    6  503    0  0.12752759337E+03  0.54136007536E+03  0.47599028745E+02  0.55821114805E+03  0.00000000000E+00 0. -1.
         -4    1    6    6    0  503  0.16422506290E+03  0.34155506568E+03  0.47139285670E+02  0.38190554647E+03  0.00000000000E+00 0.  1.
<mgrwt>
<rscale>  0 0.19677678E+04</rscale>
<asrwt>0</asrwt>
<pdfrwt beam="1">  1        2 0.14363757E+00 0.19677678E+04</pdfrwt>
<pdfrwt beam="2">  1       -1 0.15951185E+00 0.19677678E+04</pdfrwt>
<totfact> 0.87193754E+00</totfact>
</mgrwt>
</event>
<event>
12    6  0.1611689E-007  0.1467914E+04  0.7818608E-02  0.8906074E-01
         -1   -1    0    0    0  501 -0.00000000000E+00  0.00000000000E+00  0.23811071447E+03  0.23811071447E+03  0.00000000000E+00 0.  1.
          2   -1    0    0  501    0  0.00000000000E+00 -0.00000000000E+00 -0.22623643126E+04  0.22623643126E+04  0.00000000000E+00 0. -1.
         24    2    1    2    0    0 -0.25185102520E+03  0.38653721193E+02 -0.12668191129E+04  0.12946230430E+04  0.79341727250E+02 0.  0.
        254    2    1    2    0    0  0.25185102520E+03 -0.38653721193E+02 -0.75743448529E+03  0.12058519841E+04  0.90302212542E+03 0.  0.
         23    2    4    4    0    0 -0.16680307615E+03 -0.35493297749E+03 -0.27976912771E+03  0.49014680792E+03  0.90401569548E+02 0.  0.
         23    2    4    4    0    0  0.41865410135E+03  0.31627925629E+03 -0.47766535758E+03  0.71570517618E+03  0.93626282857E+02 0.  0.
          4    1    3    3  502    0 -0.16954513372E+03 -0.87685524233E+01 -0.88740246406E+03  0.90349630497E+03  0.00000000000E+00 0. -1.
         -3    1    3    3    0  502 -0.82305891485E+02  0.47422273617E+02 -0.37941664883E+03  0.39112673805E+03  0.00000000000E+00 0.  1.
         11    1    5    5    0    0 -0.87781387277E+02 -0.91651548865E+02 -0.75425790814E+02  0.14763003855E+03  0.00000000000E+00 0. -1.
        -11    1    5    5    0    0 -0.79021688870E+02 -0.26328142862E+03 -0.20434333689E+03  0.34251676937E+03  0.00000000000E+00 0.  1.
          1    1    6    6  503    0  0.99293031314E+02  0.42840085512E+02 -0.62815163733E+02  0.12506048052E+03  0.00000000000E+00 0. -1.
         -1    1    6    6    0  503  0.31936107003E+03  0.27343917078E+03 -0.41485019385E+03  0.59064469566E+03  0.00000000000E+00 0.  1.
<mgrwt>
<rscale>  0 0.14679144E+04</rscale>
<asrwt>0</asrwt>
<pdfrwt beam="1">  1        2 0.34805605E+00 0.14679144E+04</pdfrwt>
<pdfrwt beam="2">  1       -1 0.36632418E-01 0.14679144E+04</pdfrwt>
<totfact> 0.37604603E+01</totfact>
</mgrwt>
</event>
<event>
12    6  0.1611689E-007  0.2777556E+04  0.7818608E-02  0.8310270E-01
         -1   -1    0    0    0  501 -0.00000000000E+00  0.00000000000E+00  0.97614714266E+03  0.97614714266E+03  0.00000000000E+00 0.  1.
          2   -1    0    0  501    0  0.00000000000E+00 -0.00000000000E+00 -0.19758335694E+04  0.19758335694E+04  0.00000000000E+00 0. -1.
         24    2    1    2    0    0 -0.23114843502E+03  0.26326347306E+03 -0.17106868342E+04  0.17479818918E+04  0.79082199387E+02 0.  0.
        254    2    1    2    0    0  0.23114843502E+03 -0.26326347306E+03  0.71100040742E+03  0.12039988203E+04  0.90628600596E+03 0.  0.
         23    2    4    4    0    0 -0.65514984113E+02 -0.52705928585E+03  0.53770624336E+03  0.76117477768E+03  0.90417554090E+02 0.  0.
         23    2    4    4    0    0  0.29666341913E+03  0.26379581278E+03  0.17329416405E+03  0.44282404258E+03  0.92004621086E+02 0.  0.
          4    1    3    3  502    0 -0.17922311686E+03  0.24287342511E+03 -0.13802120077E+04  0.14128317707E+04  0.00000000000E+00 0. -1.
         -1    1    3    3    0  502 -0.51925318160E+02  0.20390047955E+02 -0.33047482648E+03  0.33515012108E+03  0.00000000000E+00 0.  1.
         11    1    5    5    0    0 -0.67522179091E+02 -0.50553070547E+03  0.53538171270E+03  0.73942823664E+03  0.00000000000E+00 0. -1.
        -11    1    5    5    0    0  0.20071949782E+01 -0.21528580374E+02  0.23245306644E+01  0.21746541045E+02  0.00000000000E+00 0.  1.
          2    1    6    6  503    0  0.29091874688E+03  0.26971531039E+03  0.16126078979E+03  0.42823487512E+03  0.00000000000E+00 0. -1.
         -2    1    6    6    0  503  0.57446722450E+01 -0.59194976034E+01  0.12033374259E+02  0.14589167459E+02  0.00000000000E+00 0.  1.
<mgrwt>
<rscale>  0 0.27775560E+04</rscale>
<asrwt>0</asrwt>
<pdfrwt beam="1">  1        2 0.30397440E+00 0.27775560E+04</pdfrwt>
<pdfrwt beam="2">  1       -1 0.15017648E+00 0.27775560E+04</pdfrwt>
<totfact> 0.23770637E+00</totfact>
</mgrwt>
</event>
<event>
12    6  0.1611689E-007  0.2595109E+04  0.7818608E-02  0.8369864E-01
          2   -1    0    0  501    0  0.00000000000E+00  0.00000000000E+00  0.13279807148E+04  0.13279807148E+04  0.00000000000E+00 0. -1.
         -1   -1    0    0    0  501 -0.00000000000E+00 -0.00000000000E+00 -0.12678253539E+04  0.12678253539E+04  0.00000000000E+00 0.  1.
         24    2    1    2    0    0 -0.39699054362E+02  0.14680015820E+02 -0.11167439222E+04  0.11204538938E+04  0.80674794912E+02 0.  0.
        254    2    1    2    0    0  0.39699054362E+02 -0.14680015820E+02  0.11768992831E+04  0.14753521749E+04  0.88869601073E+03 0.  0.
         23    2    4    4    0    0 -0.25106290415E+03  0.19669934056E+03  0.10198688223E+04  0.10723816806E+04  0.90259856298E+02 0.  0.
         23    2    4    4    0    0  0.29076195852E+03 -0.21137935638E+03  0.15703046079E+03  0.40297049429E+03  0.92211196855E+02 0.  0.
          2    1    3    3  502    0 -0.15851607682E+02  0.12568376710E+01 -0.35904979795E+02  0.39268571162E+02  0.00000000000E+00 0. -1.
         -1    1    3    3    0  502 -0.23847446680E+02  0.13423178149E+02 -0.10808389424E+04  0.10811853226E+04  0.00000000000E+00 0.  1.
         11    1    5    5    0    0 -0.21673852653E+03  0.19038516005E+03  0.81474091977E+03  0.86430600160E+03  0.00000000000E+00 0.  1.
        -11    1    5    5    0    0 -0.34324377622E+02  0.63141805139E+01  0.20512790255E+03  0.20807567897E+03  0.00000000000E+00 0. -1.
          4    1    6    6  503    0  0.46487483240E+02 -0.11675915205E+02  0.51302724363E+02  0.70209562176E+02  0.00000000000E+00 0. -1.
         -4    1    6    6    0  503  0.24427447528E+03 -0.19970344118E+03  0.10572773643E+03  0.33276093211E+03  0.00000000000E+00 0.  1.
<mgrwt>
<rscale>  0 0.25951090E+04</rscale>
<asrwt>0</asrwt>
<pdfrwt beam="1">  1        2 0.20430473E+00 0.25951090E+04</pdfrwt>
<pdfrwt beam="2">  1       -1 0.19505005E+00 0.25951090E+04</pdfrwt>
<totfact> 0.26149564E+00</totfact>
</mgrwt>
</event>
<event>
12    6  0.1611689E-007  0.2604906E+04  0.7818608E-02  0.8366537E-01
          2   -1    0    0  501    0  0.00000000000E+00  0.00000000000E+00  0.10881265541E+04  0.10881265541E+04  0.00000000000E+00 0. -1.
         -1   -1    0    0    0  501 -0.00000000000E+00 -0.00000000000E+00 -0.15589950079E+04  0.15589950079E+04  0.00000000000E+00 0.  1.
         24    2    1    2    0    0  0.91204413408E+03  0.37285041455E+03  0.37678916526E+03  0.10580019365E+04  0.80969676402E+02 0.  0.
        254    2    1    2    0    0 -0.91204413408E+03 -0.37285041455E+03 -0.84765761906E+03  0.15891196254E+04  0.91429525347E+03 0.  0.
         23    2    4    4    0    0 -0.29305361163E+03 -0.60355672557E+03 -0.41910093720E+03  0.79704712675E+03  0.97351869172E+02 0.  0.
         23    2    4    4    0    0 -0.61899052245E+03  0.23070631102E+03 -0.42855668186E+03  0.79207249864E+03  0.85693317750E+02 0.  0.
          2    1    3    3  502    0  0.88656725264E+03  0.36609226930E+03  0.35173741805E+03  0.10216380251E+04  0.00000000000E+00 0. -1.
         -1    1    3    3    0  502  0.25476881442E+02  0.67581452529E+01  0.25051747216E+02  0.36363911421E+02  0.00000000000E+00 0.  1.
         11    1    5    5    0    0 -0.12651634471E+03 -0.18687534356E+03 -0.17950187033E+03  0.28835689859E+03  0.00000000000E+00 0.  1.
        -11    1    5    5    0    0 -0.16653726692E+03 -0.41668138201E+03 -0.23959906686E+03  0.50869022816E+03  0.00000000000E+00 0. -1.
          4    1    6    6  503    0 -0.31209896844E+03  0.13107181349E+03 -0.26754751864E+03  0.43147104320E+03  0.00000000000E+00 0. -1.
         -4    1    6    6    0  503 -0.30689155402E+03  0.99634497527E+02 -0.16100916322E+03  0.36060145544E+03  0.00000000000E+00 0.  1.
<mgrwt>
<rscale>  0 0.26049060E+04</rscale>
<asrwt>0</asrwt>
<pdfrwt beam="1">  1        2 0.16740409E+00 0.26049060E+04</pdfrwt>
<pdfrwt beam="2">  1       -1 0.23984539E+00 0.26049060E+04</pdfrwt>
<totfact> 0.18146831E+00</totfact>
</mgrwt>
</event>
<event>
12    6  0.1611689E-007  0.1528889E+04  0.7818608E-02  0.8865466E-01
          2   -1    0    0  501    0  0.00000000000E+00  0.00000000000E+00  0.57432698197E+03  0.57432698197E+03  0.00000000000E+00 0. -1.
         -3   -1    0    0    0  501 -0.00000000000E+00 -0.00000000000E+00 -0.10174962491E+04  0.10174962491E+04  0.00000000000E+00 0.  1.
         24    2    1    2    0    0  0.54619822039E+02 -0.19912687849E+03 -0.59666626759E+03  0.63599368492E+03  0.76436206545E+02 0.  0.
        254    2    1    2    0    0 -0.54619822039E+02  0.19912687849E+03  0.15349700043E+03  0.95582954619E+03  0.92055089677E+03 0.  0.
         23    2    4    4    0    0 -0.36067934267E+03 -0.82664230817E+02  0.31914231069E+03  0.49732289729E+03  0.92494791271E+02 0.  0.
         23    2    4    4    0    0  0.30605952063E+03  0.28179110931E+03 -0.16564531026E+03  0.45850664890E+03  0.98546023893E+02 0.  0.
          2    1    3    3  502    0  0.41259658976E+02 -0.80331513625E+02 -0.16519682008E+03  0.18826975569E+03  0.00000000000E+00 0. -1.
         -1    1    3    3    0  502  0.13360163062E+02 -0.11879536487E+03 -0.43146944751E+03  0.44772392923E+03  0.00000000000E+00 0.  1.
         11    1    5    5    0    0 -0.11936663102E+02 -0.17635593130E+02  0.18479294540E+01  0.21375521382E+02  0.00000000000E+00 0.  1.
        -11    1    5    5    0    0 -0.34874267956E+03 -0.65028637687E+02  0.31729438124E+03  0.47594737591E+03  0.00000000000E+00 0. -1.
          1    1    6    6  503    0  0.30395277280E+03  0.28377949469E+03 -0.14917254406E+03  0.44178109693E+03  0.00000000000E+00 0. -1.
         -1    1    6    6    0  503  0.21067478294E+01 -0.19883853797E+01 -0.16472766196E+02  0.16725551979E+02  0.00000000000E+00 0.  1.
<mgrwt>
<rscale>  0 0.15288892E+04</rscale>
<asrwt>0</asrwt>
<pdfrwt beam="1">  1        2 0.88357997E-01 0.15288892E+04</pdfrwt>
<pdfrwt beam="2">  1       -3 0.15653788E+00 0.15288892E+04</pdfrwt>
<totfact> 0.91305592E+00</totfact>
</mgrwt>
</event>
<event>
12    6  0.1611689E-007  0.2583404E+04  0.7818608E-02  0.8373861E-01
         -1   -1    0    0    0  501 -0.00000000000E+00  0.00000000000E+00  0.19949582496E+04  0.19949582496E+04  0.00000000000E+00 0.  1.
          2   -1    0    0  501    0  0.00000000000E+00 -0.00000000000E+00 -0.83635512392E+03  0.83635512392E+03  0.00000000000E+00 0. -1.
         24    2    1    2    0    0 -0.10894928563E+04  0.24072108513E+03  0.72754965847E+03  0.13342381511E+04  0.76952021045E+02 0.  0.
        254    2    1    2    0    0  0.10894928563E+04 -0.24072108513E+03  0.43105346724E+03  0.14970752224E+04  0.90026985137E+03 0.  0.
         23    2    4    4    0    0  0.11056435512E+04  0.56333401332E+02  0.41243596535E+03  0.11849883107E+04  0.92047577679E+02 0.  0.
         23    2    4    4    0    0 -0.16150694886E+02 -0.29705448646E+03  0.18617501887E+02  0.31208691176E+03  0.92463053401E+02 0.  0.
          2    1    3    3  502    0 -0.41166223134E+03  0.10175870300E+03  0.23408565601E+03  0.48437250200E+03  0.00000000000E+00 0. -1.
         -1    1    3    3    0  502 -0.67783062496E+03  0.13896238212E+03  0.49346400246E+03  0.84986564909E+03  0.00000000000E+00 0.  1.
         11    1    5    5    0    0  0.40238324697E+03  0.32109341293E+02  0.19632609310E+03  0.44887328064E+03  0.00000000000E+00 0.  1.
        -11    1    5    5    0    0  0.70326030422E+03  0.24224060039E+02  0.21610987225E+03  0.73611503004E+03  0.00000000000E+00 0. -1.
          4    1    6    6  503    0 -0.98948469183E+01  0.37627147700E+01  0.17726133726E+01  0.10733507169E+02  0.00000000000E+00 0. -1.
         -4    1    6    6    0  503 -0.62558479677E+01 -0.30081720123E+03  0.16844888515E+02  0.30135340459E+03  0.00000000000E+00 0.  1.
<mgrwt>
<rscale>  0 0.25834036E+04</rscale>
<asrwt>0</asrwt>
<pdfrwt beam="1">  1        2 0.12867002E+00 0.25834036E+04</pdfrwt>
<pdfrwt beam="2">  1       -1 0.30691665E+00 0.25834036E+04</pdfrwt>
<totfact> 0.97609586E-01</totfact>
</mgrwt>
</event>
<event>
12    6  0.1611689E-007  0.1940985E+04  0.7818608E-02  0.8634720E-01
         -1   -1    0    0    0  501 -0.00000000000E+00  0.00000000000E+00  0.34488209735E+03  0.34488209735E+03  0.00000000000E+00 0.  1.
          2   -1    0    0  501    0  0.00000000000E+00 -0.00000000000E+00 -0.27309500464E+04  0.27309500464E+04  0.00000000000E+00 0. -1.
         24    2    1    2    0    0 -0.44004198169E+03 -0.16622982030E+03 -0.18431565827E+04  0.19039353519E+04  0.80463265273E+02 0.  0.
        254    2    1    2    0    0  0.44004198169E+03  0.16622982030E+03 -0.54291136630E+03  0.11718967918E+04  0.92591578461E+03 0.  0.
         23    2    4    4    0    0  0.57112113100E+03  0.36164080346E+03 -0.60559898386E+03  0.91217856128E+03  0.91412151270E+02 0.  0.
         23    2    4    4    0    0 -0.13107914930E+03 -0.19541098317E+03  0.62687617559E+02  0.25971823053E+03  0.90314041828E+02 0.  0.
          4    1    3    3  502    0 -0.43447990579E+03 -0.15921582645E+03 -0.18324856236E+04  0.18900068859E+04  0.00000000000E+00 0. -1.
         -3    1    3    3    0  502 -0.55620759013E+01 -0.70139938504E+01 -0.10670959128E+02  0.13928466060E+02  0.00000000000E+00 0.  1.
         11    1    5    5    0    0  0.14526005396E+02  0.32571281481E+01  0.11946457824E+00  0.14887175297E+02  0.00000000000E+00 0. -1.
        -11    1    5    5    0    0  0.55659512560E+03  0.35838367532E+03 -0.60571844844E+03  0.89729138598E+03  0.00000000000E+00 0.  1.
          4    1    6    6  503    0 -0.31994335819E+02 -0.19600505155E+02  0.42819968036E+02  0.56933004395E+02  0.00000000000E+00 0. -1.
         -4    1    6    6    0  503 -0.99084813484E+02 -0.17581047801E+03  0.19867649523E+02  0.20278522614E+03  0.00000000000E+00 0.  1.
<mgrwt>
<rscale>  0 0.19409851E+04</rscale>
<asrwt>0</asrwt>
<pdfrwt beam="1">  1        2 0.42014617E+00 0.19409851E+04</pdfrwt>
<pdfrwt beam="2">  1       -1 0.53058784E-01 0.19409851E+04</pdfrwt>
<totfact> 0.97005431E+00</totfact>
</mgrwt>
</event>
<event>
12    6  0.1611689E-007  0.1365431E+04  0.7818608E-02  0.8979228E-01
         -1   -1    0    0    0  501 -0.00000000000E+00  0.00000000000E+00  0.16996301670E+03  0.16996301670E+03  0.00000000000E+00 0.  1.
          2   -1    0    0  501    0  0.00000000000E+00 -0.00000000000E+00 -0.27423647249E+04  0.27423647249E+04  0.00000000000E+00 0. -1.
         24    2    1    2    0    0 -0.16244459279E+03 -0.32833451439E+03 -0.87767885646E+03  0.95440090616E+03  0.79806738636E+02 0.  0.
        254    2    1    2    0    0  0.16244459279E+03  0.32833451439E+03 -0.16947228517E+04  0.19579268354E+04  0.90950544235E+03 0.  0.
         23    2    4    4    0    0  0.43462601933E+03  0.83736731519E+02 -0.14235996998E+04  0.14936408738E+04  0.91735149003E+02 0.  0.
         23    2    4    4    0    0 -0.27218142655E+03  0.24459778287E+03 -0.27112315186E+03  0.46428596162E+03  0.90237942924E+02 0.  0.
          4    1    3    3  502    0 -0.65335502273E+02 -0.11229989802E+03 -0.22162821084E+03  0.25690281974E+03  0.00000000000E+00 0. -1.
         -3    1    3    3    0  502 -0.97109090517E+02 -0.21603461637E+03 -0.65605064562E+03  0.69749808642E+03  0.00000000000E+00 0.  1.
         11    1    5    5    0    0  0.16299971090E+03  0.28734810823E+02 -0.68627977544E+03  0.70595646133E+03  0.00000000000E+00 0. -1.
        -11    1    5    5    0    0  0.27162630844E+03  0.55001920696E+02 -0.73731992440E+03  0.78768441246E+03  0.00000000000E+00 0.  1.
          4    1    6    6  503    0 -0.20286813278E+02  0.55343083566E+02 -0.65185763214E+02  0.87883988401E+02  0.00000000000E+00 0. -1.
         -4    1    6    6    0  503 -0.25189461327E+03  0.18925469930E+03 -0.20593738865E+03  0.37640197322E+03  0.00000000000E+00 0.  1.
<mgrwt>
<rscale>  0 0.13654312E+04</rscale>
<asrwt>0</asrwt>
<pdfrwt beam="1">  1        2 0.42190229E+00 0.13654312E+04</pdfrwt>
<pdfrwt beam="2">  1       -1 0.26148155E-01 0.13654312E+04</pdfrwt>
<totfact> 0.36325471E+01</totfact>
</mgrwt>
</event>
<event>
12    6  0.1611689E-007  0.1967208E+04  0.7818608E-02  0.8622107E-01
         -1   -1    0    0    0  501 -0.00000000000E+00  0.00000000000E+00  0.53575166119E+03  0.53575166119E+03  0.00000000000E+00 0.  1.
          2   -1    0    0  501    0  0.00000000000E+00 -0.00000000000E+00 -0.18058316088E+04  0.18058316088E+04  0.00000000000E+00 0. -1.
         24    2    1    2    0    0  0.74481912301E+03 -0.12746930632E+03 -0.37003025641E+03  0.84508012107E+03  0.78956129005E+02 0.  0.
        254    2    1    2    0    0 -0.74481912301E+03  0.12746930632E+03 -0.90004969124E+03  0.14965031490E+04  0.92651404637E+03 0.  0.
         23    2    4    4    0    0  0.21791980292E+02  0.11956811830E+03 -0.67606980435E+03  0.69294774693E+03  0.91294985106E+02 0.  0.
         23    2    4    4    0    0 -0.76661110331E+03  0.79011880114E+01 -0.22397988689E+03  0.80355540204E+03  0.88200237697E+02 0.  0.
          4    1    3    3  502    0  0.62717540103E+03 -0.10965487347E+03 -0.27836947386E+03  0.69488325560E+03  0.00000000000E+00 0. -1.
         -3    1    3    3    0  502  0.11764372199E+03 -0.17814432842E+02 -0.91660782549E+02  0.15019686547E+03  0.00000000000E+00 0.  1.
         11    1    5    5    0    0  0.23877529669E+02  0.12441752730E+03 -0.46896559149E+03  0.48577626900E+03  0.00000000000E+00 0. -1.
        -11    1    5    5    0    0 -0.20855493766E+01 -0.48494090006E+01 -0.20710421285E+03  0.20717147792E+03  0.00000000000E+00 0.  1.
          1    1    6    6  503    0 -0.69777656910E+03  0.32775199270E+01 -0.22895571672E+03  0.73438654859E+03  0.00000000000E+00 0. -1.
         -1    1    6    6    0  503 -0.68834534203E+02  0.46236680844E+01  0.49758298271E+01  0.69168853453E+02  0.00000000000E+00 0.  1.
<mgrwt>
<rscale>  0 0.19672085E+04</rscale>
<asrwt>0</asrwt>
<pdfrwt beam="1">  1        2 0.27782025E+00 0.19672085E+04</pdfrwt>
<pdfrwt beam="2">  1       -1 0.82423332E-01 0.19672085E+04</pdfrwt>
<totfact> 0.13294374E+01</totfact>
</mgrwt>
</event>
<event>
12    6  0.1611689E-007  0.2913589E+04  0.7818608E-02  0.8268846E-01
         -1   -1    0    0    0  501 -0.00000000000E+00  0.00000000000E+00  0.69089597713E+03  0.69089597713E+03  0.00000000000E+00 0.  1.
          2   -1    0    0  501    0  0.00000000000E+00 -0.00000000000E+00 -0.30717353355E+04  0.30717353355E+04  0.00000000000E+00 0. -1.
         24    2    1    2    0    0 -0.72825557333E+03 -0.83937301749E+03 -0.20608611510E+03  0.11334995259E+04  0.86292790949E+02 0.  0.
        254    2    1    2    0    0  0.72825557333E+03  0.83937301749E+03 -0.21747532433E+04  0.26291317867E+04  0.97359079720E+03 0.  0.
         23    2    4    4    0    0  0.57580758087E+03 -0.29670101930E+02 -0.98615885885E+03  0.11460587607E+04  0.92231789500E+02 0.  0.
         23    2    4    4    0    0  0.15244799246E+03  0.86904311942E+03 -0.11885943844E+04  0.14830730260E+04  0.90954142487E+02 0.  0.
          2    1    3    3  502    0 -0.12567546413E+03 -0.99724577115E+02 -0.35941772643E+02  0.16441144907E+03  0.00000000000E+00 0. -1.
         -1    1    3    3    0  502 -0.60258010920E+03 -0.73964844037E+03 -0.17014434246E+03  0.96908807681E+03  0.00000000000E+00 0.  1.
         11    1    5    5    0    0  0.41765418886E+03 -0.58449157994E+02 -0.74873913820E+03  0.85933789781E+03  0.00000000000E+00 0. -1.
        -11    1    5    5    0    0  0.15815339201E+03  0.28779056064E+02 -0.23741972065E+03  0.28672086291E+03  0.00000000000E+00 0.  1.
          4    1    6    6  503    0  0.30766564509E+02  0.60783828398E+02 -0.70108506786E+02  0.97757137898E+02  0.00000000000E+00 0.  1.
         -4    1    6    6    0  503  0.12168142795E+03  0.80825929102E+03 -0.11184858776E+04  0.13853158881E+04  0.00000000000E+00 0. -1.
<mgrwt>
<rscale>  0 0.29135886E+04</rscale>
<asrwt>0</asrwt>
<pdfrwt beam="1">  1        2 0.47257466E+00 0.29135886E+04</pdfrwt>
<pdfrwt beam="2">  1       -1 0.10629169E+00 0.29135886E+04</pdfrwt>
<totfact> 0.12706779E+00</totfact>
</mgrwt>
</event>
<event>
12    6  0.1611689E-007  0.1196414E+04  0.7818608E-02  0.9116001E-01
          2   -1    0    0  501    0  0.00000000000E+00  0.00000000000E+00  0.98657241965E+03  0.98657241965E+03  0.00000000000E+00 0. -1.
         -1   -1    0    0    0  501 -0.00000000000E+00 -0.00000000000E+00 -0.36272204809E+03  0.36272204809E+03  0.00000000000E+00 0.  1.
         24    2    1    2    0    0 -0.18207690928E+03  0.10618312074E+03 -0.63850863239E+01  0.22611309080E+03  0.81605787042E+02 0.  0.
        254    2    1    2    0    0  0.18207690928E+03 -0.10618312074E+03  0.63023545788E+03  0.11231813769E+04  0.90549037383E+03 0.  0.
         23    2    4    4    0    0 -0.17609801575E+03 -0.23301862573E+03 -0.77181541960E+02  0.31476658614E+03  0.88390170526E+02 0.  0.
         23    2    4    4    0    0  0.35817492503E+03  0.12683550499E+03  0.70741699984E+03  0.80841479080E+03  0.93376335683E+02 0.  0.
          2    1    3    3  502    0 -0.41238693350E+02 -0.38455950611E+01 -0.21659323826E+02  0.46739113590E+02  0.00000000000E+00 0. -1.
         -1    1    3    3    0  502 -0.14083821593E+03  0.11002871580E+03  0.15274237502E+02  0.17937397721E+03  0.00000000000E+00 0.  1.
         11    1    5    5    0    0 -0.33289112813E+02 -0.76181648793E+01 -0.26353383456E+02  0.43135858490E+02  0.00000000000E+00 0. -1.
        -11    1    5    5    0    0 -0.14280890293E+03 -0.22540046085E+03 -0.50828158504E+02  0.27163072765E+03  0.00000000000E+00 0.  1.
          4    1    6    6  503    0  0.26386493115E+03  0.72952193872E+02  0.42192551761E+03  0.50295911056E+03  0.00000000000E+00 0. -1.
         -4    1    6    6    0  503  0.94309993875E+02  0.53883311113E+02  0.28549148223E+03  0.30545568024E+03  0.00000000000E+00 0.  1.
<mgrwt>
<rscale>  0 0.11964139E+04</rscale>
<asrwt>0</asrwt>
<pdfrwt beam="1">  1        2 0.15178037E+00 0.11964139E+04</pdfrwt>
<pdfrwt beam="2">  1       -1 0.55803392E-01 0.11964139E+04</pdfrwt>
<totfact> 0.93960288E+01</totfact>
</mgrwt>
</event>
<event>
12    6  0.1611689E-007  0.1180291E+04  0.7818608E-02  0.9130285E-01
          2   -1    0    0  501    0  0.00000000000E+00  0.00000000000E+00  0.59980318177E+03  0.59980318177E+03  0.00000000000E+00 0. -1.
         -1   -1    0    0    0  501 -0.00000000000E+00 -0.00000000000E+00 -0.58064290251E+03  0.58064290251E+03  0.00000000000E+00 0.  1.
         24    2    1    2    0    0  0.21878782031E+03 -0.96736008321E+02  0.93571190699E+01  0.25363594106E+03  0.83771530364E+02 0.  0.
        254    2    1    2    0    0 -0.21878782031E+03  0.96736008321E+02  0.98031601918E+01  0.92681014322E+03  0.89535187162E+03 0.  0.
         23    2    4    4    0    0 -0.51170073450E+03 -0.14006319899E+03  0.17097306753E+02  0.53874434932E+03  0.92183591981E+02 0.  0.
         23    2    4    4    0    0  0.29291291419E+03  0.23679920731E+03 -0.72941465613E+01  0.38806579390E+03  0.93112920373E+02 0.  0.
          4    1    3    3  502    0  0.86156900497E+02 -0.68761514329E+02  0.35056008594E+02  0.11567230046E+03  0.00000000000E+00 0. -1.
         -3    1    3    3    0  502  0.13263091981E+03 -0.27974493992E+02 -0.25698889524E+02  0.13796364060E+03  0.00000000000E+00 0.  1.
         11    1    5    5    0    0 -0.49593273169E+03 -0.15196062145E+03  0.17504789985E+02  0.51898720842E+03  0.00000000000E+00 0. -1.
        -11    1    5    5    0    0 -0.15768002811E+02  0.11897422467E+02 -0.40748323226E+00  0.19757140901E+02  0.00000000000E+00 0.  1.
          2    1    6    6  503    0  0.28840128216E+03  0.23740350347E+03 -0.20490553480E+02  0.37410638299E+03  0.00000000000E+00 0. -1.
         -2    1    6    6    0  503  0.45116320256E+01 -0.60429615864E+00  0.13196406919E+02  0.13959410910E+02  0.00000000000E+00 0.  1.
<mgrwt>
<rscale>  0 0.11802906E+04</rscale>
<asrwt>0</asrwt>
<pdfrwt beam="1">  1        2 0.92277413E-01 0.11802906E+04</pdfrwt>
<pdfrwt beam="2">  1       -1 0.89329677E-01 0.11802906E+04</pdfrwt>
<totfact> 0.68836767E+01</totfact>
</mgrwt>
</event>
<event>
12    6  0.1611689E-007  0.1551689E+04  0.7818608E-02  0.8850790E-01
          2   -1    0    0  501    0  0.00000000000E+00  0.00000000000E+00  0.12159815340E+04  0.12159815340E+04  0.00000000000E+00 0. -1.
         -1   -1    0    0    0  501 -0.00000000000E+00 -0.00000000000E+00 -0.49501961056E+03  0.49501961056E+03  0.00000000000E+00 0.  1.
         24    2    1    2    0    0  0.10159218154E+03 -0.49687349642E+03  0.32232479831E+03  0.60570160576E+03  0.76006031455E+02 0.  0.
        254    2    1    2    0    0 -0.10159218154E+03  0.49687349642E+03  0.39863712518E+03  0.11052995388E+04  0.89753622223E+03 0.  0.
         23    2    4    4    0    0  0.10222506540E+03  0.58181886039E+03 -0.47982834559E+02  0.59904644341E+03  0.87127140694E+02 0.  0.
         23    2    4    4    0    0 -0.20381724694E+03 -0.84945363968E+02  0.44661995974E+03  0.50625309544E+03  0.89808814706E+02 0.  0.
          2    1    3    3  502    0  0.69600491972E+02 -0.38539987297E+03  0.28322153025E+03  0.48331327912E+03  0.00000000000E+00 0. -1.
         -1    1    3    3    0  502  0.31991689563E+02 -0.11147362345E+03  0.39103268057E+02  0.12238832664E+03  0.00000000000E+00 0.  1.
         11    1    5    5    0    0  0.11510294551E+03  0.54072285275E+03 -0.54385266819E+02  0.55550665955E+03  0.00000000000E+00 0.  1.
        -11    1    5    5    0    0 -0.12877880108E+02  0.41096007634E+02  0.64024322599E+01  0.43539783858E+02  0.00000000000E+00 0. -1.
          2    1    6    6  503    0 -0.13451530053E+03 -0.97352600760E+02  0.34158246032E+03  0.37980320187E+03  0.00000000000E+00 0.  1.
         -2    1    6    6    0  503 -0.69301946406E+02  0.12407236792E+02  0.10503749942E+03  0.12644989357E+03  0.00000000000E+00 0. -1.
<mgrwt>
<rscale>  0 0.15516890E+04</rscale>
<asrwt>0</asrwt>
<pdfrwt beam="1">  1        2 0.18707408E+00 0.15516890E+04</pdfrwt>
<pdfrwt beam="2">  1       -1 0.76156863E-01 0.15516890E+04</pdfrwt>
<totfact> 0.35208645E+01</totfact>
</mgrwt>
</event>
<event>
12    6  0.1611689E-007  0.2429831E+04  0.7818608E-02  0.8428419E-01
         -1   -1    0    0    0  501 -0.00000000000E+00  0.00000000000E+00  0.13594029471E+04  0.13594029471E+04  0.00000000000E+00 0.  1.
          2   -1    0    0  501    0  0.00000000000E+00 -0.00000000000E+00 -0.10857854280E+04  0.10857854280E+04  0.00000000000E+00 0. -1.
         24    2    1    2    0    0 -0.62730143407E+03 -0.45433214434E+03 -0.58964733609E+03  0.97685576891E+03  0.81476534791E+02 0.  0.
        254    2    1    2    0    0  0.62730143407E+03  0.45433214434E+03  0.86326485516E+03  0.14683326063E+04  0.90047190176E+03 0.  0.
         23    2    4    4    0    0  0.71743006917E+03  0.52328013838E+03  0.94407750649E+03  0.12992601593E+04  0.90920931844E+02 0.  0.
         23    2    4    4    0    0 -0.90128635103E+02 -0.68947994039E+02 -0.80812651337E+02  0.16907244697E+03  0.95800892280E+02 0.  0.
          4    1    3    3  502    0 -0.60511489883E+03 -0.44947752807E+03 -0.55774919587E+03  0.93769838142E+03  0.00000000000E+00 0. -1.
         -3    1    3    3    0  502 -0.22186535243E+02 -0.48546162650E+01 -0.31898140221E+02  0.39157387486E+02  0.00000000000E+00 0.  1.
         11    1    5    5    0    0  0.20770442370E+03  0.12602497638E+03  0.20874781524E+03  0.32031090001E+03  0.00000000000E+00 0. -1.
        -11    1    5    5    0    0  0.50972564547E+03  0.39725516199E+03  0.73532969126E+03  0.97894925927E+03  0.00000000000E+00 0.  1.
          3    1    6    6  503    0 -0.27398196542E+02  0.12207418677E+02  0.10463624144E+02  0.31767431038E+02  0.00000000000E+00 0. -1.
         -3    1    6    6    0  503 -0.62730438561E+02 -0.81155412716E+02 -0.91276275481E+02  0.13730501594E+03  0.00000000000E+00 0.  1.
<mgrwt>
<rscale>  0 0.24298312E+04</rscale>
<asrwt>0</asrwt>
<pdfrwt beam="1">  1        2 0.16704391E+00 0.24298312E+04</pdfrwt>
<pdfrwt beam="2">  1       -1 0.20913892E+00 0.24298312E+04</pdfrwt>
<totfact> 0.29624347E+00</totfact>
</mgrwt>
</event>
<event>
12    6  0.1611689E-007  0.1697010E+04  0.7818608E-02  0.8763071E-01
         -1   -1    0    0    0  501 -0.00000000000E+00  0.00000000000E+00  0.76490552753E+03  0.76490552753E+03  0.00000000000E+00 0.  1.
          2   -1    0    0  501    0  0.00000000000E+00 -0.00000000000E+00 -0.94124147332E+03  0.94124147332E+03  0.00000000000E+00 0. -1.
         24    2    1    2    0    0 -0.25246021102E+03  0.33743106785E+03 -0.50055775718E+03  0.65908975134E+03  0.79027516410E+02 0.  0.
        254    2    1    2    0    0  0.25246021102E+03 -0.33743106785E+03  0.32422181139E+03  0.10470572495E+04  0.90200510923E+03 0.  0.
         23    2    4    4    0    0 -0.17576154257E+03 -0.35218894329E+02 -0.21182732451E+03  0.29201733855E+03  0.90944050051E+02 0.  0.
         23    2    4    4    0    0  0.42822175359E+03 -0.30221217352E+03  0.53604913590E+03  0.75503991096E+03  0.89613185263E+02 0.  0.
          2    1    3    3  502    0 -0.16216142382E+03  0.17671134928E+03 -0.23470134566E+03  0.33557108040E+03  0.00000000000E+00 0. -1.
         -1    1    3    3    0  502 -0.90298787199E+02  0.16071971857E+03 -0.26585641151E+03  0.32351867095E+03  0.00000000000E+00 0.  1.
         11    1    5    5    0    0 -0.10421603039E+03 -0.64097607552E+02 -0.11219097566E+03  0.16600090151E+03  0.00000000000E+00 0. -1.
        -11    1    5    5    0    0 -0.71545512179E+02  0.28878713223E+02 -0.99636348854E+02  0.12601643704E+03  0.00000000000E+00 0.  1.
          2    1    6    6  503    0  0.11037680862E+03 -0.70739003095E+02  0.83031574807E+02  0.15518147072E+03  0.00000000000E+00 0. -1.
         -2    1    6    6    0  503  0.31784494497E+03 -0.23147317043E+03  0.45301756110E+03  0.59985844025E+03  0.00000000000E+00 0.  1.
<mgrwt>
<rscale>  0 0.16970101E+04</rscale>
<asrwt>0</asrwt>
<pdfrwt beam="1">  1        2 0.14480638E+00 0.16970101E+04</pdfrwt>
<pdfrwt beam="2">  1       -1 0.11767777E+00 0.16970101E+04</pdfrwt>
<totfact> 0.19407087E+01</totfact>
</mgrwt>
</event>
<event>
12    6  0.1611689E-007  0.1828586E+04  0.7818608E-02  0.8691244E-01
         -1   -1    0    0    0  501 -0.00000000000E+00  0.00000000000E+00  0.11344905234E+04  0.11344905234E+04  0.00000000000E+00 0.  1.
          2   -1    0    0  501    0  0.00000000000E+00 -0.00000000000E+00 -0.73683436416E+03  0.73683436416E+03  0.00000000000E+00 0. -1.
         24    2    1    2    0    0 -0.50558145419E+03 -0.35171536788E+02  0.63098428838E+03  0.81321819527E+03  0.79580255851E+02 0.  0.
        254    2    1    2    0    0  0.50558145419E+03  0.35171536788E+02 -0.23332812915E+03  0.10581066923E+04  0.89905400983E+03 0.  0.
         23    2    4    4    0    0  0.69361195546E+03 -0.18661586411E+03 -0.12448616321E+03  0.73472908801E+03  0.91689707394E+02 0.  0.
         23    2    4    4    0    0 -0.18803050127E+03  0.22178740090E+03 -0.10884196594E+03  0.32337760428E+03  0.90450985583E+02 0.  0.
          2    1    3    3  502    0 -0.77018526262E+02 -0.10742177301E+02  0.56725326464E+02  0.96254924150E+02  0.00000000000E+00 0. -1.
         -1    1    3    3    0  502 -0.42856292793E+03 -0.24429359487E+02  0.57425896192E+03  0.71696327112E+03  0.00000000000E+00 0.  1.
         11    1    5    5    0    0  0.54917203246E+03 -0.13253519359E+03 -0.62040892361E+02  0.56833491103E+03  0.00000000000E+00 0. -1.
        -11    1    5    5    0    0  0.14443992301E+03 -0.54080670514E+02 -0.62445270847E+02  0.16639417698E+03  0.00000000000E+00 0.  1.
          1    1    6    6  503    0 -0.14461687398E+03  0.19717857149E+03 -0.11978275411E+03  0.27228906970E+03  0.00000000000E+00 0. -1.
         -1    1    6    6    0  503 -0.43413627289E+02  0.24608829401E+02  0.10940788174E+02  0.51088534572E+02  0.00000000000E+00 0.  1.
<mgrwt>
<rscale>  0 0.18285859E+04</rscale>
<asrwt>0</asrwt>
<pdfrwt beam="1">  1        2 0.11335913E+00 0.18285859E+04</pdfrwt>
<pdfrwt beam="2">  1       -1 0.17453700E+00 0.18285859E+04</pdfrwt>
<totfact> 0.94051317E+00</totfact>
</mgrwt>
</event>
<event>
12    6  0.1611689E-007  0.2174154E+04  0.7818608E-02  0.8529263E-01
         -1   -1    0    0    0  501 -0.00000000000E+00  0.00000000000E+00  0.64901875668E+03  0.64901875668E+03  0.00000000000E+00 0.  1.
          2   -1    0    0  501    0  0.00000000000E+00 -0.00000000000E+00 -0.18208054896E+04  0.18208054896E+04  0.00000000000E+00 0. -1.
         24    2    1    2    0    0 -0.60426912009E+03  0.56702788752E+03 -0.92354022597E+02  0.83760063499E+03  0.79898457618E+02 0.  0.
        254    2    1    2    0    0  0.60426912009E+03 -0.56702788752E+03 -0.10794327103E+04  0.16322236113E+04  0.90128638422E+03 0.  0.
         23    2    4    4    0    0  0.46572599151E+03 -0.68810646965E+03 -0.40828243580E+03  0.93024191908E+03  0.90908018822E+02 0.  0.
         23    2    4    4    0    0  0.13854312857E+03  0.12107858213E+03 -0.67115027449E+03  0.70198169217E+03  0.92094428051E+02 0.  0.
          2    1    3    3  502    0 -0.24718070171E+03  0.28632759098E+03 -0.45142329310E+02  0.38094568977E+03  0.00000000000E+00 0. -1.
         -1    1    3    3    0  502 -0.35708841837E+03  0.28070029654E+03 -0.47211693287E+02  0.45665494522E+03  0.00000000000E+00 0.  1.
         11    1    5    5    0    0  0.31182946448E+03 -0.38713916700E+03 -0.26188634962E+03  0.56187081226E+03  0.00000000000E+00 0. -1.
        -11    1    5    5    0    0  0.15389652703E+03 -0.30096730265E+03 -0.14639608617E+03  0.36837110682E+03  0.00000000000E+00 0.  1.
          2    1    6    6  503    0  0.37840442143E+02  0.21775582607E+02 -0.32704169477E+03  0.32994294231E+03  0.00000000000E+00 0. -1.
         -2    1    6    6    0  503  0.10070268643E+03  0.99302999523E+02 -0.34410857972E+03  0.37203874987E+03  0.00000000000E+00 0.  1.
<mgrwt>
<rscale>  0 0.21741545E+04</rscale>
<asrwt>0</asrwt>
<pdfrwt beam="1">  1        2 0.28012392E+00 0.21741545E+04</pdfrwt>
<pdfrwt beam="2">  1       -1 0.99849040E-01 0.21741545E+04</pdfrwt>
<totfact> 0.83805737E+00</totfact>
</mgrwt>
</event>
<event>
12    6  0.1611689E-007  0.2227030E+04  0.7818608E-02  0.8507261E-01
          2   -1    0    0  501    0  0.00000000000E+00  0.00000000000E+00  0.40238309441E+04  0.40238309441E+04  0.00000000000E+00 0. -1.
         -1   -1    0    0    0  501 -0.00000000000E+00 -0.00000000000E+00 -0.30814303047E+03  0.30814303047E+03  0.00000000000E+00 0.  1.
         24    2    1    2    0    0 -0.55655603036E+03 -0.78621946562E+02  0.11741160590E+03  0.57990923567E+03  0.81075341573E+02 0.  0.
        254    2    1    2    0    0  0.55655603036E+03  0.78621946562E+02  0.35982763077E+04  0.37520647389E+04  0.90247514795E+03 0.  0.
         23    2    4    4    0    0  0.29654830572E+03 -0.34884511786E+03  0.98835916123E+03  0.10930810091E+04  0.91315096794E+02 0.  0.
         23    2    4    4    0    0  0.26000772464E+03  0.42746706443E+03  0.26099171465E+04  0.26589837298E+04  0.90525443274E+02 0.  0.
          4    1    3    3  502    0 -0.18375961809E+03 -0.16175378805E+02  0.12568067349E+01  0.18447444182E+03  0.00000000000E+00 0. -1.
         -3    1    3    3    0  502 -0.37279641227E+03 -0.62446567757E+02  0.11615479917E+03  0.39543479386E+03  0.00000000000E+00 0.  1.
         11    1    5    5    0    0  0.10241275424E+03 -0.14351764698E+03  0.48166390448E+03  0.51291890597E+03  0.00000000000E+00 0.  1.
        -11    1    5    5    0    0  0.19413555148E+03 -0.20532747088E+03  0.50669525675E+03  0.58016210309E+03  0.00000000000E+00 0. -1.
          1    1    6    6  503    0  0.25147060740E+03  0.35251576203E+03  0.22205946941E+04  0.22624203024E+04  0.00000000000E+00 0. -1.
         -1    1    6    6    0  503  0.85371172453E+01  0.74951302399E+02  0.38932245234E+03  0.39656342746E+03  0.00000000000E+00 0.  1.
<mgrwt>
<rscale>  0 0.22270298E+04</rscale>
<asrwt>0</asrwt>
<pdfrwt beam="1">  1        2 0.61905088E+00 0.22270298E+04</pdfrwt>
<pdfrwt beam="2">  1       -1 0.47406623E-01 0.22270298E+04</pdfrwt>
<totfact> 0.15182518E+00</totfact>
</mgrwt>
</event>
<event>
12    6  0.1611689E-007  0.2134725E+04  0.7818608E-02  0.8546099E-01
          2   -1    0    0  501    0  0.00000000000E+00  0.00000000000E+00  0.13768590261E+04  0.13768590261E+04  0.00000000000E+00 0. -1.
         -1   -1    0    0    0  501 -0.00000000000E+00 -0.00000000000E+00 -0.82743569813E+03  0.82743569813E+03  0.00000000000E+00 0.  1.
         24    2    1    2    0    0 -0.17071466606E+03 -0.66201963848E+03  0.78993439330E+03  0.10476317098E+04  0.78245477371E+02 0.  0.
        254    2    1    2    0    0  0.17071466606E+03  0.66201963848E+03 -0.24051106529E+03  0.11566630145E+04  0.90144897667E+03 0.  0.
         23    2    4    4    0    0 -0.74342834801E+02 -0.18170470100E+03  0.57367260800E+02  0.22449520081E+03  0.92539921798E+02 0.  0.
         23    2    4    4    0    0  0.24505750086E+03  0.84372433948E+03 -0.29787832609E+03  0.93216781364E+03  0.91002175114E+02 0.  0.
          4    1    3    3  502    0 -0.74438308982E+02 -0.41665894003E+03  0.51786626135E+03  0.66882822817E+03  0.00000000000E+00 0. -1.
         -3    1    3    3    0  502 -0.96276357081E+02 -0.24536069846E+03  0.27206813195E+03  0.37880348164E+03  0.00000000000E+00 0.  1.
         11    1    5    5    0    0  0.21232354265E+02 -0.19928135522E+02  0.88056522706E+01  0.30421751510E+02  0.00000000000E+00 0.  1.
        -11    1    5    5    0    0 -0.95575189067E+02 -0.16177656547E+03  0.48561608530E+02  0.19407344930E+03  0.00000000000E+00 0. -1.
          4    1    6    6  503    0  0.23518860847E+03  0.83508896299E+03 -0.30165350224E+03  0.91852168895E+03  0.00000000000E+00 0. -1.
         -4    1    6    6    0  503  0.98688923972E+01  0.86353764912E+01  0.37751761409E+01  0.13646124695E+02  0.00000000000E+00 0.  1.
<mgrwt>
<rscale>  0 0.21347246E+04</rscale>
<asrwt>0</asrwt>
<pdfrwt beam="1">  1        2 0.21182447E+00 0.21347246E+04</pdfrwt>
<pdfrwt beam="2">  1       -1 0.12729780E+00 0.21347246E+04</pdfrwt>
<totfact> 0.83550633E+00</totfact>
</mgrwt>
</event>
<event>
12    6  0.1611689E-007  0.1194632E+04  0.7818608E-02  0.9117568E-01
          2   -1    0    0  501    0  0.00000000000E+00  0.00000000000E+00  0.19051309416E+04  0.19051309416E+04  0.00000000000E+00 0. -1.
         -1   -1    0    0    0  501 -0.00000000000E+00 -0.00000000000E+00 -0.18727653905E+03  0.18727653905E+03  0.00000000000E+00 0.  1.
         24    2    1    2    0    0  0.19546909076E+03  0.63132808709E+02  0.59612288954E+03  0.63560378522E+03  0.80223159805E+02 0.  0.
        254    2    1    2    0    0 -0.19546909076E+03 -0.63132808709E+02  0.11217315130E+04  0.14568036954E+04  0.90653268159E+03 0.  0.
         23    2    4    4    0    0 -0.48286472154E+03 -0.17820278696E+03  0.37380504491E+03  0.64218177674E+03  0.88049135036E+02 0.  0.
         23    2    4    4    0    0  0.28739563078E+03  0.11506997825E+03  0.74792646810E+03  0.81462191871E+03  0.91528794730E+02 0.  0.
          2    1    3    3  502    0  0.14123686687E+03  0.36435633228E+02  0.50955373495E+03  0.53001926072E+03  0.00000000000E+00 0. -1.
         -1    1    3    3    0  502  0.54232223894E+02  0.26697175480E+02  0.86569154596E+02  0.10558452450E+03  0.00000000000E+00 0.  1.
         11    1    5    5    0    0 -0.39239241516E+03 -0.17598316001E+03  0.32730175859E+03  0.54043345683E+03  0.00000000000E+00 0. -1.
        -11    1    5    5    0    0 -0.90472306381E+02 -0.22196269543E+01  0.46503286323E+02  0.10174831991E+03  0.00000000000E+00 0.  1.
          4    1    6    6  503    0  0.60329641429E+02  0.67827803648E+02  0.20056926708E+03  0.22015518953E+03  0.00000000000E+00 0. -1.
         -4    1    6    6    0  503  0.22706598935E+03  0.47242174607E+02  0.54735720102E+03  0.59446672917E+03  0.00000000000E+00 0.  1.
<mgrwt>
<rscale>  0 0.11946319E+04</rscale>
<asrwt>0</asrwt>
<pdfrwt beam="1">  1        2 0.29309705E+00 0.11946319E+04</pdfrwt>
<pdfrwt beam="2">  1       -1 0.28811777E-01 0.11946319E+04</pdfrwt>
<totfact> 0.92986776E+01</totfact>
</mgrwt>
</event>
<event>
12    6  0.1611689E-007  0.1309290E+04  0.7818608E-02  0.9022230E-01
         -1   -1    0    0    0  501 -0.00000000000E+00  0.00000000000E+00  0.49401702579E+03  0.49401702579E+03  0.00000000000E+00 0.  1.
          2   -1    0    0  501    0  0.00000000000E+00 -0.00000000000E+00 -0.86750101736E+03  0.86750101736E+03  0.00000000000E+00 0. -1.
         24    2    1    2    0    0  0.24448938639E+03 -0.23109273032E+03 -0.12142727010E+03  0.36575732508E+03  0.76517506892E+02 0.  0.
        254    2    1    2    0    0 -0.24448938639E+03  0.23109273032E+03 -0.25205672147E+03  0.99576071807E+03  0.90267818559E+03 0.  0.
         23    2    4    4    0    0  0.21177817464E+03 -0.16054295461E+03 -0.26630638369E+03  0.38717239570E+03  0.91429417958E+02 0.  0.
         23    2    4    4    0    0 -0.45626756103E+03  0.39163568493E+03  0.14249662226E+02  0.60858832237E+03  0.92833702367E+02 0.  0.
          2    1    3    3  502    0  0.17171770976E+03 -0.18879877426E+03 -0.11890549034E+03  0.28155011035E+03  0.00000000000E+00 0. -1.
         -1    1    3    3    0  502  0.72771676627E+02 -0.42293956065E+02 -0.25217797576E+01  0.84207214725E+02  0.00000000000E+00 0.  1.
         11    1    5    5    0    0  0.11199552587E+03 -0.11478413360E+03 -0.10368677377E+03  0.19096947976E+03  0.00000000000E+00 0. -1.
        -11    1    5    5    0    0  0.99782648766E+02 -0.45758821004E+02 -0.16261960992E+03  0.19620291594E+03  0.00000000000E+00 0.  1.
          4    1    6    6  503    0 -0.34695629183E+03  0.24181864583E+03  0.62219921094E+01  0.42295820017E+03  0.00000000000E+00 0.  1.
         -4    1    6    6    0  503 -0.10931126920E+03  0.14981703910E+03  0.80276701167E+01  0.18563012220E+03  0.00000000000E+00 0. -1.
<mgrwt>
<rscale>  0 0.13092903E+04</rscale>
<asrwt>0</asrwt>
<pdfrwt beam="1">  1        2 0.13346169E+00 0.13092903E+04</pdfrwt>
<pdfrwt beam="2">  1       -1 0.76002621E-01 0.13092903E+04</pdfrwt>
<totfact> 0.60015847E+01</totfact>
</mgrwt>
</event>
<event>
12    6  0.1611689E-007  0.2853742E+04  0.7818608E-02  0.8286775E-01
         -1   -1    0    0    0  501 -0.00000000000E+00  0.00000000000E+00  0.76174548454E+03  0.76174548454E+03  0.00000000000E+00 0.  1.
          2   -1    0    0  501    0  0.00000000000E+00 -0.00000000000E+00 -0.26727582407E+04  0.26727582407E+04  0.00000000000E+00 0. -1.
         24    2    1    2    0    0  0.97646580884E+02  0.12651419200E+04 -0.64758009692E+03  0.14269452672E+04  0.81816143657E+02 0.  0.
        254    2    1    2    0    0 -0.97646580884E+02 -0.12651419200E+04 -0.12634326592E+04  0.20075584580E+04  0.90769485262E+03 0.  0.
         23    2    4    4    0    0  0.25832905057E+03 -0.90590088323E+03 -0.11360272754E+04  0.14785376369E+04  0.90140249484E+02 0.  0.
         23    2    4    4    0    0 -0.35597563145E+03 -0.35924103672E+03 -0.12740538383E+03  0.52902082113E+03  0.88646064225E+02 0.  0.
          2    1    3    3  502    0 -0.27570865221E+01  0.14927980752E+03 -0.10180897350E+03  0.18071283724E+03  0.00000000000E+00 0. -1.
         -1    1    3    3    0  502  0.10040366741E+03  0.11158621124E+04 -0.54577112342E+03  0.12462324300E+04  0.00000000000E+00 0.  1.
         11    1    5    5    0    0  0.43780967972E+02 -0.26207447210E+03 -0.27770119595E+03  0.38434067742E+03  0.00000000000E+00 0. -1.
        -11    1    5    5    0    0  0.21454808260E+03 -0.64382641113E+03 -0.85832607942E+03  0.10941969594E+04  0.00000000000E+00 0.  1.
          1    1    6    6  503    0 -0.23084742940E+02 -0.39500505370E+02 -0.36623266499E+02  0.58604256928E+02  0.00000000000E+00 0. -1.
         -1    1    6    6    0  503 -0.33289088851E+03 -0.31974053135E+03 -0.90782117329E+02  0.47041656420E+03  0.00000000000E+00 0.  1.
<mgrwt>
<rscale>  0 0.28537425E+04</rscale>
<asrwt>0</asrwt>
<pdfrwt beam="1">  1        2 0.41119358E+00 0.28537425E+04</pdfrwt>
<pdfrwt beam="2">  1       -1 0.11719161E+00 0.28537425E+04</pdfrwt>
<totfact> 0.17796416E+00</totfact>
</mgrwt>
</event>
<event>
12    6  0.1611689E-007  0.2706473E+04  0.7818608E-02  0.8332908E-01
         -1   -1    0    0    0  501 -0.00000000000E+00  0.00000000000E+00  0.19703317753E+04  0.19703317753E+04  0.00000000000E+00 0.  1.
          2   -1    0    0  501    0  0.00000000000E+00 -0.00000000000E+00 -0.92941173550E+03  0.92941173550E+03  0.00000000000E+00 0. -1.
         24    2    1    2    0    0  0.29639663334E+03 -0.56159104415E+03 -0.59898555350E+03  0.87674449063E+03  0.81619503957E+02 0.  0.
        254    2    1    2    0    0 -0.29639663334E+03  0.56159104415E+03  0.16399055933E+04  0.20229990202E+04  0.99999960779E+03 0.  0.
         23    2    4    4    0    0 -0.27949145324E+03  0.47206243515E+03  0.17606204386E+04  0.18465956518E+04  0.95774512410E+02 0.  0.
         23    2    4    4    0    0 -0.16905180097E+02  0.89528608996E+02 -0.12071484526E+03  0.17640336844E+03  0.90801528555E+02 0.  0.
          2    1    3    3  502    0  0.20977339997E+03 -0.46193653485E+03 -0.49317198307E+03  0.70753716966E+03  0.00000000000E+00 0. -1.
         -1    1    3    3    0  502  0.86623233370E+02 -0.99654509298E+02 -0.10581357043E+03  0.16920732097E+03  0.00000000000E+00 0.  1.
         11    1    5    5    0    0 -0.21874545015E+03  0.33062541315E+03  0.13860357430E+04  0.14416163902E+04  0.00000000000E+00 0. -1.
        -11    1    5    5    0    0 -0.60746003090E+02  0.14143702200E+03  0.37458469563E+03  0.40497926155E+03  0.00000000000E+00 0.  1.
          4    1    6    6  503    0 -0.41851265774E+02  0.64807560099E+02 -0.11825868941E+03  0.14119725887E+03  0.00000000000E+00 0.  1.
         -4    1    6    6    0  503  0.24946085677E+02  0.24721048897E+02 -0.24561558503E+01  0.35206109566E+02  0.00000000000E+00 0. -1.
<mgrwt>
<rscale>  0 0.27064733E+04</rscale>
<asrwt>0</asrwt>
<pdfrwt beam="1">  1        2 0.14298642E+00 0.27064733E+04</pdfrwt>
<pdfrwt beam="2">  1       -1 0.30312796E+00 0.27064733E+04</pdfrwt>
<totfact> 0.88264903E-01</totfact>
</mgrwt>
</event>
<event>
12    6  0.1611689E-007  0.2002848E+04  0.7818608E-02  0.8605290E-01
          2   -1    0    0  501    0  0.00000000000E+00  0.00000000000E+00  0.24338717105E+04  0.24338717105E+04  0.00000000000E+00 0. -1.
         -1   -1    0    0    0  501 -0.00000000000E+00 -0.00000000000E+00 -0.41203885863E+03  0.41203885863E+03  0.00000000000E+00 0.  1.
         24    2    1    2    0    0  0.49408653266E+03  0.34447509337E+03  0.61746756895E+02  0.61112071993E+03  0.82893188070E+02 0.  0.
        254    2    1    2    0    0 -0.49408653266E+03 -0.34447509337E+03  0.19600860949E+04  0.22347898492E+04  0.88857390163E+03 0.  0.
         23    2    4    4    0    0 -0.34877342997E+03  0.25111841174E+03  0.63990816825E+03  0.77623746091E+03  0.91426307798E+02 0.  0.
         23    2    4    4    0    0 -0.14531310270E+03 -0.59559350511E+03  0.13201779267E+04  0.14585523882E+04  0.93047246254E+02 0.  0.
          4    1    3    3  502    0  0.46201004078E+02  0.66089177387E+02  0.89755414787E+01  0.81134903034E+02  0.00000000000E+00 0. -1.
         -3    1    3    3    0  502  0.44788552859E+03  0.27838591599E+03  0.52771215416E+02  0.52998581690E+03  0.00000000000E+00 0.  1.
         11    1    5    5    0    0 -0.18339855371E+02  0.30996671666E+02  0.98279839564E+02  0.10467125114E+03  0.00000000000E+00 0.  1.
        -11    1    5    5    0    0 -0.33043357460E+03  0.22012174007E+03  0.54162832869E+03  0.67156620978E+03  0.00000000000E+00 0. -1.
          1    1    6    6  503    0 -0.61403128709E+02 -0.32665349788E+03  0.81421988742E+03  0.87944691538E+03  0.00000000000E+00 0. -1.
         -1    1    6    6    0  503 -0.83909973986E+02 -0.26894000723E+03  0.50595803926E+03  0.57910547287E+03  0.00000000000E+00 0.  1.
<mgrwt>
<rscale>  0 0.20028477E+04</rscale>
<asrwt>0</asrwt>
<pdfrwt beam="1">  1        2 0.37444179E+00 0.20028477E+04</pdfrwt>
<pdfrwt beam="2">  1       -1 0.63390595E-01 0.20028477E+04</pdfrwt>
<totfact> 0.10148496E+01</totfact>
</mgrwt>
</event>
<event>
12    6  0.1611689E-007  0.2231909E+04  0.7818608E-02  0.8505263E-01
         -1   -1    0    0    0  501 -0.00000000000E+00  0.00000000000E+00  0.71515803158E+03  0.71515803158E+03  0.00000000000E+00 0.  1.
          2   -1    0    0  501    0  0.00000000000E+00 -0.00000000000E+00 -0.17413689615E+04  0.17413689615E+04  0.00000000000E+00 0. -1.
         24    2    1    2    0    0  0.22562253007E+03  0.85024744703E+03 -0.10897214845E+03  0.89000303927E+03  0.80026455142E+02 0.  0.
        254    2    1    2    0    0 -0.22562253007E+03 -0.85024744703E+03 -0.91723878145E+03  0.15665239538E+04  0.91588430948E+03 0.  0.
         23    2    4    4    0    0  0.12460929302E+03 -0.86846979947E+03 -0.50232377120E+03  0.10158720204E+04  0.99496342846E+02 0.  0.
         23    2    4    4    0    0 -0.35023182309E+03  0.18222352440E+02 -0.41491501025E+03  0.55065193338E+03  0.89825953773E+02 0.  0.
          4    1    3    3  502    0  0.11897752900E+03  0.51415394192E+03 -0.29583003838E+02  0.52856890044E+03  0.00000000000E+00 0. -1.
         -3    1    3    3    0  502  0.10664500107E+03  0.33609350511E+03 -0.79389144615E+02  0.36143413883E+03  0.00000000000E+00 0.  1.
         11    1    5    5    0    0  0.11839442889E+03 -0.85362570774E+03 -0.47465989100E+03  0.98386792906E+03  0.00000000000E+00 0. -1.
        -11    1    5    5    0    0  0.62148641355E+01 -0.14844091731E+02 -0.27663880200E+02  0.32004091352E+02  0.00000000000E+00 0.  1.
          1    1    6    6  503    0 -0.29718119208E+03 -0.49425750522E+01 -0.38217362031E+03  0.48414643036E+03  0.00000000000E+00 0. -1.
         -1    1    6    6    0  503 -0.53050631010E+02  0.23164927492E+02 -0.32741389945E+02  0.66505503019E+02  0.00000000000E+00 0.  1.
<mgrwt>
<rscale>  0 0.22319086E+04</rscale>
<asrwt>0</asrwt>
<pdfrwt beam="1">  1        2 0.26790291E+00 0.22319086E+04</pdfrwt>
<pdfrwt beam="2">  1       -1 0.11002431E+00 0.22319086E+04</pdfrwt>
<totfact> 0.73642064E+00</totfact>
</mgrwt>
</event>
<event>
12    6  0.1611689E-007  0.1753528E+04  0.7818608E-02  0.8731411E-01
         -1   -1    0    0    0  501 -0.00000000000E+00  0.00000000000E+00  0.71969878592E+03  0.71969878592E+03  0.00000000000E+00 0.  1.
          2   -1    0    0  501    0  0.00000000000E+00 -0.00000000000E+00 -0.10681061493E+04  0.10681061493E+04  0.00000000000E+00 0. -1.
         24    2    1    2    0    0  0.23528070267E+03  0.54217545230E+03  0.12613504889E+03  0.61276386694E+03  0.10128314740E+03 0.  0.
        254    2    1    2    0    0 -0.23528070267E+03 -0.54217545230E+03 -0.47454241226E+03  0.11750410683E+04  0.89789742230E+03 0.  0.
         23    2    4    4    0    0  0.31653580163E+03 -0.16452516631E+03 -0.30392827646E+03  0.47877205786E+03  0.97912420506E+02 0.  0.
         23    2    4    4    0    0 -0.55181650430E+03 -0.37765028599E+03 -0.17061413579E+03  0.69626901041E+03  0.92521125180E+02 0.  0.
          2    1    3    3  502    0  0.17292481370E+03  0.42714858404E+03  0.55726913707E+02  0.46418142245E+03  0.00000000000E+00 0. -1.
         -1    1    3    3    0  502  0.62355888972E+02  0.11502686826E+03  0.70408135179E+02  0.14858244449E+03  0.00000000000E+00 0.  1.
         11    1    5    5    0    0  0.84923726922E+02  0.39123503402E+00 -0.82437925316E+02  0.11835625877E+03  0.00000000000E+00 0.  1.
        -11    1    5    5    0    0  0.23161207471E+03 -0.16491640134E+03 -0.22149035115E+03  0.36041579909E+03  0.00000000000E+00 0. -1.
          1    1    6    6  503    0 -0.92911840715E+02 -0.69511313865E+02  0.54003393002E+01  0.11616194112E+03  0.00000000000E+00 0. -1.
         -1    1    6    6    0  503 -0.45890466359E+03 -0.30813897212E+03 -0.17601447509E+03  0.58010706929E+03  0.00000000000E+00 0.  1.
<mgrwt>
<rscale>  0 0.17535275E+04</rscale>
<asrwt>0</asrwt>
<pdfrwt beam="1">  1        2 0.16432402E+00 0.17535275E+04</pdfrwt>
<pdfrwt beam="2">  1       -1 0.11072289E+00 0.17535275E+04</pdfrwt>
<totfact> 0.18523424E+01</totfact>
</mgrwt>
</event>
<event>
12    6  0.1611689E-007  0.1496508E+04  0.7818608E-02  0.8886778E-01
          2   -1    0    0  501    0  0.00000000000E+00  0.00000000000E+00  0.91170341782E+03  0.91170341782E+03  0.00000000000E+00 0. -1.
         -1   -1    0    0    0  501 -0.00000000000E+00 -0.00000000000E+00 -0.61410754825E+03  0.61410754825E+03  0.00000000000E+00 0.  1.
         24    2    1    2    0    0  0.34834387885E+03  0.11918982194E+03  0.40877469942E+03  0.55626527171E+03  0.82368841448E+02 0.  0.
        254    2    1    2    0    0 -0.34834387885E+03 -0.11918982194E+03 -0.11117882984E+03  0.96954569436E+03  0.89000474699E+03 0.  0.
         23    2    4    4    0    0  0.41853865049E+02 -0.42157779933E+03  0.62270562870E+02  0.43780714874E+03  0.91202464764E+02 0.  0.
         23    2    4    4    0    0 -0.39019774390E+03  0.30238797738E+03 -0.17344939271E+03  0.53173854562E+03  0.94701746881E+02 0.  0.
          4    1    3    3  502    0  0.75145369665E+02  0.11485940842E+02  0.13419754996E+03  0.15423273269E+03  0.00000000000E+00 0. -1.
         -3    1    3    3    0  502  0.27319850918E+03  0.10770388110E+03  0.27457714946E+03  0.40203253902E+03  0.00000000000E+00 0.  1.
         11    1    5    5    0    0  0.47871379669E+01 -0.30334176580E+01  0.13700974233E+02  0.14826834036E+02  0.00000000000E+00 0.  1.
        -11    1    5    5    0    0  0.37066727082E+02 -0.41854438167E+03  0.48569588637E+02  0.42298031470E+03  0.00000000000E+00 0. -1.
          3    1    6    6  503    0 -0.32118115197E+03  0.22184715548E+03 -0.10073065391E+03  0.40313788884E+03  0.00000000000E+00 0. -1.
         -3    1    6    6    0  503 -0.69016591924E+02  0.80540821901E+02 -0.72718738803E+02  0.12860065679E+03  0.00000000000E+00 0.  1.
<mgrwt>
<rscale>  0 0.14965079E+04</rscale>
<asrwt>0</asrwt>
<pdfrwt beam="1">  1        2 0.14026206E+00 0.14965079E+04</pdfrwt>
<pdfrwt beam="2">  1       -1 0.94478084E-01 0.14965079E+04</pdfrwt>
<totfact> 0.34438384E+01</totfact>
</mgrwt>
</event>
<event>
12    6  0.1611689E-007  0.1638653E+04  0.7818608E-02  0.8797147E-01
         -1   -1    0    0    0  501 -0.00000000000E+00  0.00000000000E+00  0.39961519597E+03  0.39961519597E+03  0.00000000000E+00 0.  1.
          2   -1    0    0  501    0  0.00000000000E+00 -0.00000000000E+00 -0.16798567351E+04  0.16798567351E+04  0.00000000000E+00 0. -1.
         24    2    1    2    0    0 -0.28965216126E+03 -0.86325393811E+02 -0.10667750904E+04  0.11111813387E+04  0.73242240991E+02 0.  0.
        254    2    1    2    0    0  0.28965216126E+03  0.86325393811E+02 -0.21346644876E+03  0.96829059238E+03  0.89480070318E+03 0.  0.
         23    2    4    4    0    0 -0.21852440527E+03 -0.89669081204E+02  0.16445178829E+03  0.30471050260E+03  0.10005318536E+03 0.  0.
         23    2    4    4    0    0  0.50817656653E+03  0.17599447502E+03 -0.37791823705E+03  0.66358008978E+03  0.91098099040E+02 0.  0.
          2    1    3    3  502    0 -0.63915538946E+02 -0.31240144364E+02 -0.36716383592E+03  0.37399254691E+03  0.00000000000E+00 0. -1.
         -1    1    3    3    0  502 -0.22573662232E+03 -0.55085249447E+02 -0.69961125450E+03  0.73718879182E+03  0.00000000000E+00 0.  1.
         11    1    5    5    0    0 -0.11948534713E+03 -0.89690717260E+02  0.13506292756E+03  0.20140299735E+03  0.00000000000E+00 0.  1.
        -11    1    5    5    0    0 -0.99039058140E+02  0.21636056044E-01  0.29388860731E+02  0.10330750525E+03  0.00000000000E+00 0. -1.
          3    1    6    6  503    0  0.37773475398E+02  0.90692993415E+01 -0.61024795277E+02  0.72340260387E+02  0.00000000000E+00 0. -1.
         -3    1    6    6    0  503  0.47040309113E+03  0.16692517567E+03 -0.31689344177E+03  0.59123982939E+03  0.00000000000E+00 0.  1.
<mgrwt>
<rscale>  0 0.16386534E+04</rscale>
<asrwt>0</asrwt>
<pdfrwt beam="1">  1        2 0.25843950E+00 0.16386534E+04</pdfrwt>
<pdfrwt beam="2">  1       -1 0.61479261E-01 0.16386534E+04</pdfrwt>
<totfact> 0.29412222E+01</totfact>
</mgrwt>
</event>
<event>
12    6  0.1611689E-007  0.1733857E+04  0.7818608E-02  0.8742286E-01
          2   -1    0    0  501    0  0.00000000000E+00  0.00000000000E+00  0.12696840195E+04  0.12696840195E+04  0.00000000000E+00 0. -1.
         -1   -1    0    0    0  501 -0.00000000000E+00 -0.00000000000E+00 -0.59193106978E+03  0.59193106978E+03  0.00000000000E+00 0.  1.
         24    2    1    2    0    0  0.33085153340E+03 -0.46118151071E+03  0.56031359410E+03  0.80159574024E+03  0.80332335117E+02 0.  0.
        254    2    1    2    0    0 -0.33085153340E+03  0.46118151071E+03  0.11743935566E+03  0.10600193491E+04  0.88752346178E+03 0.  0.
         23    2    4    4    0    0 -0.41366670019E+03  0.36785387468E+03 -0.28386043007E+03  0.62880759658E+03  0.91573128145E+02 0.  0.
         23    2    4    4    0    0  0.82815166792E+02  0.93327636029E+02  0.40129978573E+03  0.43121175250E+03  0.96610858454E+02 0.  0.
          4    1    3    3  502    0  0.24583373340E+03 -0.33031789909E+03  0.35469653932E+03  0.54346460229E+03  0.00000000000E+00 0. -1.
         -3    1    3    3    0  502  0.85017799998E+02 -0.13086361162E+03  0.20561705478E+03  0.25813113795E+03  0.00000000000E+00 0.  1.
         11    1    5    5    0    0 -0.39887766756E+03  0.36142859013E+03 -0.29016074236E+03  0.61149593281E+03  0.00000000000E+00 0. -1.
        -11    1    5    5    0    0 -0.14789032629E+02  0.64252845496E+01  0.63003122840E+01  0.17311663771E+02  0.00000000000E+00 0.  1.
          1    1    6    6  503    0  0.39818023916E+02  0.94652756108E+02  0.34735188183E+03  0.36221257444E+03  0.00000000000E+00 0. -1.
         -1    1    6    6    0  503  0.42997142876E+02 -0.13251200788E+01  0.53947903895E+02  0.68999178063E+02  0.00000000000E+00 0.  1.
<mgrwt>
<rscale>  0 0.17338575E+04</rscale>
<asrwt>0</asrwt>
<pdfrwt beam="1">  1        2 0.19533600E+00 0.17338575E+04</pdfrwt>
<pdfrwt beam="2">  1       -1 0.91066319E-01 0.17338575E+04</pdfrwt>
<totfact> 0.21929966E+01</totfact>
</mgrwt>
</event>
<event>
12    6  0.1611689E-007  0.1472524E+04  0.7818608E-02  0.8902932E-01
         -1   -1    0    0    0  501 -0.00000000000E+00  0.00000000000E+00  0.27789492257E+03  0.27789492257E+03  0.00000000000E+00 0.  1.
          2   -1    0    0  501    0  0.00000000000E+00 -0.00000000000E+00 -0.19506723536E+04  0.19506723536E+04  0.00000000000E+00 0. -1.
         24    2    1    2    0    0  0.28831670299E+03 -0.26198652722E+03 -0.84028461568E+03  0.92965276851E+03  0.80078542594E+02 0.  0.
        254    2    1    2    0    0 -0.28831670299E+03  0.26198652722E+03 -0.83249281536E+03  0.12989145077E+04  0.91780779522E+03 0.  0.
         23    2    4    4    0    0  0.10709998680E+03 -0.28341161536E+03 -0.28637819739E+03  0.42712404442E+03  0.92897397641E+02 0.  0.
         23    2    4    4    0    0 -0.39541668978E+03  0.54539814258E+03 -0.54611461797E+03  0.87179046326E+03  0.89240928790E+02 0.  0.
          2    1    3    3  502    0  0.22750311644E+03 -0.21973889856E+03 -0.74194839668E+03  0.80655457029E+03  0.00000000000E+00 0. -1.
         -1    1    3    3    0  502  0.60813586549E+02 -0.42247628662E+02 -0.98336219001E+02  0.12309819822E+03  0.00000000000E+00 0.  1.
         11    1    5    5    0    0  0.29658720703E+02 -0.19821695923E+03 -0.20045973538E+03  0.28346729644E+03  0.00000000000E+00 0.  1.
        -11    1    5    5    0    0  0.77441266093E+02 -0.85194656133E+02 -0.85918462013E+02  0.14365674799E+03  0.00000000000E+00 0. -1.
          3    1    6    6  503    0 -0.16801376441E+03  0.18661379084E+03 -0.15998074921E+03  0.29773674964E+03  0.00000000000E+00 0. -1.
         -3    1    6    6    0  503 -0.22740292537E+03  0.35878435174E+03 -0.38613386876E+03  0.57405371362E+03  0.00000000000E+00 0.  1.
<mgrwt>
<rscale>  0 0.14725243E+04</rscale>
<asrwt>0</asrwt>
<pdfrwt beam="1">  1        2 0.30010345E+00 0.14725243E+04</pdfrwt>
<pdfrwt beam="2">  1       -1 0.42753063E-01 0.14725243E+04</pdfrwt>
<totfact> 0.42299536E+01</totfact>
</mgrwt>
</event>
<event>
12    6  0.1611689E-007  0.1858560E+04  0.7818608E-02  0.8675763E-01
         -1   -1    0    0    0  501 -0.00000000000E+00  0.00000000000E+00  0.26900356298E+03  0.26900356298E+03  0.00000000000E+00 0.  1.
          2   -1    0    0  501    0  0.00000000000E+00 -0.00000000000E+00 -0.32102234667E+04  0.32102234667E+04  0.00000000000E+00 0. -1.
         24    2    1    2    0    0 -0.44848505319E+03  0.22937329407E+03 -0.19092940609E+03  0.54485390592E+03  0.81613661382E+02 0.  0.
        254    2    1    2    0    0  0.44848505319E+03 -0.22937329407E+03 -0.27502904977E+04  0.29343731238E+04  0.89033524983E+03 0.  0.
         23    2    4    4    0    0 -0.36742434311E+02 -0.29656143736E+03 -0.20539482595E+04  0.20775813779E+04  0.91335842425E+02 0.  0.
         23    2    4    4    0    0  0.48522748750E+03  0.67188143293E+02 -0.69634223814E+03  0.85679174595E+03  0.96122952962E+02 0.  0.
          2    1    3    3  502    0 -0.20877604018E+03  0.80152349490E+02 -0.11967692793E+03  0.25364227006E+03  0.00000000000E+00 0. -1.
         -1    1    3    3    0  502 -0.23970901301E+03  0.14922094458E+03 -0.71252478158E+02  0.29121163587E+03  0.00000000000E+00 0.  1.
         11    1    5    5    0    0 -0.37669193985E+02 -0.45733589090E+02 -0.50359679436E+03  0.50707027189E+03  0.00000000000E+00 0.  1.
        -11    1    5    5    0    0  0.92675967405E+00 -0.25082784827E+03 -0.15503514652E+04  0.15705111060E+04  0.00000000000E+00 0. -1.
          2    1    6    6  503    0  0.84701128083E+02  0.42890490696E+02 -0.17280279801E+03  0.19716663584E+03  0.00000000000E+00 0. -1.
         -2    1    6    6    0  503  0.40052635942E+03  0.24297652598E+02 -0.52353944013E+03  0.65962511011E+03  0.00000000000E+00 0.  1.
<mgrwt>
<rscale>  0 0.18585602E+04</rscale>
<asrwt>0</asrwt>
<pdfrwt beam="1">  1        2 0.49388054E+00 0.18585602E+04</pdfrwt>
<pdfrwt beam="2">  1       -1 0.41385163E-01 0.18585602E+04</pdfrwt>
<totfact> 0.78531144E+00</totfact>
</mgrwt>
</event>
<event>
12    6  0.1611689E-007  0.1447928E+04  0.7818608E-02  0.8919838E-01
          2   -1    0    0  501    0  0.00000000000E+00  0.00000000000E+00  0.59610456241E+03  0.59610456241E+03  0.00000000000E+00 0. -1.
         -1   -1    0    0    0  501 -0.00000000000E+00 -0.00000000000E+00 -0.87924877258E+03  0.87924877258E+03  0.00000000000E+00 0.  1.
         24    2    1    2    0    0 -0.32414266971E+03  0.23962903701E+03 -0.30693010381E+03  0.51307382864E+03  0.80920450520E+02 0.  0.
        254    2    1    2    0    0  0.32414266971E+03 -0.23962903701E+03  0.23785893642E+02  0.96227950635E+03  0.87345608585E+03 0.  0.
         23    2    4    4    0    0  0.52044053990E+03  0.88317925697E+02  0.13591346886E+03  0.55399859785E+03  0.98911899297E+02 0.  0.
         23    2    4    4    0    0 -0.19629787020E+03 -0.32794696271E+03 -0.11212757522E+03  0.40828090851E+03  0.89658479430E+02 0.  0.
          2    1    3    3  502    0 -0.10553935557E+03  0.55319905335E+02 -0.52046511472E+02  0.13002956147E+03  0.00000000000E+00 0. -1.
         -1    1    3    3    0  502 -0.21860331414E+03  0.18430913167E+03 -0.25488359233E+03  0.38304426717E+03  0.00000000000E+00 0.  1.
         11    1    5    5    0    0  0.51798154023E+03  0.95717404772E+02  0.12641188224E+03  0.54170717326E+03  0.00000000000E+00 0.  1.
        -11    1    5    5    0    0  0.24589996784E+01 -0.73994790752E+01  0.95015866219E+01  0.12291424585E+02  0.00000000000E+00 0. -1.
          3    1    6    6  503    0 -0.10576692154E+02 -0.73897502313E+02 -0.13695600121E+01  0.74663129854E+02  0.00000000000E+00 0. -1.
         -3    1    6    6    0  503 -0.18572117804E+03 -0.25404946039E+03 -0.11075801521E+03  0.33361777865E+03  0.00000000000E+00 0.  1.
<mgrwt>
<rscale>  0 0.14479285E+04</rscale>
<asrwt>0</asrwt>
<pdfrwt beam="1">  1        2 0.91708394E-01 0.14479285E+04</pdfrwt>
<pdfrwt beam="2">  1       -1 0.13526904E+00 0.14479285E+04</pdfrwt>
<totfact> 0.25397956E+01</totfact>
</mgrwt>
</event>
<event>
12    6  0.1611689E-007  0.2680286E+04  0.7818608E-02  0.8341430E-01
         -1   -1    0    0    0  501 -0.00000000000E+00  0.00000000000E+00  0.10198169374E+04  0.10198169374E+04  0.00000000000E+00 0.  1.
          2   -1    0    0  501    0  0.00000000000E+00 -0.00000000000E+00 -0.17610842184E+04  0.17610842184E+04  0.00000000000E+00 0. -1.
         24    2    1    2    0    0 -0.55991127161E+02 -0.11711474983E+04 -0.54654389209E+03  0.12958952694E+04  0.76895085692E+02 0.  0.
        254    2    1    2    0    0  0.55991127161E+02  0.11711474983E+04 -0.19472338886E+03  0.14850058864E+04  0.89028299736E+03 0.  0.
         23    2    4    4    0    0  0.27052022436E+03  0.64641170268E+03  0.25939398393E+03  0.75315966456E+03  0.94524918829E+02 0.  0.
         23    2    4    4    0    0 -0.21452909720E+03  0.52473579559E+03 -0.45411737280E+03  0.73184622182E+03  0.89475781045E+02 0.  0.
          2    1    3    3  502    0  0.53829169603E+01 -0.81191125936E+02 -0.57751807855E+02  0.99780990355E+02  0.00000000000E+00 0. -1.
         -1    1    3    3    0  502 -0.61374044122E+02 -0.10899563723E+04 -0.48879208424E+03  0.11961142790E+04  0.00000000000E+00 0.  1.
         11    1    5    5    0    0  0.26572523444E+03  0.59808848621E+03  0.21942560794E+03  0.69026613344E+03  0.00000000000E+00 0.  1.
        -11    1    5    5    0    0  0.47949899238E+01  0.48323216470E+02  0.39968375987E+02  0.62893531126E+02  0.00000000000E+00 0. -1.
          4    1    6    6  503    0 -0.36467845155E+02  0.14211419511E+03 -0.76122296784E+02  0.16529050865E+03  0.00000000000E+00 0. -1.
         -4    1    6    6    0  503 -0.17806125205E+03  0.38262160048E+03 -0.37799507601E+03  0.56655571317E+03  0.00000000000E+00 0.  1.
<mgrwt>
<rscale>  0 0.26802862E+04</rscale>
<asrwt>0</asrwt>
<pdfrwt beam="1">  1        2 0.27093603E+00 0.26802862E+04</pdfrwt>
<pdfrwt beam="2">  1       -1 0.15689491E+00 0.26802862E+04</pdfrwt>
<totfact> 0.27993832E+00</totfact>
</mgrwt>
</event>
<event>
12    6  0.1611689E-007  0.1637207E+04  0.7818608E-02  0.8798011E-01
          2   -1    0    0  501    0  0.00000000000E+00  0.00000000000E+00  0.74570207949E+03  0.74570207949E+03  0.00000000000E+00 0. -1.
         -1   -1    0    0    0  501 -0.00000000000E+00 -0.00000000000E+00 -0.89863239372E+03  0.89863239372E+03  0.00000000000E+00 0.  1.
         24    2    1    2    0    0  0.27397342447E+03  0.48756677657E+03  0.32386816037E+01  0.56661645409E+03  0.90889592624E+02 0.  0.
        254    2    1    2    0    0 -0.27397342447E+03 -0.48756677657E+03 -0.15616899583E+03  0.10777180191E+04  0.90791220640E+03 0.  0.
         23    2    4    4    0    0 -0.32698491568E+03 -0.18485467656E+02  0.27230685949E+03  0.43378874537E+03  0.82224098002E+02 0.  0.
         23    2    4    4    0    0  0.53011491203E+02 -0.46908130892E+03 -0.42847585532E+03  0.64392927375E+03  0.90586193346E+02 0.  0.
          4    1    3    3  502    0  0.10278167821E+03  0.20895957538E+03  0.44310999262E+02  0.23704776348E+03  0.00000000000E+00 0. -1.
         -3    1    3    3    0  502  0.17119174627E+03  0.27860720120E+03 -0.41072317659E+02  0.32956869060E+03  0.00000000000E+00 0.  1.
         11    1    5    5    0    0 -0.23223382713E+03  0.96678618493E+01  0.15042779066E+03  0.27686555983E+03  0.00000000000E+00 0.  1.
        -11    1    5    5    0    0 -0.94751088546E+02 -0.28153329505E+02  0.12187906882E+03  0.15692318554E+03  0.00000000000E+00 0. -1.
          1    1    6    6  503    0 -0.40798655876E+01 -0.10682830339E+01 -0.18981853115E+02  0.19444723694E+02  0.00000000000E+00 0. -1.
         -1    1    6    6    0  503  0.57091356791E+02 -0.46801302588E+03 -0.40949400220E+03  0.62448455005E+03  0.00000000000E+00 0.  1.
<mgrwt>
<rscale>  0 0.16372074E+04</rscale>
<asrwt>0</asrwt>
<pdfrwt beam="1">  1        2 0.11472340E+00 0.16372074E+04</pdfrwt>
<pdfrwt beam="2">  1       -1 0.13825114E+00 0.16372074E+04</pdfrwt>
<totfact> 0.17870430E+01</totfact>
</mgrwt>
</event>
<event>
12    6  0.1611689E-007  0.2515274E+04  0.7818608E-02  0.8397564E-01
         -1   -1    0    0    0  501 -0.00000000000E+00  0.00000000000E+00  0.11325383091E+04  0.11325383091E+04  0.00000000000E+00 0.  1.
          2   -1    0    0  501    0  0.00000000000E+00 -0.00000000000E+00 -0.13965538817E+04  0.13965538817E+04  0.00000000000E+00 0. -1.
         24    2    1    2    0    0 -0.23715338465E+03  0.71155494601E+03  0.68223253628E+03  0.10191796570E+04  0.10360391249E+03 0.  0.
        254    2    1    2    0    0  0.23715338465E+03 -0.71155494601E+03 -0.94624810893E+03  0.15099125338E+04  0.90658601749E+03 0.  0.
         23    2    4    4    0    0 -0.10398128419E+03 -0.74423744721E+03 -0.85864734034E+03  0.11446603891E+04  0.90943201971E+02 0.  0.
         23    2    4    4    0    0  0.34113466884E+03  0.32682501200E+02 -0.87600768588E+02  0.36525214473E+03  0.91072643576E+02 0.  0.
          4    1    3    3  502    0 -0.10868132211E+03  0.28833962860E+03  0.21450138035E+03  0.37544934860E+03  0.00000000000E+00 0. -1.
         -3    1    3    3    0  502 -0.12847206254E+03  0.42321531741E+03  0.46773115593E+03  0.64373030842E+03  0.00000000000E+00 0.  1.
         11    1    5    5    0    0 -0.81012578310E+02 -0.61502283137E+03 -0.75671388623E+03  0.97848455612E+03  0.00000000000E+00 0.  1.
        -11    1    5    5    0    0 -0.22968705876E+02 -0.12921461584E+03 -0.10193345411E+03  0.16617583297E+03  0.00000000000E+00 0. -1.
          3    1    6    6  503    0 -0.16176096090E+01  0.82319479566E+01  0.44726900408E+01  0.95071859248E+01  0.00000000000E+00 0. -1.
         -3    1    6    6    0  503  0.34275227845E+03  0.24450553243E+02 -0.92073458628E+02  0.35574495881E+03  0.00000000000E+00 0.  1.
<mgrwt>
<rscale>  0 0.25152740E+04</rscale>
<asrwt>0</asrwt>
<pdfrwt beam="1">  1        2 0.21485444E+00 0.25152740E+04</pdfrwt>
<pdfrwt beam="2">  1       -1 0.17423666E+00 0.25152740E+04</pdfrwt>
<totfact> 0.33797611E+00</totfact>
</mgrwt>
</event>
<event>
12    6  0.1611689E-007  0.1285729E+04  0.7818608E-02  0.9040959E-01
         -1   -1    0    0    0  501 -0.00000000000E+00  0.00000000000E+00  0.61378578109E+03  0.61378578109E+03  0.00000000000E+00 0.  1.
          2   -1    0    0  501    0  0.00000000000E+00 -0.00000000000E+00 -0.67332071396E+03  0.67332071396E+03  0.00000000000E+00 0. -1.
         24    2    1    2    0    0 -0.88554406978E+02  0.17993321265E+03  0.23315099903E+03  0.31769213520E+03  0.79693540583E+02 0.  0.
        254    2    1    2    0    0  0.88554406978E+02 -0.17993321265E+03 -0.29268593189E+03  0.96941435985E+03  0.90215370218E+03 0.  0.
         23    2    4    4    0    0  0.46332279349E+02 -0.45261414704E+03 -0.44286576514E+03  0.64123195165E+03  0.89677665486E+02 0.  0.
         23    2    4    4    0    0  0.42222127628E+02  0.27268093439E+03  0.15017983325E+03  0.32818240820E+03  0.94932137320E+02 0.  0.
          4    1    3    3  502    0  0.12913672745E+02  0.44444516172E+02  0.44007707636E+02  0.63865141454E+02  0.00000000000E+00 0. -1.
         -3    1    3    3    0  502 -0.10146807972E+03  0.13548869648E+03  0.18914329139E+03  0.25382699374E+03  0.00000000000E+00 0.  1.
         11    1    5    5    0    0 -0.14483650376E+02 -0.28411513837E+03 -0.27854765087E+03  0.39814567910E+03  0.00000000000E+00 0. -1.
        -11    1    5    5    0    0  0.60815929725E+02 -0.16849900866E+03 -0.16431811427E+03  0.24308627256E+03  0.00000000000E+00 0.  1.
          4    1    6    6  503    0  0.63956403338E+02  0.11194799146E+03  0.77665336876E+02  0.15051471314E+03  0.00000000000E+00 0. -1.
         -4    1    6    6    0  503 -0.21734275709E+02  0.16073294293E+03  0.72514496370E+02  0.17766769505E+03  0.00000000000E+00 0.  1.
<mgrwt>
<rscale>  0 0.12857289E+04</rscale>
<asrwt>0</asrwt>
<pdfrwt beam="1">  1        2 0.10358780E+00 0.12857289E+04</pdfrwt>
<pdfrwt beam="2">  1       -1 0.94428581E-01 0.12857289E+04</pdfrwt>
<totfact> 0.52373609E+01</totfact>
</mgrwt>
</event>
<event>
12    6  0.1611689E-007  0.2018130E+04  0.7818608E-02  0.8598191E-01
         -1   -1    0    0    0  501 -0.00000000000E+00  0.00000000000E+00  0.13143518949E+04  0.13143518949E+04  0.00000000000E+00 0.  1.
          2   -1    0    0  501    0  0.00000000000E+00 -0.00000000000E+00 -0.77468783392E+03  0.77468783392E+03  0.00000000000E+00 0. -1.
         24    2    1    2    0    0 -0.38868422082E+03 -0.20495304526E+03  0.91840195276E+03  0.10212384158E+04  0.79903571343E+02 0.  0.
        254    2    1    2    0    0  0.38868422082E+03  0.20495304526E+03 -0.37873789182E+03  0.10678013130E+04  0.89647982638E+03 0.  0.
         23    2    4    4    0    0  0.28143977182E+03 -0.31178076923E+03 -0.35807967710E+02  0.43143954011E+03  0.91881842596E+02 0.  0.
         23    2    4    4    0    0  0.10724444900E+03  0.51673381450E+03 -0.34292992411E+03  0.63636177291E+03  0.94022158457E+02 0.  0.
          2    1    3    3  502    0 -0.20080796989E+03 -0.14281759051E+03  0.56046299145E+03  0.61224134924E+03  0.00000000000E+00 0. -1.
         -1    1    3    3    0  502 -0.18787625093E+03 -0.62135454756E+02  0.35793896130E+03  0.40899706652E+03  0.00000000000E+00 0.  1.
         11    1    5    5    0    0  0.80727981074E+02 -0.15448054338E+03 -0.26121344919E+02  0.17624860247E+03  0.00000000000E+00 0. -1.
        -11    1    5    5    0    0  0.20071179074E+03 -0.15730022586E+03 -0.96866227916E+01  0.25519093765E+03  0.00000000000E+00 0.  1.
          4    1    6    6  503    0 -0.82528010064E+01  0.11849237757E+03 -0.10351208493E+03  0.15755413036E+03  0.00000000000E+00 0.  1.
         -4    1    6    6    0  503  0.11549725001E+03  0.39824143693E+03 -0.23941783919E+03  0.47880764255E+03  0.00000000000E+00 0. -1.
<mgrwt>
<rscale>  0 0.20181302E+04</rscale>
<asrwt>0</asrwt>
<pdfrwt beam="1">  1        2 0.11918274E+00 0.20181302E+04</pdfrwt>
<pdfrwt beam="2">  1       -1 0.20220798E+00 0.20181302E+04</pdfrwt>
<totfact> 0.55301055E+00</totfact>
</mgrwt>
</event>
<event>
12    6  0.1611689E-007  0.2128125E+04  0.7818608E-02  0.8548954E-01
         -1   -1    0    0    0  501 -0.00000000000E+00  0.00000000000E+00  0.15521303054E+04  0.15521303054E+04  0.00000000000E+00 0.  1.
          2   -1    0    0  501    0  0.00000000000E+00 -0.00000000000E+00 -0.72946745382E+03  0.72946745382E+03  0.00000000000E+00 0. -1.
         24    2    1    2    0    0 -0.14686081782E+01  0.10262103819E+03 -0.59416007237E+03  0.60551219730E+03  0.55548134051E+02 0.  0.
        254    2    1    2    0    0  0.14686081782E+01 -0.10262103819E+03  0.14168229239E+04  0.16760855619E+04  0.88957426825E+03 0.  0.
         23    2    4    4    0    0 -0.17680747038E+03  0.23088877559E+03  0.11855268367E+04  0.12240833404E+04  0.91299700529E+02 0.  0.
         23    2    4    4    0    0  0.17827607856E+03 -0.33350981379E+03  0.23129608721E+03  0.45200222153E+03  0.88300465590E+02 0.  0.
          4    1    3    3  502    0  0.99652637820E+01  0.93373021404E+02 -0.56606773055E+03  0.57380354058E+03  0.00000000000E+00 0. -1.
         -3    1    3    3    0  502 -0.11433871960E+02  0.92480167894E+01 -0.28092341813E+02  0.31708656721E+02  0.00000000000E+00 0.  1.
         11    1    5    5    0    0 -0.13001155022E+03  0.10791268833E+03  0.56319663092E+03  0.58799540523E+03  0.00000000000E+00 0.  1.
        -11    1    5    5    0    0 -0.46795920167E+02  0.12297608727E+03  0.62233020580E+03  0.63608793514E+03  0.00000000000E+00 0. -1.
          4    1    6    6  503    0  0.15247667620E+03 -0.28943600581E+03  0.15965568928E+03  0.36402235833E+03  0.00000000000E+00 0.  1.
         -4    1    6    6    0  503  0.25799402365E+02 -0.44073807975E+02  0.71640397933E+02  0.87979863195E+02  0.00000000000E+00 0. -1.
<mgrwt>
<rscale>  0 0.21281246E+04</rscale>
<asrwt>0</asrwt>
<pdfrwt beam="1">  1        2 0.11222576E+00 0.21281246E+04</pdfrwt>
<pdfrwt beam="2">  1       -1 0.23878928E+00 0.21281246E+04</pdfrwt>
<totfact> 0.33678175E+00</totfact>
</mgrwt>
</event>
<event>
12    6  0.1611689E-007  0.1479699E+04  0.7818608E-02  0.8898066E-01
          2   -1    0    0  501    0  0.00000000000E+00  0.00000000000E+00  0.11911118586E+04  0.11911118586E+04  0.00000000000E+00 0. -1.
         -1   -1    0    0    0  501 -0.00000000000E+00 -0.00000000000E+00 -0.45955154784E+03  0.45955154784E+03  0.00000000000E+00 0.  1.
         24    2    1    2    0    0 -0.12536256103E+03 -0.14306403275E+03 -0.21743485488E+03  0.29982266125E+03  0.80203634008E+02 0.  0.
        254    2    1    2    0    0  0.12536256103E+03  0.14306403275E+03  0.94899516561E+03  0.13508407452E+04  0.94233529343E+03 0.  0.
         23    2    4    4    0    0  0.46722183763E+02  0.21866110033E+03  0.11099731237E+04  0.11359678259E+04  0.91580166257E+02 0.  0.
         23    2    4    4    0    0  0.78640377268E+02 -0.75597067581E+02 -0.16097795811E+03  0.21487291925E+03  0.91417957038E+02 0.  0.
          2    1    3    3  502    0 -0.20268065362E+02  0.48330547532E+01 -0.70209150845E+01  0.21987408679E+02  0.00000000000E+00 0. -1.
         -1    1    3    3    0  502 -0.10509449567E+03 -0.14789708750E+03 -0.21041393980E+03  0.27783525257E+03  0.00000000000E+00 0.  1.
         11    1    5    5    0    0  0.69330611275E+02  0.18170555162E+03  0.97517024765E+03  0.99437450343E+03  0.00000000000E+00 0.  1.
        -11    1    5    5    0    0 -0.22608427512E+02  0.36955548706E+02  0.13480287606E+03  0.14159332248E+03  0.00000000000E+00 0. -1.
          2    1    6    6  503    0  0.42461268844E+02 -0.91281775497E+02 -0.97527617487E+02  0.14016760704E+03  0.00000000000E+00 0. -1.
         -2    1    6    6    0  503  0.36179108424E+02  0.15684707916E+02 -0.63450340619E+02  0.74705312217E+02  0.00000000000E+00 0.  1.
<mgrwt>
<rscale>  0 0.14796990E+04</rscale>
<asrwt>0</asrwt>
<pdfrwt beam="1">  1        2 0.18324798E+00 0.14796990E+04</pdfrwt>
<pdfrwt beam="2">  1       -1 0.70700238E-01 0.14796990E+04</pdfrwt>
<totfact> 0.42769398E+01</totfact>
</mgrwt>
</event>
<event>
12    6  0.1611689E-007  0.1496779E+04  0.7818608E-02  0.8886598E-01
          2   -1    0    0  501    0  0.00000000000E+00  0.00000000000E+00  0.32565438328E+04  0.32565438328E+04  0.00000000000E+00 0. -1.
         -1   -1    0    0    0  501 -0.00000000000E+00 -0.00000000000E+00 -0.17198810947E+03  0.17198810947E+03  0.00000000000E+00 0.  1.
         24    2    1    2    0    0 -0.40094428189E+03  0.24077985734E+03  0.11208382698E+04  0.12173541166E+04  0.83314831589E+02 0.  0.
        254    2    1    2    0    0  0.40094428189E+03 -0.24077985734E+03  0.19637174535E+04  0.22111778257E+04  0.90243552831E+03 0.  0.
         23    2    4    4    0    0 -0.19373893990E+03 -0.61332544068E+02  0.98488813875E+02  0.24315181711E+03  0.90146003286E+02 0.  0.
         23    2    4    4    0    0  0.59468322179E+03 -0.17944731327E+03  0.18652286397E+04  0.19680260086E+04  0.90548439230E+02 0.  0.
          2    1    3    3  502    0 -0.29960208628E+03  0.16336123660E+03  0.72114684127E+03  0.79781017191E+03  0.00000000000E+00 0. -1.
         -1    1    3    3    0  502 -0.10134219561E+03  0.77418620741E+02  0.39969142853E+03  0.41954394465E+03  0.00000000000E+00 0.  1.
         11    1    5    5    0    0 -0.18266544852E+03 -0.32165052317E+02  0.62963200529E+02  0.19587144074E+03  0.00000000000E+00 0.  1.
        -11    1    5    5    0    0 -0.11073491378E+02 -0.29167491751E+02  0.35525613346E+02  0.47280376372E+02  0.00000000000E+00 0. -1.
          1    1    6    6  503    0 -0.98953245186E+00 -0.29295581166E+01  0.14306445934E+01  0.34070851449E+01  0.00000000000E+00 0. -1.
         -1    1    6    6    0  503  0.59567275424E+03 -0.17651775515E+03  0.18637979951E+04  0.19646189235E+04  0.00000000000E+00 0.  1.
<mgrwt>
<rscale>  0 0.14967790E+04</rscale>
<asrwt>0</asrwt>
<pdfrwt beam="1">  1        2 0.50100670E+00 0.14967790E+04</pdfrwt>
<pdfrwt beam="2">  1       -1 0.26459712E-01 0.14967790E+04</pdfrwt>
<totfact> 0.16818195E+01</totfact>
</mgrwt>
</event>
<event>
12    6  0.1611689E-007  0.1335584E+04  0.7818608E-02  0.9001813E-01
         -1   -1    0    0    0  501 -0.00000000000E+00  0.00000000000E+00  0.32622316092E+03  0.32622316092E+03  0.00000000000E+00 0.  1.
          2   -1    0    0  501    0  0.00000000000E+00 -0.00000000000E+00 -0.13669971410E+04  0.13669971410E+04  0.00000000000E+00 0. -1.
         24    2    1    2    0    0  0.12134221456E+02  0.28076186847E+03 -0.53497551264E+03  0.60949027282E+03  0.79404832425E+02 0.  0.
        254    2    1    2    0    0 -0.12134221456E+02 -0.28076186847E+03 -0.50579846742E+03  0.10837300291E+04  0.91633193778E+03 0.  0.
         23    2    4    4    0    0 -0.18464873616E+03 -0.55429158766E+03 -0.18589921285E+03  0.61983492535E+03  0.91118041189E+02 0.  0.
         23    2    4    4    0    0  0.17251451470E+03  0.27352971919E+03 -0.31989925457E+03  0.46389510374E+03  0.91013016313E+02 0.  0.
          2    1    3    3  502    0 -0.26573471107E+02  0.20372762647E+03 -0.39040212340E+03  0.44116313661E+03  0.00000000000E+00 0. -1.
         -1    1    3    3    0  502  0.38707692562E+02  0.77034241997E+02 -0.14457338925E+03  0.16832713620E+03  0.00000000000E+00 0.  1.
         11    1    5    5    0    0 -0.15663377540E+03 -0.45475140377E+03 -0.11521579902E+03  0.49457826394E+03  0.00000000000E+00 0.  1.
        -11    1    5    5    0    0 -0.28014960763E+02 -0.99540183890E+02 -0.70683413826E+02  0.12525666140E+03  0.00000000000E+00 0. -1.
          3    1    6    6  503    0  0.31549556086E+02  0.51759807057E+02 -0.17125563019E+02  0.62989975587E+02  0.00000000000E+00 0. -1.
         -3    1    6    6    0  503  0.14096495862E+03  0.22176991213E+03 -0.30277369155E+03  0.40090512816E+03  0.00000000000E+00 0.  1.
<mgrwt>
<rscale>  0 0.13355840E+04</rscale>
<asrwt>0</asrwt>
<pdfrwt beam="1">  1        2 0.21030725E+00 0.13355840E+04</pdfrwt>
<pdfrwt beam="2">  1       -1 0.50188178E-01 0.13355840E+04</pdfrwt>
<totfact> 0.67119525E+01</totfact>
</mgrwt>
</event>
<event>
12    6  0.1693877E-007  0.2275268E+04  0.7818608E-02  0.8487737E-01
          2   -1    0    0  501    0  0.00000000000E+00  0.00000000000E+00  0.12645173817E+04  0.12645173817E+04  0.00000000000E+00 0. -1.
         -1   -1    0    0    0  501 -0.00000000000E+00 -0.00000000000E+00 -0.10234821651E+04  0.10234821651E+04  0.00000000000E+00 0.  1.
         24    2    1    2    0    0  0.63621974802E+03  0.25929703454E+03  0.77730142877E+03  0.10404866990E+04  0.80028368112E+02 0.  0.
        254    2    1    2    0    0 -0.63621974802E+03 -0.25929703454E+03 -0.53626621217E+03  0.12475128478E+04  0.89257847570E+03 0.  0.
         23    2    4    4    0    0  0.44168548037E+01 -0.22128483245E+03 -0.54914949348E+03  0.59920440324E+03  0.92164336884E+02 0.  0.
         23    2    4    4    0    0 -0.64063660283E+03 -0.38012202094E+02  0.12883281313E+02  0.64830844459E+03  0.90981734429E+02 0.  0.
          4    1    3    3  502    0  0.56666367626E+03  0.20492380382E+03  0.66046027651E+03  0.89404097457E+03  0.00000000000E+00 0. -1.
         -3    1    3    3    0  502  0.69556071766E+02  0.54373230720E+02  0.11684115226E+03  0.14644572442E+03  0.00000000000E+00 0.  1.
         11    1    5    5    0    0  0.20671392140E+02 -0.18249330844E+03 -0.50874735418E+03  0.54088352209E+03  0.00000000000E+00 0.  1.
        -11    1    5    5    0    0 -0.16254537336E+02 -0.38791524002E+02 -0.40402139306E+02  0.58320881157E+02  0.00000000000E+00 0. -1.
          3    1    6    6  503    0 -0.32768883362E+01  0.48899588479E+01  0.74351553912E+01  0.94832078114E+01  0.00000000000E+00 0. -1.
         -3    1    6    6    0  503 -0.63735971449E+03 -0.42902160942E+02  0.54481259218E+01  0.63882523678E+03  0.00000000000E+00 0.  1.
<mgrwt>
<rscale>  0 0.22752679E+04</rscale>
<asrwt>0</asrwt>
<pdfrwt beam="1">  1        2 0.19454114E+00 0.22752679E+04</pdfrwt>
<pdfrwt beam="2">  1       -1 0.15745879E+00 0.22752679E+04</pdfrwt>
<totfact> 0.54870044E+00</totfact>
</mgrwt>
</event>
<event>
12    6  0.1611689E-007  0.2205015E+04  0.7818608E-02  0.8516344E-01
         -3   -1    0    0    0  501 -0.00000000000E+00  0.00000000000E+00  0.12215074891E+04  0.12215074891E+04  0.00000000000E+00 0.  1.
          2   -1    0    0  501    0  0.00000000000E+00 -0.00000000000E+00 -0.99510038241E+03  0.99510038241E+03  0.00000000000E+00 0. -1.
         24    2    1    2    0    0  0.67821060821E+03 -0.32880672836E+03 -0.41603203020E+03  0.86480279106E+03  0.81961720112E+02 0.  0.
        254    2    1    2    0    0 -0.67821060821E+03  0.32880672836E+03  0.64243913691E+03  0.13518050805E+04  0.92008990716E+03 0.  0.
         23    2    4    4    0    0 -0.66554030501E+03  0.60124654374E+03  0.49995295549E+03  0.10309066916E+04  0.91511448376E+02 0.  0.
         23    2    4    4    0    0 -0.12670303201E+02 -0.27243981538E+03  0.14248618141E+03  0.32089838885E+03  0.91046551191E+02 0.  0.
          2    1    3    3  502    0  0.30342412829E+03 -0.11216681797E+03 -0.14885699424E+03  0.35609830302E+03  0.00000000000E+00 0. -1.
         -1    1    3    3    0  502  0.37478647992E+03 -0.21663991040E+03 -0.26717503596E+03  0.50870448803E+03  0.00000000000E+00 0.  1.
         11    1    5    5    0    0 -0.56754952753E+02  0.48000574836E+02  0.14512849368E+02  0.75735081986E+02  0.00000000000E+00 0. -1.
        -11    1    5    5    0    0 -0.60878535225E+03  0.55324596891E+03  0.48544010612E+03  0.95517160964E+03  0.00000000000E+00 0.  1.
          1    1    6    6  503    0  0.25330057652E+02 -0.27208679921E+02  0.59137854130E+01  0.37641691535E+02  0.00000000000E+00 0. -1.
         -1    1    6    6    0  503 -0.38000360852E+02 -0.24523113546E+03  0.13657239600E+03  0.28325669731E+03  0.00000000000E+00 0.  1.
<mgrwt>
<rscale>  0 0.22050148E+04</rscale>
<asrwt>0</asrwt>
<pdfrwt beam="1">  1        2 0.15309237E+00 0.22050148E+04</pdfrwt>
<pdfrwt beam="2">  1       -3 0.18792423E+00 0.22050148E+04</pdfrwt>
<totfact> 0.25573676E+00</totfact>
</mgrwt>
</event>
<event>
12    6  0.1611689E-007  0.1294774E+04  0.7818608E-02  0.9033720E-01
         -3   -1    0    0    0  501 -0.00000000000E+00  0.00000000000E+00  0.74448865640E+03  0.74448865640E+03  0.00000000000E+00 0.  1.
          4   -1    0    0  501    0  0.00000000000E+00 -0.00000000000E+00 -0.56295027472E+03  0.56295027472E+03  0.00000000000E+00 0. -1.
         24    2    1    2    0    0  0.11831384695E+03  0.25560442208E+03 -0.16032117156E+03  0.33318285062E+03  0.77305542694E+02 0.  0.
        254    2    1    2    0    0 -0.11831384695E+03 -0.25560442208E+03  0.34185955324E+03  0.97425608049E+03  0.86774141844E+03 0.  0.
         23    2    4    4    0    0 -0.10294212900E+03 -0.32899846464E+03 -0.20754623185E+03  0.41240517639E+03  0.90363264091E+02 0.  0.
         23    2    4    4    0    0 -0.15371717949E+02  0.73394042565E+02  0.54940578509E+03  0.56185090410E+03  0.90591095319E+02 0.  0.
          4    1    3    3  502    0  0.10979255370E+03  0.19804129283E+03 -0.15571065608E+03  0.27481005610E+03  0.00000000000E+00 0. -1.
         -3    1    3    3    0  502  0.85212932484E+01  0.57563129246E+02 -0.46105154730E+01  0.58372794520E+02  0.00000000000E+00 0.  1.
         11    1    5    5    0    0 -0.86603187059E+02 -0.14139007553E+03 -0.12035114144E+03  0.20487962981E+03  0.00000000000E+00 0.  1.
        -11    1    5    5    0    0 -0.16338941940E+02 -0.18760838912E+03 -0.87195090419E+02  0.20752554658E+03  0.00000000000E+00 0. -1.
          1    1    6    6  503    0  0.10877898386E+02  0.13252381186E+02  0.13181879127E+02  0.21626747738E+02  0.00000000000E+00 0. -1.
         -1    1    6    6    0  503 -0.26249616335E+02  0.60141661379E+02  0.53622390597E+03  0.54022415636E+03  0.00000000000E+00 0.  1.
<mgrwt>
<rscale>  0 0.12947743E+04</rscale>
<asrwt>0</asrwt>
<pdfrwt beam="1">  1        4 0.86607735E-01 0.12947743E+04</pdfrwt>
<pdfrwt beam="2">  1       -3 0.11453672E+00 0.12947743E+04</pdfrwt>
<totfact> 0.16420398E+00</totfact>
</mgrwt>
</event>
<event>
12    6  0.1611689E-007  0.1800692E+04  0.7818608E-02  0.8705932E-01
         -3   -1    0    0    0  501 -0.00000000000E+00  0.00000000000E+00  0.69071166920E+03  0.69071166920E+03  0.00000000000E+00 0.  1.
          2   -1    0    0  501    0  0.00000000000E+00 -0.00000000000E+00 -0.11736048055E+04  0.11736048055E+04  0.00000000000E+00 0. -1.
         24    2    1    2    0    0 -0.20101852880E+03 -0.50019570332E+03 -0.58467778127E+03  0.79942127700E+03  0.81376161546E+02 0.  0.
        254    2    1    2    0    0  0.20101852880E+03  0.50019570332E+03  0.10178464501E+03  0.10648951977E+04  0.91270886788E+03 0.  0.
         23    2    4    4    0    0 -0.10398233292E+03  0.34658300900E+03  0.43889208730E+03  0.57649075727E+03  0.93718841426E+02 0.  0.
         23    2    4    4    0    0  0.30500086172E+03  0.15361269432E+03 -0.33710744229E+03  0.48840444039E+03  0.90967490039E+02 0.  0.
          4    1    3    3  502    0 -0.18831558578E+03 -0.39770143201E+03 -0.49832703273E+03  0.66479998527E+03  0.00000000000E+00 0. -1.
         -3    1    3    3    0  502 -0.12702943026E+02 -0.10249427131E+03 -0.86350748545E+02  0.13462129173E+03  0.00000000000E+00 0.  1.
         11    1    5    5    0    0 -0.12100064042E+03  0.32040772699E+03  0.40523875228E+03  0.53058525502E+03  0.00000000000E+00 0. -1.
        -11    1    5    5    0    0  0.17018307508E+02  0.26175282011E+02  0.33653335022E+02  0.45905502251E+02  0.00000000000E+00 0.  1.
          3    1    6    6  503    0  0.30989440957E+03  0.15124222164E+03 -0.31993035129E+03  0.47038727062E+03  0.00000000000E+00 0. -1.
         -3    1    6    6    0  503 -0.48935478486E+01  0.23704726766E+01 -0.17177091004E+02  0.18017169773E+02  0.00000000000E+00 0.  1.
<mgrwt>
<rscale>  0 0.18006916E+04</rscale>
<asrwt>0</asrwt>
<pdfrwt beam="1">  1        2 0.18055458E+00 0.18006916E+04</pdfrwt>
<pdfrwt beam="2">  1       -3 0.10626334E+00 0.18006916E+04</pdfrwt>
<totfact> 0.89093387E+00</totfact>
</mgrwt>
</event>
<event>
12    6  0.1611689E-007  0.1947506E+04  0.7818608E-02  0.8631564E-01
          2   -1    0    0  501    0  0.00000000000E+00  0.00000000000E+00  0.29670923997E+04  0.29670923997E+04  0.00000000000E+00 0. -1.
         -1   -1    0    0    0  501 -0.00000000000E+00 -0.00000000000E+00 -0.31957055225E+03  0.31957055225E+03  0.00000000000E+00 0.  1.
         24    2    1    2    0    0 -0.67371678971E+03  0.27029563423E+03  0.14541592263E+04  0.16272367439E+04  0.79789238119E+02 0.  0.
        254    2    1    2    0    0  0.67371678971E+03 -0.27029563423E+03  0.11933626211E+04  0.16594262080E+04  0.89589449817E+03 0.  0.
         23    2    4    4    0    0  0.59395198816E+03 -0.29189925922E+03  0.25822921688E+03  0.71628261304E+03  0.91620475442E+02 0.  0.
         23    2    4    4    0    0  0.79764801551E+02  0.21603624988E+02  0.93513340420E+03  0.94314359498E+03  0.90643350130E+02 0.  0.
          4    1    3    3  502    0 -0.63060998057E+03  0.25844553073E+03  0.13995331978E+04  0.15566490329E+04  0.00000000000E+00 0. -1.
         -3    1    3    3    0  502 -0.43106809142E+02  0.11850103496E+02  0.54626028560E+02  0.70587710995E+02  0.00000000000E+00 0.  1.
         11    1    5    5    0    0  0.48863460643E+03 -0.22729464938E+03  0.17230175136E+03  0.56578664686E+03  0.00000000000E+00 0. -1.
        -11    1    5    5    0    0  0.10531738173E+03 -0.64604609833E+02  0.85927465520E+02  0.15049596618E+03  0.00000000000E+00 0.  1.
          1    1    6    6  503    0  0.47821780730E+02  0.43413660284E+02  0.79945157195E+03  0.80205640980E+03  0.00000000000E+00 0. -1.
         -1    1    6    6    0  503  0.31943020821E+02 -0.21810035297E+02  0.13568183225E+03  0.14108718518E+03  0.00000000000E+00 0.  1.
<mgrwt>
<rscale>  0 0.19475065E+04</rscale>
<asrwt>0</asrwt>
<pdfrwt beam="1">  1        2 0.45647573E+00 0.19475065E+04</pdfrwt>
<pdfrwt beam="2">  1       -1 0.49164702E-01 0.19475065E+04</pdfrwt>
<totfact> 0.80568126E+00</totfact>
</mgrwt>
</event>
<event>
12    6  0.1611689E-007  0.1396760E+04  0.7818608E-02  0.8956167E-01
         -1   -1    0    0    0  501 -0.00000000000E+00  0.00000000000E+00  0.65572062931E+03  0.65572062931E+03  0.00000000000E+00 0.  1.
          2   -1    0    0  501    0  0.00000000000E+00 -0.00000000000E+00 -0.74381439453E+03  0.74381439453E+03  0.00000000000E+00 0. -1.
         24    2    1    2    0    0  0.30422976696E+03  0.60627203308E+02 -0.28362800710E+03  0.42798444680E+03  0.80588035139E+02 0.  0.
        254    2    1    2    0    0 -0.30422976696E+03 -0.60627203308E+02  0.19553424188E+03  0.97155057704E+03  0.89969187787E+03 0.  0.
         23    2    4    4    0    0  0.99956191761E+02  0.33998139937E+03  0.10806447209E+02  0.36569912551E+03  0.89668717564E+02 0.  0.
         23    2    4    4    0    0 -0.40418595872E+03 -0.40060860268E+03  0.18472779467E+03  0.60585145153E+03  0.95278966342E+02 0.  0.
          4    1    3    3  502    0  0.22681992777E+03  0.80333890533E+02 -0.21201847169E+03  0.32070647942E+03  0.00000000000E+00 0. -1.
         -3    1    3    3    0  502  0.77409839194E+02 -0.19706687225E+02 -0.71609535412E+02  0.10727796739E+03  0.00000000000E+00 0.  1.
         11    1    5    5    0    0 -0.11751411399E+02  0.98029561475E+01 -0.66792583335E+01  0.16697488164E+02  0.00000000000E+00 0. -1.
        -11    1    5    5    0    0  0.11170760316E+03  0.33017844322E+03  0.17485705542E+02  0.34900163735E+03  0.00000000000E+00 0.  1.
          4    1    6    6  503    0 -0.16843681137E+03 -0.10393971660E+03  0.69825227575E+02  0.20988088650E+03  0.00000000000E+00 0. -1.
         -4    1    6    6    0  503 -0.23574914735E+03 -0.29666888608E+03  0.11490256709E+03  0.39597056503E+03  0.00000000000E+00 0.  1.
<mgrwt>
<rscale>  0 0.13967597E+04</rscale>
<asrwt>0</asrwt>
<pdfrwt beam="1">  1        2 0.11443298E+00 0.13967597E+04</pdfrwt>
<pdfrwt beam="2">  1       -1 0.10088010E+00 0.13967597E+04</pdfrwt>
<totfact> 0.39382531E+01</totfact>
</mgrwt>
</event>
<event>
12    6  0.1611689E-007  0.1540229E+04  0.7818608E-02  0.8858133E-01
         -1   -1    0    0    0  501 -0.00000000000E+00  0.00000000000E+00  0.14250851994E+03  0.14250851994E+03  0.00000000000E+00 0.  1.
          2   -1    0    0  501    0  0.00000000000E+00 -0.00000000000E+00 -0.41616911253E+04  0.41616911253E+04  0.00000000000E+00 0. -1.
         24    2    1    2    0    0  0.47351017135E+03 -0.13071661266E+03 -0.11219177552E+04  0.12274875153E+04  0.82020947374E+02 0.  0.
        254    2    1    2    0    0 -0.47351017135E+03  0.13071661266E+03 -0.28972648502E+04  0.30767121299E+04  0.91143579194E+03 0.  0.
         23    2    4    4    0    0 -0.71939714717E+02  0.41525013174E+03 -0.20304550429E+04  0.20757549544E+04  0.91667633201E+02 0.  0.
         23    2    4    4    0    0 -0.40157045663E+03 -0.28453351908E+03 -0.86680980727E+03  0.10009571755E+04  0.91311938053E+02 0.  0.
          2    1    3    3  502    0  0.37872319797E+03 -0.83405272393E+02 -0.80947128488E+03  0.89756975283E+03  0.00000000000E+00 0. -1.
         -1    1    3    3    0  502  0.94786973379E+02 -0.47311340270E+02 -0.31244647027E+03  0.32991776252E+03  0.00000000000E+00 0.  1.
         11    1    5    5    0    0 -0.13445800162E+02  0.58306707143E+02 -0.47742708933E+03  0.48116222552E+03  0.00000000000E+00 0.  1.
        -11    1    5    5    0    0 -0.58493914555E+02  0.35694342460E+03 -0.15530279536E+04  0.15945927289E+04  0.00000000000E+00 0. -1.
          4    1    6    6  503    0 -0.70992890889E+02 -0.27993380068E+02 -0.85151392210E+02  0.11434325288E+03  0.00000000000E+00 0.  1.
         -4    1    6    6    0  503 -0.33057756574E+03 -0.25654013901E+03 -0.78165841506E+03  0.88661392259E+03  0.00000000000E+00 0. -1.
<mgrwt>
<rscale>  0 0.15402291E+04</rscale>
<asrwt>0</asrwt>
<pdfrwt beam="1">  1        2 0.64026004E+00 0.15402291E+04</pdfrwt>
<pdfrwt beam="2">  1       -1 0.21924392E-01 0.15402291E+04</pdfrwt>
<totfact> 0.49474008E+00</totfact>
</mgrwt>
</event>
<event>
12    6  0.1611689E-007  0.1831496E+04  0.7818608E-02  0.8689727E-01
          2   -1    0    0  501    0  0.00000000000E+00  0.00000000000E+00  0.18099931234E+04  0.18099931234E+04  0.00000000000E+00 0. -1.
         -1   -1    0    0    0  501 -0.00000000000E+00 -0.00000000000E+00 -0.46331366908E+03  0.46331366908E+03  0.00000000000E+00 0.  1.
         24    2    1    2    0    0  0.34770284817E+03  0.16502366850E+03  0.12287639623E+04  0.12900802365E+04  0.79473641946E+02 0.  0.
        254    2    1    2    0    0 -0.34770284817E+03 -0.16502366850E+03  0.11791549202E+03  0.98322655598E+03  0.89705089896E+03 0.  0.
         23    2    4    4    0    0 -0.44767411454E+03 -0.44958514350E+03 -0.16326887549E+02  0.64089240185E+03  0.89093150157E+02 0.  0.
         23    2    4    4    0    0  0.99971266373E+02  0.28456147499E+03  0.13424237957E+03  0.34233415413E+03  0.90565829438E+02 0.  0.
          2    1    3    3  502    0  0.20545563672E+03  0.11438922683E+03  0.62650904906E+03  0.66918644818E+03  0.00000000000E+00 0. -1.
         -3    1    3    3    0  502  0.14224721145E+03  0.50634441672E+02  0.60225491324E+03  0.62089378832E+03  0.00000000000E+00 0.  1.
         11    1    5    5    0    0 -0.30689744118E+03 -0.28075324606E+03 -0.48370441571E+02  0.41874589454E+03  0.00000000000E+00 0.  1.
        -11    1    5    5    0    0 -0.14077667336E+03 -0.16883189744E+03  0.32043554021E+02  0.22214650731E+03  0.00000000000E+00 0. -1.
          1    1    6    6  503    0  0.69400547067E+02  0.23696351262E+03  0.69818018351E+02  0.25659832020E+03  0.00000000000E+00 0. -1.
         -1    1    6    6    0  503  0.30570719306E+02  0.47597962379E+02  0.64424361214E+02  0.85735833928E+02  0.00000000000E+00 0.  1.
<mgrwt>
<rscale>  0 0.18314962E+04</rscale>
<asrwt>0</asrwt>
<pdfrwt beam="1">  1        2 0.27846048E+00 0.18314962E+04</pdfrwt>
<pdfrwt beam="2">  1       -1 0.71279026E-01 0.18314962E+04</pdfrwt>
<totfact> 0.18160146E+01</totfact>
</mgrwt>
</event>
<event>
12    6  0.1611689E-007  0.1676640E+04  0.7818608E-02  0.8774801E-01
          2   -1    0    0  501    0  0.00000000000E+00  0.00000000000E+00  0.72340784004E+03  0.72340784004E+03  0.00000000000E+00 0. -1.
         -1   -1    0    0    0  501 -0.00000000000E+00 -0.00000000000E+00 -0.97148525175E+03  0.97148525175E+03  0.00000000000E+00 0.  1.
         24    2    1    2    0    0  0.14184947205E+03  0.38587397935E+03 -0.52427925809E+03  0.67111332378E+03  0.80649564357E+02 0.  0.
        254    2    1    2    0    0 -0.14184947205E+03 -0.38587397935E+03  0.27620184638E+03  0.10237797680E+04  0.89600086650E+03 0.  0.
         23    2    4    4    0    0  0.26122611976E+03  0.11336831352E+03  0.22443130045E+03  0.37389487729E+03  0.91304493249E+02 0.  0.
         23    2    4    4    0    0 -0.40307559181E+03 -0.49924229287E+03  0.51770545933E+02  0.64988489071E+03  0.89204159365E+02 0.  0.
          4    1    3    3  502    0  0.86735409607E+02  0.25838830361E+03 -0.28433247073E+03  0.39386863373E+03  0.00000000000E+00 0. -1.
         -3    1    3    3    0  502  0.55114062447E+02  0.12748567573E+03 -0.23994678736E+03  0.27724469005E+03  0.00000000000E+00 0.  1.
         11    1    5    5    0    0  0.62209267277E+02  0.90037748703E+01  0.10694213675E+02  0.63760701872E+02  0.00000000000E+00 0. -1.
        -11    1    5    5    0    0  0.19901685248E+03  0.10436453865E+03  0.21373708677E+03  0.31013417542E+03  0.00000000000E+00 0.  1.
          3    1    6    6  503    0 -0.17374158515E+01 -0.16568699912E+02 -0.94881489620E+01  0.19171995236E+02  0.00000000000E+00 0. -1.
         -3    1    6    6    0  503 -0.40133817596E+03 -0.48267359296E+03  0.61258694895E+02  0.63071289548E+03  0.00000000000E+00 0.  1.
<mgrwt>
<rscale>  0 0.16766396E+04</rscale>
<asrwt>0</asrwt>
<pdfrwt beam="1">  1        2 0.11129351E+00 0.16766396E+04</pdfrwt>
<pdfrwt beam="2">  1       -1 0.14945927E+00 0.16766396E+04</pdfrwt>
<totfact> 0.15069278E+01</totfact>
</mgrwt>
</event>
<event>
12    6  0.1611689E-007  0.2375251E+04  0.7818608E-02  0.8448828E-01
          2   -1    0    0  501    0  0.00000000000E+00  0.00000000000E+00  0.14112363931E+04  0.14112363931E+04  0.00000000000E+00 0. -1.
         -1   -1    0    0    0  501 -0.00000000000E+00 -0.00000000000E+00 -0.99944569632E+03  0.99944569632E+03  0.00000000000E+00 0.  1.
         24    2    1    2    0    0 -0.94465344818E+03 -0.29600356910E+03  0.43420197171E+03  0.10838202983E+04  0.78401764483E+02 0.  0.
        254    2    1    2    0    0  0.94465344818E+03  0.29600356910E+03 -0.22411274944E+02  0.13268617911E+04  0.88321667635E+03 0.  0.
         23    2    4    4    0    0  0.31345603506E+03  0.42181211063E+03  0.28841329124E+03  0.60624999949E+03  0.90425066969E+02 0.  0.
         23    2    4    4    0    0  0.63119741312E+03 -0.12580854152E+03 -0.31082456618E+03  0.72061179161E+03  0.91823089799E+02 0.  0.
          2    1    3    3  502    0 -0.31774560599E+02 -0.11274906746E+02  0.26737426345E+00  0.33716727487E+02  0.00000000000E+00 0. -1.
         -1    1    3    3    0  502 -0.91287888758E+03 -0.28472866236E+03  0.43393459745E+03  0.10501035708E+04  0.00000000000E+00 0.  1.
         11    1    5    5    0    0  0.26876650432E+03  0.37126709465E+03  0.21410106757E+03  0.50587938933E+03  0.00000000000E+00 0. -1.
        -11    1    5    5    0    0  0.44689530734E+02  0.50545015974E+02  0.74312223669E+02  0.10037061016E+03  0.00000000000E+00 0.  1.
          4    1    6    6  503    0  0.21017494684E+03 -0.74578027079E+02 -0.74744814271E+02  0.23520667011E+03  0.00000000000E+00 0. -1.
         -4    1    6    6    0  503  0.42102246628E+03 -0.51230514445E+02 -0.23607975191E+03  0.48540512151E+03  0.00000000000E+00 0.  1.
<mgrwt>
<rscale>  0 0.23752508E+04</rscale>
<asrwt>0</asrwt>
<pdfrwt beam="1">  1        2 0.21711329E+00 0.23752508E+04</pdfrwt>
<pdfrwt beam="2">  1       -1 0.15376088E+00 0.23752508E+04</pdfrwt>
<totfact> 0.47749567E+00</totfact>
</mgrwt>
</event>
<event>
12    6  0.1611689E-007  0.2452694E+04  0.7818608E-02  0.8420035E-01
          2   -1    0    0  501    0  0.00000000000E+00  0.00000000000E+00  0.12164773717E+04  0.12164773717E+04  0.00000000000E+00 0. -1.
         -1   -1    0    0    0  501 -0.00000000000E+00 -0.00000000000E+00 -0.12362964339E+04  0.12362964339E+04  0.00000000000E+00 0.  1.
         24    2    1    2    0    0 -0.32353046691E+03  0.45414827419E+03 -0.90385314242E+03  0.10649525724E+04  0.79062383591E+02 0.  0.
        254    2    1    2    0    0  0.32353046691E+03 -0.45414827419E+03  0.88403408026E+03  0.13878212332E+04  0.91302185202E+03 0.  0.
         23    2    4    4    0    0  0.43751717287E+03 -0.35194236755E+03  0.92610767310E+02  0.57646009762E+03  0.91895502030E+02 0.  0.
         23    2    4    4    0    0 -0.11398670596E+03 -0.10220590664E+03  0.79142331295E+03  0.81136113557E+03  0.92287678205E+02 0.  0.
          2    1    3    3  502    0 -0.11191218636E+03  0.10347372812E+03 -0.21528740263E+03  0.26377986200E+03  0.00000000000E+00 0. -1.
         -1    1    3    3    0  502 -0.21161828055E+03  0.35067454607E+03 -0.68856573979E+03  0.80117271043E+03  0.00000000000E+00 0.  1.
         11    1    5    5    0    0  0.66819648941E+02 -0.29544075126E+02  0.37429518861E+02  0.82089504457E+02  0.00000000000E+00 0. -1.
        -11    1    5    5    0    0  0.37069752393E+03 -0.32239829242E+03  0.55181248449E+02  0.49437059316E+03  0.00000000000E+00 0.  1.
          1    1    6    6  503    0 -0.46302562539E+02 -0.44978280966E+02  0.14283392058E+03  0.15674342705E+03  0.00000000000E+00 0. -1.
         -1    1    6    6    0  503 -0.67684143421E+02 -0.57227625679E+02  0.64858939237E+03  0.65461770852E+03  0.00000000000E+00 0.  1.
<mgrwt>
<rscale>  0 0.24526937E+04</rscale>
<asrwt>0</asrwt>
<pdfrwt beam="1">  1        2 0.18715036E+00 0.24526937E+04</pdfrwt>
<pdfrwt beam="2">  1       -1 0.19019945E+00 0.24526937E+04</pdfrwt>
<totfact> 0.33280098E+00</totfact>
</mgrwt>
</event>
<event>
12    6  0.1611689E-007  0.2232116E+04  0.7818608E-02  0.8505178E-01
         -1   -1    0    0    0  501 -0.00000000000E+00  0.00000000000E+00  0.83184516630E+03  0.83184516630E+03  0.00000000000E+00 0.  1.
          2   -1    0    0  501    0  0.00000000000E+00 -0.00000000000E+00 -0.14973768515E+04  0.14973768515E+04  0.00000000000E+00 0. -1.
         24    2    1    2    0    0 -0.50902858095E+03  0.56862576406E+03 -0.84024070973E+03  0.11379738700E+04  0.80837631511E+02 0.  0.
        254    2    1    2    0    0  0.50902858095E+03 -0.56862576406E+03  0.17470902455E+03  0.11912481478E+04  0.89783269636E+03 0.  0.
         23    2    4    4    0    0  0.59638665897E+03 -0.14404371919E+03 -0.15456092918E+03  0.63941228550E+03  0.92376133149E+02 0.  0.
         23    2    4    4    0    0 -0.87358078029E+02 -0.42458204487E+03  0.32926995373E+03  0.55183586232E+03  0.90569144286E+02 0.  0.
          4    1    3    3  502    0 -0.49526022055E+03  0.53500616671E+03 -0.81628631053E+03  0.10944576854E+04  0.00000000000E+00 0. -1.
         -3    1    3    3    0  502 -0.13768360398E+02  0.33619597357E+02 -0.23954399201E+02  0.43516184525E+02  0.00000000000E+00 0.  1.
         11    1    5    5    0    0  0.43624580539E+02 -0.35336600650E+02 -0.24441660120E+02  0.61230499933E+02  0.00000000000E+00 0.  1.
        -11    1    5    5    0    0  0.55276207843E+03 -0.10870711855E+03 -0.13011926906E+03  0.57818178556E+03  0.00000000000E+00 0. -1.
          2    1    6    6  503    0 -0.88568242813E+02 -0.27897844282E+03  0.18163970642E+03  0.34447973546E+03  0.00000000000E+00 0. -1.
         -2    1    6    6    0  503  0.12101647844E+01 -0.14560360205E+03  0.14763024731E+03  0.20735612687E+03  0.00000000000E+00 0.  1.
<mgrwt>
<rscale>  0 0.22321162E+04</rscale>
<asrwt>0</asrwt>
<pdfrwt beam="1">  1        2 0.23036567E+00 0.22321162E+04</pdfrwt>
<pdfrwt beam="2">  1       -1 0.12797618E+00 0.22321162E+04</pdfrwt>
<totfact> 0.69796283E+00</totfact>
</mgrwt>
</event>
<event>
12    6  0.1611689E-007  0.1615105E+04  0.7818608E-02  0.8811322E-01
          2   -1    0    0  501    0  0.00000000000E+00  0.00000000000E+00  0.27919122658E+04  0.27919122658E+04  0.00000000000E+00 0. -1.
         -1   -1    0    0    0  501 -0.00000000000E+00 -0.00000000000E+00 -0.23358222059E+03  0.23358222059E+03  0.00000000000E+00 0.  1.
         24    2    1    2    0    0 -0.32486977208E+03 -0.20273051822E+03  0.13895712206E+03  0.41537643981E+03  0.81169410155E+02 0.  0.
        254    2    1    2    0    0  0.32486977208E+03  0.20273051822E+03  0.24193729231E+04  0.26101180466E+04  0.90150476648E+03 0.  0.
         23    2    4    4    0    0  0.54137392216E+03 -0.13211558480E+03  0.15372373508E+04  0.16376427879E+04  0.90746772466E+02 0.  0.
         23    2    4    4    0    0 -0.21650415008E+03  0.33484610302E+03  0.88213557228E+03  0.97247525862E+03  0.92460808093E+02 0.  0.
          4    1    3    3  502    0 -0.22313156586E+03 -0.11257011304E+03  0.12286435628E+03  0.27848765875E+03  0.00000000000E+00 0. -1.
         -3    1    3    3    0  502 -0.10173820622E+03 -0.90160405186E+02  0.16092765775E+02  0.13688878105E+03  0.00000000000E+00 0.  1.
         11    1    5    5    0    0  0.49555476173E+03 -0.14006668454E+03  0.13547789831E+04  0.14493513346E+04  0.00000000000E+00 0.  1.
        -11    1    5    5    0    0  0.45819160430E+02  0.79510997360E+01  0.18245836770E+03  0.18829145332E+03  0.00000000000E+00 0. -1.
          1    1    6    6  503    0 -0.70121786438E+01 -0.51602027106E+01  0.10052760183E+02  0.13298734099E+02  0.00000000000E+00 0. -1.
         -1    1    6    6    0  503 -0.20949197143E+03  0.34000630573E+03  0.87208281210E+03  0.95917652452E+03  0.00000000000E+00 0.  1.
<mgrwt>
<rscale>  0 0.16151050E+04</rscale>
<asrwt>0</asrwt>
<pdfrwt beam="1">  1        2 0.42952494E+00 0.16151050E+04</pdfrwt>
<pdfrwt beam="2">  1       -1 0.35935728E-01 0.16151050E+04</pdfrwt>
<totfact> 0.18951254E+01</totfact>
</mgrwt>
</event>
<event>
12    6  0.1611689E-007  0.1889276E+04  0.7818608E-02  0.8660213E-01
          2   -1    0    0  501    0  0.00000000000E+00  0.00000000000E+00  0.22029039306E+04  0.22029039306E+04  0.00000000000E+00 0. -1.
         -1   -1    0    0    0  501 -0.00000000000E+00 -0.00000000000E+00 -0.40507490462E+03  0.40507490462E+03  0.00000000000E+00 0.  1.
         24    2    1    2    0    0  0.37988491378E+03  0.88421635451E+02 -0.14608865148E+03  0.42416285705E+03  0.80257721617E+02 0.  0.
        254    2    1    2    0    0 -0.37988491378E+03 -0.88421635451E+02  0.19439176774E+04  0.21838159781E+04  0.91548094265E+03 0.  0.
         23    2    4    4    0    0  0.28401445045E+03 -0.12576652008E+03  0.67565700850E+03  0.74892783313E+03  0.88876771226E+02 0.  0.
         23    2    4    4    0    0 -0.66389936423E+03  0.37344884631E+02  0.12682606689E+04  0.14348881450E+04  0.90894763686E+02 0.  0.
          4    1    3    3  502    0  0.49493497221E+02 -0.51779396463E+01 -0.42618099241E+02  0.65518850029E+02  0.00000000000E+00 0. -1.
         -3    1    3    3    0  502  0.33039141656E+03  0.93599575098E+02 -0.10347055224E+03  0.35864400702E+03  0.00000000000E+00 0.  1.
         11    1    5    5    0    0  0.35698938308E+02 -0.42559844602E+02  0.17947133131E+03  0.18787153412E+03  0.00000000000E+00 0.  1.
        -11    1    5    5    0    0  0.24831551214E+03 -0.83206675480E+02  0.49618567719E+03  0.56105629901E+03  0.00000000000E+00 0. -1.
          1    1    6    6  503    0 -0.40371046110E+03 -0.17556569655E+02  0.80505466374E+03  0.90077931878E+03  0.00000000000E+00 0. -1.
         -1    1    6    6    0  503 -0.26018890312E+03  0.54901454287E+02  0.46320600518E+03  0.53410882621E+03  0.00000000000E+00 0.  1.
<mgrwt>
<rscale>  0 0.18892762E+04</rscale>
<asrwt>0</asrwt>
<pdfrwt beam="1">  1        2 0.33890829E+00 0.18892762E+04</pdfrwt>
<pdfrwt beam="2">  1       -1 0.62319217E-01 0.18892762E+04</pdfrwt>
<totfact> 0.14341911E+01</totfact>
</mgrwt>
</event>
<event>
12    6  0.1611689E-007  0.1571164E+04  0.7818608E-02  0.8838462E-01
          2   -1    0    0  501    0  0.00000000000E+00  0.00000000000E+00  0.11242066494E+04  0.11242066494E+04  0.00000000000E+00 0. -1.
         -3   -1    0    0    0  501 -0.00000000000E+00 -0.00000000000E+00 -0.54895492341E+03  0.54895492341E+03  0.00000000000E+00 0.  1.
         24    2    1    2    0    0 -0.43238506529E+03 -0.90712013044E+02 -0.89734920507E+02  0.45786200474E+03  0.79998408872E+02 0.  0.
        254    2    1    2    0    0  0.43238506529E+03  0.90712013044E+02  0.66498664652E+03  0.12152995681E+04  0.91627522403E+03 0.  0.
         23    2    4    4    0    0 -0.12457543497E+03 -0.74808739490E+02  0.59947508865E+03  0.62357488415E+03  0.91432312270E+02 0.  0.
         23    2    4    4    0    0  0.55696050027E+03  0.16552075253E+03  0.65511557873E+02  0.59172468395E+03  0.90797681688E+02 0.  0.
          4    1    3    3  502    0 -0.12732055444E+03 -0.63255982575E+02 -0.38703261264E+02  0.14734240851E+03  0.00000000000E+00 0. -1.
         -3    1    3    3    0  502 -0.30506451086E+03 -0.27456030469E+02 -0.51031659243E+02  0.31051959622E+03  0.00000000000E+00 0.  1.
         11    1    5    5    0    0 -0.90316748613E+02 -0.92882170847E+02  0.50752677691E+03  0.52380114741E+03  0.00000000000E+00 0. -1.
        -11    1    5    5    0    0 -0.34258686361E+02  0.18073431357E+02  0.91948311733E+02  0.99773736739E+02  0.00000000000E+00 0.  1.
          4    1    6    6  503    0  0.21576175018E+03  0.73115250888E+02 -0.17935661454E+02  0.22851840343E+03  0.00000000000E+00 0. -1.
         -4    1    6    6    0  503  0.34119875009E+03  0.92405501645E+02  0.83447219327E+02  0.36320628052E+03  0.00000000000E+00 0.  1.
<mgrwt>
<rscale>  0 0.15711636E+04</rscale>
<asrwt>0</asrwt>
<pdfrwt beam="1">  1        2 0.17295487E+00 0.15711636E+04</pdfrwt>
<pdfrwt beam="2">  1       -3 0.84454604E-01 0.15711636E+04</pdfrwt>
<totfact> 0.16558347E+01</totfact>
</mgrwt>
</event>
<event>
12    6  0.1611689E-007  0.1158386E+04  0.7818608E-02  0.9150081E-01
         -1   -1    0    0    0  501 -0.00000000000E+00  0.00000000000E+00  0.32399740211E+03  0.32399740211E+03  0.00000000000E+00 0.  1.
          2   -1    0    0  501    0  0.00000000000E+00 -0.00000000000E+00 -0.10353934028E+04  0.10353934028E+04  0.00000000000E+00 0. -1.
         24    2    1    2    0    0  0.84516762333E+02 -0.18764197403E+03 -0.10008234992E+03  0.24268967413E+03  0.80803512496E+02 0.  0.
        254    2    1    2    0    0 -0.84516762333E+02  0.18764197403E+03 -0.61131365079E+03  0.11167011308E+04  0.91157251075E+03 0.  0.
         23    2    4    4    0    0  0.19315254796E+02  0.43013514117E+03  0.53714518166E+01  0.43995137862E+03  0.90216652153E+02 0.  0.
         23    2    4    4    0    0 -0.10383201713E+03 -0.24249316713E+03 -0.61668510261E+03  0.67674975217E+03  0.90031591150E+02 0.  0.
          2    1    3    3  502    0  0.86003487436E+02 -0.12830533564E+03 -0.98726759412E+02  0.18331893527E+03  0.00000000000E+00 0. -1.
         -1    1    3    3    0  502 -0.14867251034E+01 -0.59336638394E+02 -0.13555905043E+01  0.59370738863E+02  0.00000000000E+00 0.  1.
         11    1    5    5    0    0  0.21523721132E+02  0.62998638898E+02 -0.25998662144E+02  0.71470479974E+02  0.00000000000E+00 0. -1.
        -11    1    5    5    0    0 -0.22084663357E+01  0.36713650227E+03  0.31370113961E+02  0.36848089865E+03  0.00000000000E+00 0.  1.
          3    1    6    6  503    0 -0.13229660162E+02 -0.27517943577E+01 -0.66419470332E+01  0.15056949910E+02  0.00000000000E+00 0. -1.
         -3    1    6    6    0  503 -0.90602356967E+02 -0.23974137278E+03 -0.61004315557E+03  0.66169280226E+03  0.00000000000E+00 0.  1.
<mgrwt>
<rscale>  0 0.11583864E+04</rscale>
<asrwt>0</asrwt>
<pdfrwt beam="1">  1        2 0.15929129E+00 0.11583864E+04</pdfrwt>
<pdfrwt beam="2">  1       -1 0.49845755E-01 0.11583864E+04</pdfrwt>
<totfact> 0.10889769E+02</totfact>
</mgrwt>
</event>
<event>
12    6  0.1611689E-007  0.2538248E+04  0.7818608E-02  0.8389485E-01
          2   -1    0    0  501    0  0.00000000000E+00  0.00000000000E+00  0.18739468432E+04  0.18739468432E+04  0.00000000000E+00 0. -1.
         -1   -1    0    0    0  501 -0.00000000000E+00 -0.00000000000E+00 -0.85950958652E+03  0.85950958652E+03  0.00000000000E+00 0.  1.
         24    2    1    2    0    0  0.37246879255E+03  0.27396173099E+03 -0.64134356549E+03  0.79470902563E+03  0.80329539730E+02 0.  0.
        254    2    1    2    0    0 -0.37246879255E+03 -0.27396173099E+03  0.16557808222E+04  0.19387474041E+04  0.89629422306E+03 0.  0.
         23    2    4    4    0    0 -0.28134534788E+03 -0.10981592140E+03  0.50154032894E+02  0.31949725279E+03  0.91369175098E+02 0.  0.
         23    2    4    4    0    0 -0.91123444673E+02 -0.16414580959E+03  0.16056267893E+04  0.16192501513E+04  0.93200520720E+02 0.  0.
          4    1    3    3  502    0  0.86164713368E+02  0.98617149385E+02 -0.14387412459E+03  0.19454938630E+03  0.00000000000E+00 0. -1.
         -3    1    3    3    0  502  0.28630407918E+03  0.17534458160E+03 -0.49746944090E+03  0.60015963933E+03  0.00000000000E+00 0.  1.
         11    1    5    5    0    0 -0.27205609215E+03 -0.84217035179E+02  0.59047052963E+02  0.29084975632E+03  0.00000000000E+00 0.  1.
        -11    1    5    5    0    0 -0.92892557294E+01 -0.25598886221E+02 -0.88930200696E+01  0.28647496465E+02  0.00000000000E+00 0. -1.
          2    1    6    6  503    0 -0.95833047370E+02 -0.79997579484E+02  0.10120311591E+04  0.10197012566E+04  0.00000000000E+00 0. -1.
         -2    1    6    6    0  503  0.47096026969E+01 -0.84148230104E+02  0.59359563013E+03  0.59954889467E+03  0.00000000000E+00 0.  1.
<mgrwt>
<rscale>  0 0.25382476E+04</rscale>
<asrwt>0</asrwt>
<pdfrwt beam="1">  1        2 0.28829951E+00 0.25382476E+04</pdfrwt>
<pdfrwt beam="2">  1       -1 0.13223225E+00 0.25382476E+04</pdfrwt>
<totfact> 0.38581544E+00</totfact>
</mgrwt>
</event>
<event>
12    6  0.1611689E-007  0.2229713E+04  0.7818608E-02  0.8506162E-01
          2   -1    0    0  501    0  0.00000000000E+00  0.00000000000E+00  0.12383146347E+04  0.12383146347E+04  0.00000000000E+00 0. -1.
         -1   -1    0    0    0  501 -0.00000000000E+00 -0.00000000000E+00 -0.10037073515E+04  0.10037073515E+04  0.00000000000E+00 0.  1.
         24    2    1    2    0    0 -0.54664484076E+03 -0.68372530186E+03  0.41367151144E+03  0.97161934023E+03  0.81358174681E+02 0.  0.
        254    2    1    2    0    0  0.54664484076E+03  0.68372530186E+03 -0.17906422821E+03  0.12704026459E+04  0.90308250713E+03 0.  0.
         23    2    4    4    0    0 -0.61448791731E+01  0.63847961791E+03 -0.27170922763E+03  0.69981499807E+03  0.90670530619E+02 0.  0.
         23    2    4    4    0    0  0.55278971994E+03  0.45245683946E+02  0.92644999424E+02  0.57058764787E+03  0.96765291325E+02 0.  0.
          2    1    3    3  502    0 -0.45832393976E+03 -0.58707453335E+03  0.38141813911E+03  0.83677783091E+03  0.00000000000E+00 0. -1.
         -1    1    3    3    0  502 -0.88320901000E+02 -0.96650768507E+02  0.32253372336E+02  0.13484150931E+03  0.00000000000E+00 0.  1.
         11    1    5    5    0    0  0.40400082422E+02  0.21294092733E+03 -0.85558855971E+02  0.23301571412E+03  0.00000000000E+00 0. -1.
        -11    1    5    5    0    0 -0.46544961595E+02  0.42553869058E+03 -0.18615037166E+03  0.46679928396E+03  0.00000000000E+00 0.  1.
          3    1    6    6  503    0  0.46626540177E+02 -0.21904670795E+02 -0.73634645950E+00  0.51520782774E+02  0.00000000000E+00 0. -1.
         -3    1    6    6    0  503  0.50616317976E+03  0.67150354741E+02  0.93381345884E+02  0.51906686510E+03  0.00000000000E+00 0.  1.
<mgrwt>
<rscale>  0 0.22297134E+04</rscale>
<asrwt>0</asrwt>
<pdfrwt beam="1">  1        2 0.19050994E+00 0.22297134E+04</pdfrwt>
<pdfrwt beam="2">  1       -1 0.15441652E+00 0.22297134E+04</pdfrwt>
<totfact> 0.60230690E+00</totfact>
</mgrwt>
</event>
<event>
12    6  0.1611689E-007  0.1923956E+04  0.7818608E-02  0.8643023E-01
         -1   -1    0    0    0  501 -0.00000000000E+00  0.00000000000E+00  0.10397988539E+04  0.10397988539E+04  0.00000000000E+00 0.  1.
          2   -1    0    0  501    0  0.00000000000E+00 -0.00000000000E+00 -0.88998180111E+03  0.88998180111E+03  0.00000000000E+00 0. -1.
         24    2    1    2    0    0 -0.48982859311E+03  0.76741683489E+02  0.62878432479E+03  0.80484565059E+03  0.81150832102E+02 0.  0.
        254    2    1    2    0    0  0.48982859311E+03 -0.76741683489E+02 -0.47896727198E+03  0.11249350044E+04  0.88895881794E+03 0.  0.
         23    2    4    4    0    0 -0.97809291468E+01  0.33809521317E+03 -0.90925764677E+02  0.36312577338E+03  0.95858191473E+02 0.  0.
         23    2    4    4    0    0  0.49960952225E+03 -0.41483689665E+03 -0.38804150730E+03  0.76180923106E+03  0.89876401733E+02 0.  0.
          2    1    3    3  502    0 -0.14737328032E+03 -0.13212271973E+02  0.17153668686E+03  0.22653538978E+03  0.00000000000E+00 0. -1.
         -3    1    3    3    0  502 -0.34245531278E+03  0.89953955462E+02  0.45724763794E+03  0.57831026081E+03  0.00000000000E+00 0.  1.
         11    1    5    5    0    0  0.29217849444E+02  0.18463634700E+03 -0.15024448941E+02  0.18753665621E+03  0.00000000000E+00 0. -1.
        -11    1    5    5    0    0 -0.38998778590E+02  0.15345886617E+03 -0.75901315736E+02  0.17558911717E+03  0.00000000000E+00 0.  1.
          4    1    6    6  503    0  0.25888765725E+03 -0.21112982972E+03 -0.25159475689E+03  0.41820873469E+03  0.00000000000E+00 0. -1.
         -4    1    6    6    0  503  0.24072186500E+03 -0.20370706694E+03 -0.13644675041E+03  0.34360049637E+03  0.00000000000E+00 0.  1.
<mgrwt>
<rscale>  0 0.19239564E+04</rscale>
<asrwt>0</asrwt>
<pdfrwt beam="1">  1        2 0.13692028E+00 0.19239564E+04</pdfrwt>
<pdfrwt beam="2">  1       -1 0.15996905E+00 0.19239564E+04</pdfrwt>
<totfact> 0.92897366E+00</totfact>
</mgrwt>
</event>
<event>
12    6  0.1611689E-007  0.1312205E+04  0.7818608E-02  0.9019942E-01
         -1   -1    0    0    0  501 -0.00000000000E+00  0.00000000000E+00  0.18665525936E+04  0.18665525936E+04  0.00000000000E+00 0.  1.
          2   -1    0    0  501    0  0.00000000000E+00 -0.00000000000E+00 -0.23062322353E+03  0.23062322353E+03  0.00000000000E+00 0. -1.
         24    2    1    2    0    0 -0.13627243240E+03 -0.40383932421E+02  0.93498654197E+03  0.94889254075E+03  0.77435020529E+02 0.  0.
        254    2    1    2    0    0  0.13627243240E+03  0.40383932421E+02  0.70094282809E+03  0.11482832764E+04  0.89834992999E+03 0.  0.
         23    2    4    4    0    0  0.19508846545E+03  0.21167692169E+03 -0.10353527913E+03  0.31872041614E+03  0.89423269410E+02 0.  0.
         23    2    4    4    0    0 -0.58816033050E+02 -0.17129298927E+03  0.80447810722E+03  0.82956286023E+03  0.90492542043E+02 0.  0.
          2    1    3    3  502    0 -0.98472317758E+02 -0.42990750664E+02  0.45935519938E+03  0.47175438653E+03  0.00000000000E+00 0. -1.
         -1    1    3    3    0  502 -0.37800114641E+02  0.26068182427E+01  0.47563134259E+03  0.47713815423E+03  0.00000000000E+00 0.  1.
         11    1    5    5    0    0  0.19884796150E+03  0.21243230423E+03 -0.89889010123E+02  0.30454561204E+03  0.00000000000E+00 0. -1.
        -11    1    5    5    0    0 -0.37594960494E+01 -0.75538254223E+00 -0.13646269009E+02  0.14174804097E+02  0.00000000000E+00 0.  1.
          4    1    6    6  503    0 -0.62634032188E+02 -0.56515956773E+02  0.41589855103E+03  0.42436856635E+03  0.00000000000E+00 0. -1.
         -4    1    6    6    0  503  0.38179991377E+01 -0.11477703249E+03  0.38857955620E+03  0.40519429389E+03  0.00000000000E+00 0.  1.
<mgrwt>
<rscale>  0 0.13122048E+04</rscale>
<asrwt>0</asrwt>
<pdfrwt beam="1">  1        2 0.35480497E-01 0.13122048E+04</pdfrwt>
<pdfrwt beam="2">  1       -1 0.28716193E+00 0.13122048E+04</pdfrwt>
<totfact> 0.66418802E+00</totfact>
</mgrwt>
</event>
<event>
12    6  0.1611689E-007  0.1733424E+04  0.7818608E-02  0.8742528E-01
         -1   -1    0    0    0  501 -0.00000000000E+00  0.00000000000E+00  0.17663425085E+04  0.17663425085E+04  0.00000000000E+00 0.  1.
          2   -1    0    0  501    0  0.00000000000E+00 -0.00000000000E+00 -0.42527951467E+03  0.42527951467E+03  0.00000000000E+00 0. -1.
         24    2    1    2    0    0  0.29057586912E+01  0.16196757737E+03  0.12682222455E+04  0.12809834904E+04  0.79303840623E+02 0.  0.
        254    2    1    2    0    0 -0.29057586912E+01 -0.16196757737E+03  0.72840748395E+02  0.91063853283E+03  0.89314882483E+03 0.  0.
         23    2    4    4    0    0  0.37776207532E+03 -0.27114145515E+03 -0.71604333957E+02  0.47951493845E+03  0.92658088133E+02 0.  0.
         23    2    4    4    0    0 -0.38066783401E+03  0.10917387778E+03  0.14444508235E+03  0.43112359438E+03  0.90422543511E+02 0.  0.
          2    1    3    3  502    0  0.11215429723E+02 -0.27687684599E+01  0.36997761487E+02  0.38759338200E+02  0.00000000000E+00 0. -1.
         -1    1    3    3    0  502 -0.83096710315E+01  0.16473634583E+03  0.12312244840E+04  0.12422241522E+04  0.00000000000E+00 0.  1.
         11    1    5    5    0    0  0.73637496845E+02 -0.46396892895E+02  0.22356033002E+02  0.89860696767E+02  0.00000000000E+00 0. -1.
        -11    1    5    5    0    0  0.30412457848E+03 -0.22474456226E+03 -0.93960366959E+02  0.38965424168E+03  0.00000000000E+00 0.  1.
          4    1    6    6  503    0 -0.29159583801E+03  0.69686466505E+02  0.14646335957E+03  0.33367027445E+03  0.00000000000E+00 0.  1.
         -4    1    6    6    0  503 -0.89071996008E+02  0.39487411276E+02 -0.20182772229E+01  0.97453319928E+02  0.00000000000E+00 0. -1.
<mgrwt>
<rscale>  0 0.17334235E+04</rscale>
<asrwt>0</asrwt>
<pdfrwt beam="1">  1        2 0.65427618E-01 0.17334235E+04</pdfrwt>
<pdfrwt beam="2">  1       -1 0.27174500E+00 0.17334235E+04</pdfrwt>
<totfact> 0.40546746E+00</totfact>
</mgrwt>
</event>
<event>
12    6  0.1611689E-007  0.1680270E+04  0.7818608E-02  0.8772698E-01
          2   -1    0    0  501    0  0.00000000000E+00  0.00000000000E+00  0.24829889604E+04  0.24829889604E+04  0.00000000000E+00 0. -1.
         -1   -1    0    0    0  501 -0.00000000000E+00 -0.00000000000E+00 -0.28426498990E+03  0.28426498990E+03  0.00000000000E+00 0.  1.
         24    2    1    2    0    0 -0.34216341956E+03 -0.49751965317E+03  0.68669759999E+03  0.91793490101E+03  0.80307394922E+02 0.  0.
        254    2    1    2    0    0  0.34216341956E+03  0.49751965317E+03  0.15120263705E+04  0.18493190493E+04  0.87701515947E+03 0.  0.
         23    2    4    4    0    0 -0.13694889694E+03  0.32372220174E+03  0.15070418116E+03  0.39297371744E+03  0.90363311762E+02 0.  0.
         23    2    4    4    0    0  0.47911231650E+03  0.17379745144E+03  0.13613221893E+04  0.14563453318E+04  0.89383759169E+02 0.  0.
          2    1    3    3  502    0 -0.32477737669E+03 -0.46163860367E+03  0.60736095690E+03  0.82914285668E+03  0.00000000000E+00 0. -1.
         -1    1    3    3    0  502 -0.17386042871E+02 -0.35881049498E+02  0.79336643089E+02  0.88792044331E+02  0.00000000000E+00 0.  1.
         11    1    5    5    0    0 -0.60494536354E+02  0.68274111116E+02  0.68074030812E+02  0.11382010740E+03  0.00000000000E+00 0. -1.
        -11    1    5    5    0    0 -0.76454360585E+02  0.25544809062E+03  0.82630150343E+02  0.27915361004E+03  0.00000000000E+00 0.  1.
          3    1    6    6  503    0  0.10537012600E+03  0.17999325864E+01  0.24952591998E+03  0.27086765763E+03  0.00000000000E+00 0. -1.
         -3    1    6    6    0  503  0.37374219050E+03  0.17199751885E+03  0.11117962693E+04  0.11854776742E+04  0.00000000000E+00 0.  1.
<mgrwt>
<rscale>  0 0.16802700E+04</rscale>
<asrwt>0</asrwt>
<pdfrwt beam="1">  1        2 0.38199829E+00 0.16802700E+04</pdfrwt>
<pdfrwt beam="2">  1       -1 0.43733077E-01 0.16802700E+04</pdfrwt>
<totfact> 0.19995033E+01</totfact>
</mgrwt>
</event>
<event>
12    6  0.1611689E-007  0.1134920E+04  0.7818608E-02  0.9171810E-01
          2   -1    0    0  501    0  0.00000000000E+00  0.00000000000E+00  0.61695623007E+03  0.61695623007E+03  0.00000000000E+00 0. -1.
         -1   -1    0    0    0  501 -0.00000000000E+00 -0.00000000000E+00 -0.52193434139E+03  0.52193434139E+03  0.00000000000E+00 0.  1.
         24    2    1    2    0    0 -0.13986794296E+03  0.13129852144E+03  0.70023612331E+02  0.21929408145E+03  0.79901468549E+02 0.  0.
        254    2    1    2    0    0  0.13986794296E+03 -0.13129852144E+03  0.24998276352E+02  0.91959649001E+03  0.89901637772E+03 0.  0.
         23    2    4    4    0    0  0.48970508672E+03 -0.21429567382E+03 -0.33567846289E+02  0.54396519183E+03  0.95066407537E+02 0.  0.
         23    2    4    4    0    0 -0.34983714376E+03  0.82997152382E+02  0.58566122641E+02  0.37563129818E+03  0.91620559876E+02 0.  0.
          4    1    3    3  502    0 -0.10650602147E+03  0.13664101850E+03  0.51380488225E+02  0.18070488404E+03  0.00000000000E+00 0. -1.
         -3    1    3    3    0  502 -0.33361921493E+02 -0.53424970609E+01  0.18643124106E+02  0.38589197413E+02  0.00000000000E+00 0.  1.
         11    1    5    5    0    0  0.14911462880E+03 -0.21408165807E+02 -0.23129125949E+02  0.15240878765E+03  0.00000000000E+00 0.  1.
        -11    1    5    5    0    0  0.34059045791E+03 -0.19288750801E+03 -0.10438720340E+02  0.39155640418E+03  0.00000000000E+00 0. -1.
          3    1    6    6  503    0 -0.31946991168E+03  0.97768713878E+02  0.38390225947E+02  0.33629385265E+03  0.00000000000E+00 0. -1.
         -3    1    6    6    0  503 -0.30367232080E+02 -0.14771561496E+02  0.20175896694E+02  0.39337445527E+02  0.00000000000E+00 0.  1.
<mgrwt>
<rscale>  0 0.11349196E+04</rscale>
<asrwt>0</asrwt>
<pdfrwt beam="1">  1        2 0.94916342E-01 0.11349196E+04</pdfrwt>
<pdfrwt beam="2">  1       -1 0.80297592E-01 0.11349196E+04</pdfrwt>
<totfact> 0.84047193E+01</totfact>
</mgrwt>
</event>
<event>
12    6  0.1611689E-007  0.2704304E+04  0.7818608E-02  0.8333610E-01
         -1   -1    0    0    0  501 -0.00000000000E+00  0.00000000000E+00  0.20983666325E+04  0.20983666325E+04  0.00000000000E+00 0.  1.
          2   -1    0    0  501    0  0.00000000000E+00 -0.00000000000E+00 -0.87130369663E+03  0.87130369663E+03  0.00000000000E+00 0. -1.
         24    2    1    2    0    0 -0.50730310119E+03 -0.18091227800E+03  0.17282729449E+04  0.18119646895E+04  0.78758967764E+02 0.  0.
        254    2    1    2    0    0  0.50730310119E+03  0.18091227800E+03 -0.50121000909E+03  0.11577056396E+04  0.89385971270E+03 0.  0.
         23    2    4    4    0    0  0.48788412918E+03  0.48728613806E+03 -0.46652980163E+03  0.83751099820E+03  0.91081899691E+02 0.  0.
         23    2    4    4    0    0  0.19418972007E+02 -0.30637386006E+03 -0.34680207459E+02  0.32019464141E+03  0.84141862325E+02 0.  0.
          4    1    3    3  502    0 -0.10120855496E+03 -0.62875128821E+02  0.45257709650E+03  0.46799837788E+03  0.00000000000E+00 0. -1.
         -3    1    3    3    0  502 -0.40609454623E+03 -0.11803714918E+03  0.12756958484E+04  0.13439663116E+04  0.00000000000E+00 0.  1.
         11    1    5    5    0    0  0.31585933169E+03  0.37277106035E+03 -0.31674846123E+03  0.58228426781E+03  0.00000000000E+00 0. -1.
        -11    1    5    5    0    0  0.17202479749E+03  0.11451507772E+03 -0.14978134040E+03  0.25522673039E+03  0.00000000000E+00 0.  1.
          4    1    6    6  503    0  0.48038085270E+02 -0.25073030549E+03 -0.34583642395E+02  0.25762253793E+03  0.00000000000E+00 0. -1.
         -4    1    6    6    0  503 -0.28619113262E+02 -0.55643554572E+02 -0.96565063829E-01  0.62572103482E+02  0.00000000000E+00 0.  1.
<mgrwt>
<rscale>  0 0.27043037E+04</rscale>
<asrwt>0</asrwt>
<pdfrwt beam="1">  1        2 0.13404672E+00 0.27043037E+04</pdfrwt>
<pdfrwt beam="2">  1       -1 0.32282563E+00 0.27043037E+04</pdfrwt>
<totfact> 0.71948048E-01</totfact>
</mgrwt>
</event>
<event>
12    6  0.1611689E-007  0.1081591E+04  0.7818608E-02  0.9223322E-01
         -1   -1    0    0    0  501 -0.00000000000E+00  0.00000000000E+00  0.23471333130E+03  0.23471333130E+03  0.00000000000E+00 0.  1.
          2   -1    0    0  501    0  0.00000000000E+00 -0.00000000000E+00 -0.12460299229E+04  0.12460299229E+04  0.00000000000E+00 0. -1.
         24    2    1    2    0    0  0.76085025555E+02  0.87258623145E+02 -0.54222455404E+02  0.15207177639E+03  0.82357465219E+02 0.  0.
        254    2    1    2    0    0 -0.76085025555E+02 -0.87258623145E+02 -0.95709413624E+03  0.13286714779E+04  0.91429519960E+03 0.  0.
         23    2    4    4    0    0  0.13412509167E+03  0.25844989343E+03 -0.84650920299E+03  0.90000789267E+03  0.93008002364E+02 0.  0.
         23    2    4    4    0    0 -0.21021011722E+03 -0.34570851657E+03 -0.11058493325E+03  0.42866358518E+03  0.88435117362E+02 0.  0.
          2    1    3    3  502    0  0.43621743881E+02  0.97962373246E+01 -0.51276742285E+02  0.68030339587E+02  0.00000000000E+00 0. -1.
         -1    1    3    3    0  502  0.32463281674E+02  0.77462385820E+02 -0.29457131188E+01  0.84041436802E+02  0.00000000000E+00 0.  1.
         11    1    5    5    0    0  0.31349407477E+02  0.90974125361E+01 -0.56772066445E+02  0.65487523945E+02  0.00000000000E+00 0. -1.
        -11    1    5    5    0    0  0.10277568419E+03  0.24935248089E+03 -0.78973713654E+03  0.83452036873E+03  0.00000000000E+00 0.  1.
          2    1    6    6  503    0 -0.33133464497E+02 -0.27562900121E+02 -0.37859443142E+02  0.57366169191E+02  0.00000000000E+00 0. -1.
         -2    1    6    6    0  503 -0.17707665273E+03 -0.31814561645E+03 -0.72725490111E+02  0.37129741599E+03  0.00000000000E+00 0.  1.
<mgrwt>
<rscale>  0 0.10815911E+04</rscale>
<asrwt>0</asrwt>
<pdfrwt beam="1">  1        2 0.19169691E+00 0.10815911E+04</pdfrwt>
<pdfrwt beam="2">  1       -1 0.36109744E-01 0.10815911E+04</pdfrwt>
<totfact> 0.14764120E+02</totfact>
</mgrwt>
</event>
<event>
12    6  0.1611689E-007  0.1557276E+04  0.7818608E-02  0.8847234E-01
         -1   -1    0    0    0  501 -0.00000000000E+00  0.00000000000E+00  0.49279001481E+03  0.49279001481E+03  0.00000000000E+00 0.  1.
          2   -1    0    0  501    0  0.00000000000E+00 -0.00000000000E+00 -0.12302946123E+04  0.12302946123E+04  0.00000000000E+00 0. -1.
         24    2    1    2    0    0  0.42503436582E+03  0.28412973290E+03 -0.32196304800E+03  0.60936546357E+03  0.79259994118E+02 0.  0.
        254    2    1    2    0    0 -0.42503436582E+03 -0.28412973290E+03 -0.41554154947E+03  0.11137191635E+04  0.89794859461E+03 0.  0.
         23    2    4    4    0    0 -0.42208988577E+03 -0.10021800365E+03 -0.65927549771E+03  0.79507677524E+03  0.96433275957E+02 0.  0.
         23    2    4    4    0    0 -0.29444800498E+01 -0.18391172926E+03  0.24373394824E+03  0.31864238827E+03  0.91074364958E+02 0.  0.
          4    1    3    3  502    0  0.11187738851E+03  0.47465892491E+02 -0.47895676981E+02  0.13062755025E+03  0.00000000000E+00 0. -1.
         -3    1    3    3    0  502  0.31315697731E+03  0.23666384041E+03 -0.27406737102E+03  0.47873791332E+03  0.00000000000E+00 0.  1.
         11    1    5    5    0    0 -0.16282857755E+03 -0.33625872369E+02 -0.17266251411E+03  0.23970020596E+03  0.00000000000E+00 0. -1.
        -11    1    5    5    0    0 -0.25926130822E+03 -0.66592131277E+02 -0.48661298360E+03  0.55537656928E+03  0.00000000000E+00 0.  1.
          4    1    6    6  503    0 -0.16272986345E+02 -0.24381178365E+02  0.28998309284E+01  0.29456085321E+02  0.00000000000E+00 0. -1.
         -4    1    6    6    0  503  0.13328506295E+02 -0.15953055089E+03  0.24083411731E+03  0.28918630295E+03  0.00000000000E+00 0.  1.
<mgrwt>
<rscale>  0 0.15572757E+04</rscale>
<asrwt>0</asrwt>
<pdfrwt beam="1">  1        2 0.18927610E+00 0.15572757E+04</pdfrwt>
<pdfrwt beam="2">  1       -1 0.75813848E-01 0.15572757E+04</pdfrwt>
<totfact> 0.34838214E+01</totfact>
</mgrwt>
</event>
<event>
12    6  0.1611689E-007  0.2059473E+04  0.7818608E-02  0.8579309E-01
         -1   -1    0    0    0  501 -0.00000000000E+00  0.00000000000E+00  0.36199750670E+03  0.36199750670E+03  0.00000000000E+00 0.  1.
          2   -1    0    0  501    0  0.00000000000E+00 -0.00000000000E+00 -0.29291825273E+04  0.29291825273E+04  0.00000000000E+00 0. -1.
         24    2    1    2    0    0  0.44174847456E+02 -0.20599780555E+03  0.24728581487E+03  0.33442220183E+03  0.79381495347E+02 0.  0.
        254    2    1    2    0    0 -0.44174847456E+02  0.20599780555E+03 -0.28144708354E+04  0.29567578321E+04  0.88135366416E+03 0.  0.
         23    2    4    4    0    0 -0.15951483129E+03  0.38275603996E+03 -0.62662901791E+03  0.75684715221E+03  0.90589834992E+02 0.  0.
         23    2    4    4    0    0  0.11533998384E+03 -0.17675823441E+03 -0.21878418175E+04  0.21999106799E+04  0.91697305252E+02 0.  0.
          4    1    3    3  502    0  0.24919442268E+02 -0.79851782188E+01  0.27150133059E+02  0.37707710077E+02  0.00000000000E+00 0. -1.
         -3    1    3    3    0  502  0.19255405188E+02 -0.19801262733E+03  0.22013568181E+03  0.29671449175E+03  0.00000000000E+00 0.  1.
         11    1    5    5    0    0 -0.19845354404E+02  0.50411691848E+01 -0.44655083438E+02  0.49125634398E+02  0.00000000000E+00 0.  1.
        -11    1    5    5    0    0 -0.13966947689E+03  0.37771487078E+03 -0.58197393447E+03  0.70772151782E+03  0.00000000000E+00 0. -1.
          3    1    6    6  503    0  0.95329653836E+02 -0.14007078950E+03 -0.20140851839E+04  0.20211993214E+04  0.00000000000E+00 0. -1.
         -3    1    6    6    0  503  0.20010330001E+02 -0.36687444911E+02 -0.17375663366E+03  0.17871135852E+03  0.00000000000E+00 0.  1.
<mgrwt>
<rscale>  0 0.20594725E+04</rscale>
<asrwt>0</asrwt>
<pdfrwt beam="1">  1        2 0.45064345E+00 0.20594725E+04</pdfrwt>
<pdfrwt beam="2">  1       -1 0.55691926E-01 0.20594725E+04</pdfrwt>
<totfact> 0.66249525E+00</totfact>
</mgrwt>
</event>
<event>
12    6  0.1611689E-007  0.3154716E+04  0.7818608E-02  0.8200880E-01
         -1   -1    0    0    0  501 -0.00000000000E+00  0.00000000000E+00  0.11748947767E+04  0.11748947767E+04  0.00000000000E+00 0.  1.
          2   -1    0    0  501    0  0.00000000000E+00 -0.00000000000E+00 -0.21176854311E+04  0.21176854311E+04  0.00000000000E+00 0. -1.
         24    2    1    2    0    0 -0.13973893850E+04 -0.37870837025E+03 -0.39903812928E+03  0.15039334769E+04  0.80419844350E+02 0.  0.
        254    2    1    2    0    0  0.13973893850E+04  0.37870837025E+03 -0.54375252505E+03  0.17886467309E+04  0.89859512364E+03 0.  0.
         23    2    4    4    0    0  0.11750173236E+04  0.95423255663E+02 -0.67911408629E+02  0.11842837933E+04  0.90248740661E+02 0.  0.
         23    2    4    4    0    0  0.22237206143E+03  0.28328511459E+03 -0.47584111642E+03  0.60436293755E+03  0.95551045816E+02 0.  0.
          2    1    3    3  502    0 -0.65062000605E+03 -0.19995174824E+03 -0.15327345548E+03  0.69769609863E+03  0.00000000000E+00 0. -1.
         -1    1    3    3    0  502 -0.74676937898E+03 -0.17875662201E+03 -0.24576467381E+03  0.80623737831E+03  0.00000000000E+00 0.  1.
         11    1    5    5    0    0  0.57180603254E+03  0.59258423711E+02  0.10220651578E+02  0.57495926929E+03  0.00000000000E+00 0.  1.
        -11    1    5    5    0    0  0.60321129106E+03  0.36164831952E+02 -0.78132060207E+02  0.60932452402E+03  0.00000000000E+00 0. -1.
          1    1    6    6  503    0  0.28353109911E+02  0.10461883918E+03 -0.15239455540E+03  0.18701096457E+03  0.00000000000E+00 0. -1.
         -1    1    6    6    0  503  0.19401895152E+03  0.17866627541E+03 -0.32344656102E+03  0.41735197298E+03  0.00000000000E+00 0.  1.
<mgrwt>
<rscale>  0 0.31547156E+04</rscale>
<asrwt>0</asrwt>
<pdfrwt beam="1">  1        2 0.32579775E+00 0.31547156E+04</pdfrwt>
<pdfrwt beam="2">  1       -1 0.18075305E+00 0.31547156E+04</pdfrwt>
<totfact> 0.11346398E+00</totfact>
</mgrwt>
</event>
<event>
12    6  0.1611689E-007  0.1620013E+04  0.7818608E-02  0.8808347E-01
         -1   -1    0    0    0  501 -0.00000000000E+00  0.00000000000E+00  0.10282230006E+04  0.10282230006E+04  0.00000000000E+00 0.  1.
          2   -1    0    0  501    0  0.00000000000E+00 -0.00000000000E+00 -0.63810130999E+03  0.63810130999E+03  0.00000000000E+00 0. -1.
         24    2    1    2    0    0 -0.57991856596E+02 -0.16041519948E+02 -0.43249829455E+03  0.44275582193E+03  0.73195336396E+02 0.  0.
        254    2    1    2    0    0  0.57991856596E+02  0.16041519948E+02  0.82261998518E+03  0.12235684887E+04  0.90376757006E+03 0.  0.
         23    2    4    4    0    0 -0.31944285993E+03 -0.20488364704E+03  0.15341648666E+03  0.41963445776E+03  0.92387283620E+02 0.  0.
         23    2    4    4    0    0  0.37743471652E+03  0.22092516699E+03  0.66920349852E+03  0.80393403093E+03  0.84921781641E+02 0.  0.
          4    1    3    3  502    0 -0.27046160342E+02 -0.40090564088E+02 -0.31983248186E+03  0.32346802712E+03  0.00000000000E+00 0. -1.
         -3    1    3    3    0  502 -0.30945696254E+02  0.24049044140E+02 -0.11266581269E+03  0.11928779481E+03  0.00000000000E+00 0.  1.
         11    1    5    5    0    0  0.56971672251E+01  0.11024749340E-01 -0.33090069700E+00  0.57067794076E+01  0.00000000000E+00 0. -1.
        -11    1    5    5    0    0 -0.32514002715E+03 -0.20489467179E+03  0.15374738735E+03  0.41392767835E+03  0.00000000000E+00 0.  1.
          2    1    6    6  503    0  0.28122883570E+03  0.13100322066E+03  0.42106745342E+03  0.52301940899E+03  0.00000000000E+00 0. -1.
         -2    1    6    6    0  503  0.96205880826E+02  0.89921946325E+02  0.24813604511E+03  0.28091462193E+03  0.00000000000E+00 0.  1.
<mgrwt>
<rscale>  0 0.16200129E+04</rscale>
<asrwt>0</asrwt>
<pdfrwt beam="1">  1        2 0.98169433E-01 0.16200129E+04</pdfrwt>
<pdfrwt beam="2">  1       -1 0.15818815E+00 0.16200129E+04</pdfrwt>
<totfact> 0.15177879E+01</totfact>
</mgrwt>
</event>
<event>
12    6  0.1611689E-007  0.1138390E+04  0.7818608E-02  0.9168561E-01
         -1   -1    0    0    0  501 -0.00000000000E+00  0.00000000000E+00  0.48663235411E+03  0.48663235411E+03  0.00000000000E+00 0.  1.
          2   -1    0    0  501    0  0.00000000000E+00 -0.00000000000E+00 -0.66576556432E+03  0.66576556432E+03  0.00000000000E+00 0. -1.
         24    2    1    2    0    0  0.17209802087E+01  0.20060305539E+03 -0.48145973628E+01  0.21633029383E+03  0.80815023830E+02 0.  0.
        254    2    1    2    0    0 -0.17209802087E+01 -0.20060305539E+03 -0.17431861284E+03  0.93606762461E+03  0.89754725304E+03 0.  0.
         23    2    4    4    0    0 -0.28027087800E+03  0.11909585351E+03 -0.34596298252E+03  0.46975914303E+03  0.90816737506E+02 0.  0.
         23    2    4    4    0    0  0.27854989779E+03 -0.31969890890E+03  0.17164436968E+03  0.46630848157E+03  0.90467521433E+02 0.  0.
          4    1    3    3  502    0  0.30523712255E+01  0.20615385133E+03 -0.12732581065E+02  0.20656922813E+03  0.00000000000E+00 0. -1.
         -3    1    3    3    0  502 -0.13313910168E+01 -0.55507959455E+01  0.79179837026E+01  0.97610656991E+01  0.00000000000E+00 0.  1.
         11    1    5    5    0    0 -0.46924259464E+02  0.46115684361E+02 -0.36069037082E+02  0.75030113331E+02  0.00000000000E+00 0.  1.
        -11    1    5    5    0    0 -0.23334661854E+03  0.72980169148E+02 -0.30989394544E+03  0.39472902970E+03  0.00000000000E+00 0. -1.
          1    1    6    6  503    0  0.26645789895E+03 -0.32386609590E+03  0.15957827311E+03  0.44872517785E+03  0.00000000000E+00 0. -1.
         -1    1    6    6    0  503  0.12091998842E+02  0.41671870006E+01  0.12066096570E+02  0.17583303726E+02  0.00000000000E+00 0.  1.
<mgrwt>
<rscale>  0 0.11383902E+04</rscale>
<asrwt>0</asrwt>
<pdfrwt beam="1">  1        2 0.10242547E+00 0.11383902E+04</pdfrwt>
<pdfrwt beam="2">  1       -1 0.74866516E-01 0.11383902E+04</pdfrwt>
<totfact> 0.88666533E+01</totfact>
</mgrwt>
</event>
<event>
12    6  0.1611689E-007  0.1480990E+04  0.7818608E-02  0.8897194E-01
          2   -1    0    0  501    0  0.00000000000E+00  0.00000000000E+00  0.10054129221E+04  0.10054129221E+04  0.00000000000E+00 0. -1.
         -1   -1    0    0    0  501 -0.00000000000E+00 -0.00000000000E+00 -0.54538083485E+03  0.54538083485E+03  0.00000000000E+00 0.  1.
         24    2    1    2    0    0  0.24885081281E+03 -0.36705655690E+03  0.24700145931E+03  0.51490083023E+03  0.86347559723E+02 0.  0.
        254    2    1    2    0    0 -0.24885081281E+03  0.36705655690E+03  0.21303062790E+03  0.10358929267E+04  0.91161113646E+03 0.  0.
         23    2    4    4    0    0 -0.45876364379E+03  0.31468631610E+03 -0.16823318852E+03  0.58833367296E+03  0.91337542222E+02 0.  0.
         23    2    4    4    0    0  0.20991283098E+03  0.52370240794E+02  0.38126381641E+03  0.44755925371E+03  0.90228316770E+02 0.  0.
          2    1    3    3  502    0  0.12011721823E+03 -0.12763201519E+03  0.13349694992E+03  0.22031684696E+03  0.00000000000E+00 0. -1.
         -1    1    3    3    0  502  0.12873359458E+03 -0.23942454171E+03  0.11350450939E+03  0.29458398327E+03  0.00000000000E+00 0.  1.
         11    1    5    5    0    0 -0.43760087907E+03  0.29490074209E+03 -0.17929586255E+03  0.55732215403E+03  0.00000000000E+00 0.  1.
        -11    1    5    5    0    0 -0.21162764721E+02  0.19785574013E+02  0.11062674035E+02  0.31011518932E+02  0.00000000000E+00 0. -1.
          4    1    6    6  503    0  0.13778125967E+03  0.15411919262E+02  0.15887186323E+03  0.21085889049E+03  0.00000000000E+00 0. -1.
         -4    1    6    6    0  503  0.72131571307E+02  0.36958321533E+02  0.22239195318E+03  0.23670036322E+03  0.00000000000E+00 0.  1.
<mgrwt>
<rscale>  0 0.14809901E+04</rscale>
<asrwt>0</asrwt>
<pdfrwt beam="1">  1        2 0.15467891E+00 0.14809901E+04</pdfrwt>
<pdfrwt beam="2">  1       -1 0.83904744E-01 0.14809901E+04</pdfrwt>
<totfact> 0.38850125E+01</totfact>
</mgrwt>
</event>
<event>
12    6  0.1611689E-007  0.2341098E+04  0.7818608E-02  0.8461891E-01
          2   -1    0    0  501    0  0.00000000000E+00  0.00000000000E+00  0.15488795638E+04  0.15488795638E+04  0.00000000000E+00 0. -1.
         -1   -1    0    0    0  501 -0.00000000000E+00 -0.00000000000E+00 -0.88462996436E+03  0.88462996436E+03  0.00000000000E+00 0.  1.
         24    2    1    2    0    0  0.22731663428E+03  0.80660712035E+03 -0.27855519867E+03  0.88672088527E+03  0.79956430868E+02 0.  0.
        254    2    1    2    0    0 -0.22731663428E+03 -0.80660712035E+03  0.94280479812E+03  0.15467886429E+04  0.89520183180E+03 0.  0.
         23    2    4    4    0    0  0.24979084688E+02 -0.90931499492E+03  0.57412704846E+03  0.10795696488E+04  0.91493410959E+02 0.  0.
         23    2    4    4    0    0 -0.25229571897E+03  0.10270787457E+03  0.36867774965E+03  0.46721899407E+03  0.90378471002E+02 0.  0.
          4    1    3    3  502    0  0.80517130137E+02  0.25093266399E+03 -0.50165188092E+02  0.26826620398E+03  0.00000000000E+00 0. -1.
         -3    1    3    3    0  502  0.14679950414E+03  0.55567445636E+03 -0.22839001058E+03  0.61845468129E+03  0.00000000000E+00 0.  1.
         11    1    5    5    0    0 -0.19116716006E+02 -0.49906309655E+03  0.35154250349E+03  0.61074671913E+03  0.00000000000E+00 0.  1.
        -11    1    5    5    0    0  0.44095800694E+02 -0.41025189837E+03  0.22258454498E+03  0.46882292971E+03  0.00000000000E+00 0. -1.
          2    1    6    6  503    0 -0.49584267658E+01  0.75396562816E+01 -0.40411154790E+01  0.98875187560E+01  0.00000000000E+00 0. -1.
         -2    1    6    6    0  503 -0.24733729220E+03  0.95168218290E+02  0.37271886513E+03  0.45733147531E+03  0.00000000000E+00 0.  1.
<mgrwt>
<rscale>  0 0.23410983E+04</rscale>
<asrwt>0</asrwt>
<pdfrwt beam="1">  1        2 0.23828916E+00 0.23410983E+04</pdfrwt>
<pdfrwt beam="2">  1       -1 0.13609692E+00 0.23410983E+04</pdfrwt>
<totfact> 0.55317385E+00</totfact>
</mgrwt>
</event>
<event>
12    6  0.1611689E-007  0.1298747E+04  0.7818608E-02  0.9030559E-01
          2   -1    0    0  501    0  0.00000000000E+00  0.00000000000E+00  0.17184081512E+04  0.17184081512E+04  0.00000000000E+00 0. -1.
         -1   -1    0    0    0  501 -0.00000000000E+00 -0.00000000000E+00 -0.24539335944E+03  0.24539335944E+03  0.00000000000E+00 0.  1.
         24    2    1    2    0    0  0.31562081177E+01  0.29119519719E+03  0.55384624185E+03  0.63104947666E+03  0.81689521183E+02 0.  0.
        254    2    1    2    0    0 -0.31562081177E+01 -0.29119519719E+03  0.91916854991E+03  0.13327520340E+04  0.92008290736E+03 0.  0.
         23    2    4    4    0    0  0.37071784420E+03 -0.30727786404E+03  0.22585217618E+03  0.54065103107E+03  0.97174719817E+02 0.  0.
         23    2    4    4    0    0 -0.37387405232E+03  0.16082666849E+02  0.69331637373E+03  0.79210100291E+03  0.81828757523E+02 0.  0.
          2    1    3    3  502    0 -0.37602679845E+02  0.10585848957E+03  0.22075457193E+03  0.24769449403E+03  0.00000000000E+00 0. -1.
         -1    1    3    3    0  502  0.40758887963E+02  0.18533670762E+03  0.33309166992E+03  0.38335498263E+03  0.00000000000E+00 0.  1.
         11    1    5    5    0    0  0.15674666365E+03 -0.18810966500E+03  0.92208422839E+02  0.26164318427E+03  0.00000000000E+00 0. -1.
        -11    1    5    5    0    0  0.21397118055E+03 -0.11916819904E+03  0.13364375334E+03  0.27900784680E+03  0.00000000000E+00 0.  1.
          2    1    6    6  503    0 -0.24262407592E+03  0.48113867137E+02  0.46945713951E+03  0.53063301091E+03  0.00000000000E+00 0. -1.
         -2    1    6    6    0  503 -0.13124997640E+03 -0.32031200287E+02  0.22385923422E+03  0.26146799201E+03  0.00000000000E+00 0.  1.
<mgrwt>
<rscale>  0 0.12987470E+04</rscale>
<asrwt>0</asrwt>
<pdfrwt beam="1">  1        2 0.26437048E+00 0.12987470E+04</pdfrwt>
<pdfrwt beam="2">  1       -1 0.37752825E-01 0.12987470E+04</pdfrwt>
<totfact> 0.72395843E+01</totfact>
</mgrwt>
</event>
<event>
12    6  0.1611689E-007  0.1248343E+04  0.7818608E-02  0.9071563E-01
          2   -1    0    0  501    0  0.00000000000E+00  0.00000000000E+00  0.41666298140E+03  0.41666298140E+03  0.00000000000E+00 0. -1.
         -1   -1    0    0    0  501 -0.00000000000E+00 -0.00000000000E+00 -0.93502484467E+03  0.93502484467E+03  0.00000000000E+00 0.  1.
         24    2    1    2    0    0  0.47140294459E+01  0.94524858371E+01  0.18291425225E+03  0.20033533675E+03  0.81025007944E+02 0.  0.
        254    2    1    2    0    0 -0.47140294459E+01 -0.94524858371E+01 -0.70127611552E+03  0.11513524893E+04  0.91307874407E+03 0.  0.
         23    2    4    4    0    0 -0.31003523675E+03 -0.32049136838E+03 -0.26250364191E+03  0.52597896630E+03  0.94388271172E+02 0.  0.
         23    2    4    4    0    0  0.30532120731E+03  0.31103888254E+03 -0.43877247361E+03  0.62537352302E+03  0.92760625321E+02 0.  0.
          4    1    3    3  502    0 -0.22676541441E+02  0.21804161780E+02  0.15858100587E+03  0.16167121706E+03  0.00000000000E+00 0. -1.
         -3    1    3    3    0  502  0.27390570887E+02 -0.12351675943E+02  0.24333246384E+02  0.38664119694E+02  0.00000000000E+00 0.  1.
         11    1    5    5    0    0 -0.14778417232E+03 -0.21751064530E+03 -0.16550499598E+03  0.31071360785E+03  0.00000000000E+00 0. -1.
        -11    1    5    5    0    0 -0.16225106443E+03 -0.10298072308E+03 -0.96998645933E+02  0.21526535845E+03  0.00000000000E+00 0.  1.
          3    1    6    6  503    0  0.20388470720E+03  0.23734462203E+03 -0.36145582221E+03  0.47807086802E+03  0.00000000000E+00 0. -1.
         -3    1    6    6    0  503  0.10143650011E+03  0.73694260507E+02 -0.77316651397E+02  0.14730265500E+03  0.00000000000E+00 0.  1.
<mgrwt>
<rscale>  0 0.12483433E+04</rscale>
<asrwt>0</asrwt>
<pdfrwt beam="1">  1        2 0.64101997E-01 0.12483433E+04</pdfrwt>
<pdfrwt beam="2">  1       -1 0.14384998E+00 0.12483433E+04</pdfrwt>
<totfact> 0.33354915E+01</totfact>
</mgrwt>
</event>
<event>
12    6  0.1611689E-007  0.1652655E+04  0.7818608E-02  0.8788837E-01
         -1   -1    0    0    0  501 -0.00000000000E+00  0.00000000000E+00  0.37626491561E+03  0.37626491561E+03  0.00000000000E+00 0.  1.
          2   -1    0    0  501    0  0.00000000000E+00 -0.00000000000E+00 -0.18147243432E+04  0.18147243432E+04  0.00000000000E+00 0. -1.
         24    2    1    2    0    0  0.32984618541E+03  0.28991900119E+03 -0.10100189095E+04  0.11042477262E+04  0.79833013093E+02 0.  0.
        254    2    1    2    0    0 -0.32984618541E+03 -0.28991900119E+03 -0.42844051812E+03  0.10867415326E+04  0.89699183269E+03 0.  0.
         23    2    4    4    0    0  0.26542151433E+03 -0.24823243155E+03 -0.27302913644E+03  0.46347723418E+03  0.90544557637E+02 0.  0.
         23    2    4    4    0    0 -0.59526769974E+03 -0.41686569637E+02 -0.15541138168E+03  0.62326429845E+03  0.90687836728E+02 0.  0.
          2    1    3    3  502    0  0.29627774710E+03  0.22324086173E+03 -0.81616462025E+03  0.89651640985E+03  0.00000000000E+00 0. -1.
         -1    1    3    3    0  502  0.33568438315E+02  0.66678139462E+02 -0.19385428926E+03  0.20773131636E+03  0.00000000000E+00 0.  1.
         11    1    5    5    0    0  0.15639131584E+03 -0.15768810637E+03 -0.11123635410E+03  0.24838943020E+03  0.00000000000E+00 0.  1.
        -11    1    5    5    0    0  0.10903019848E+03 -0.90544325187E+02 -0.16179278234E+03  0.21508780398E+03  0.00000000000E+00 0. -1.
          2    1    6    6  503    0 -0.33812872455E+03 -0.12834271926E+02 -0.42797770134E+02  0.34106803138E+03  0.00000000000E+00 0. -1.
         -2    1    6    6    0  503 -0.25713897519E+03 -0.28852297710E+02 -0.11261361155E+03  0.28219626708E+03  0.00000000000E+00 0.  1.
<mgrwt>
<rscale>  0 0.16526550E+04</rscale>
<asrwt>0</asrwt>
<pdfrwt beam="1">  1        2 0.27918836E+00 0.16526550E+04</pdfrwt>
<pdfrwt beam="2">  1       -1 0.57886910E-01 0.16526550E+04</pdfrwt>
<totfact> 0.27849784E+01</totfact>
</mgrwt>
</event>
<event>
12    6  0.1611689E-007  0.1548283E+04  0.7818608E-02  0.8852965E-01
          2   -1    0    0  501    0  0.00000000000E+00  0.00000000000E+00  0.34672924541E+03  0.34672924541E+03  0.00000000000E+00 0. -1.
         -1   -1    0    0    0  501 -0.00000000000E+00 -0.00000000000E+00 -0.17284239442E+04  0.17284239442E+04  0.00000000000E+00 0.  1.
         24    2    1    2    0    0  0.25923271603E+03 -0.54727270398E+02 -0.10361261027E+04  0.10724193403E+04  0.79556681701E+02 0.  0.
        254    2    1    2    0    0 -0.25923271603E+03  0.54727270398E+02 -0.34556859611E+03  0.10027338493E+04  0.90325015514E+03 0.  0.
         23    2    4    4    0    0  0.60726981907E+02  0.27451104608E+03  0.17768830744E+03  0.34459341096E+03  0.90152113269E+02 0.  0.
         23    2    4    4    0    0 -0.31995969794E+03 -0.21978377569E+03 -0.52325690355E+03  0.65814043835E+03  0.93123214732E+02 0.  0.
          2    1    3    3  502    0  0.91783042675E+02  0.10256199119E+01 -0.48875830957E+03  0.49730258796E+03  0.00000000000E+00 0. -1.
         -1    1    3    3    0  502  0.16744967336E+03 -0.55752890310E+02 -0.54736779316E+03  0.57511675238E+03  0.00000000000E+00 0.  1.
         11    1    5    5    0    0 -0.12349563513E+02  0.15056218839E+03  0.83327742191E+02  0.17252535150E+03  0.00000000000E+00 0. -1.
        -11    1    5    5    0    0  0.73076545420E+02  0.12394885769E+03  0.94360565248E+02  0.17206805946E+03  0.00000000000E+00 0.  1.
          2    1    6    6  503    0 -0.19509237777E+03 -0.13773084288E+03 -0.39325528703E+03  0.46008753702E+03  0.00000000000E+00 0. -1.
         -2    1    6    6    0  503 -0.12486732017E+03 -0.82052932801E+02 -0.13000161652E+03  0.19805290133E+03  0.00000000000E+00 0.  1.
<mgrwt>
<rscale>  0 0.15482831E+04</rscale>
<asrwt>0</asrwt>
<pdfrwt beam="1">  1        2 0.53342962E-01 0.15482831E+04</pdfrwt>
<pdfrwt beam="2">  1       -1 0.26591137E+00 0.15482831E+04</pdfrwt>
<totfact> 0.56565732E+00</totfact>
</mgrwt>
</event>
<event>
12    6  0.1611689E-007  0.1615298E+04  0.7818608E-02  0.8811205E-01
          2   -1    0    0  501    0  0.00000000000E+00  0.00000000000E+00  0.15557524621E+04  0.15557524621E+04  0.00000000000E+00 0. -1.
         -1   -1    0    0    0  501 -0.00000000000E+00 -0.00000000000E+00 -0.41928053022E+03  0.41928053022E+03  0.00000000000E+00 0.  1.
         24    2    1    2    0    0  0.53932315744E+03  0.64436416478E+02  0.53933360257E+03  0.76941061681E+03  0.78041286979E+02 0.  0.
        254    2    1    2    0    0 -0.53932315744E+03 -0.64436416478E+02  0.59713832930E+03  0.12056223755E+04  0.89550522504E+03 0.  0.
         23    2    4    4    0    0 -0.56865088514E+03  0.21185288712E+03  0.66541541678E+03  0.90509313416E+03  0.90390429002E+02 0.  0.
         23    2    4    4    0    0  0.29327727704E+02 -0.27628930360E+03 -0.68277087473E+02  0.30052924135E+03  0.91979178810E+02 0.  0.
          2    1    3    3  502    0  0.34476265907E+03  0.69850011362E+02  0.38051445429E+03  0.51820031368E+03  0.00000000000E+00 0. -1.
         -1    1    3    3    0  502  0.19456049837E+03 -0.54135948840E+01  0.15881914828E+03  0.25121030313E+03  0.00000000000E+00 0.  1.
         11    1    5    5    0    0 -0.14710059497E+03  0.75128843772E+02  0.13089816991E+03  0.21075402509E+03  0.00000000000E+00 0.  1.
        -11    1    5    5    0    0 -0.42155029018E+03  0.13672404335E+03  0.53451724687E+03  0.69433910907E+03  0.00000000000E+00 0. -1.
          2    1    6    6  503    0  0.20185628221E+02 -0.24208888471E+03 -0.89919383181E+02  0.25903664444E+03  0.00000000000E+00 0. -1.
         -2    1    6    6    0  503  0.91420994832E+01 -0.34200418886E+02  0.21642295708E+02  0.41492596911E+02  0.00000000000E+00 0.  1.
<mgrwt>
<rscale>  0 0.16152978E+04</rscale>
<asrwt>0</asrwt>
<pdfrwt beam="1">  1        2 0.23934653E+00 0.16152978E+04</pdfrwt>
<pdfrwt beam="2">  1       -1 0.64504697E-01 0.16152978E+04</pdfrwt>
<totfact> 0.31403143E+01</totfact>
</mgrwt>
</event>
<event>
12    6  0.1611689E-007  0.2616244E+04  0.7818608E-02  0.8362704E-01
         -1   -1    0    0    0  501 -0.00000000000E+00  0.00000000000E+00  0.49542105947E+03  0.49542105947E+03  0.00000000000E+00 0.  1.
          2   -1    0    0  501    0  0.00000000000E+00 -0.00000000000E+00 -0.34539966177E+04  0.34539966177E+04  0.00000000000E+00 0. -1.
         24    2    1    2    0    0  0.27424676365E+02 -0.16698073649E+03 -0.30242604907E+04  0.30300281222E+04  0.79273113293E+02 0.  0.
        254    2    1    2    0    0 -0.27424676365E+02  0.16698073649E+03  0.65684932456E+02  0.91938955498E+03  0.90129238553E+03 0.  0.
         23    2    4    4    0    0 -0.13994198246E+03  0.20639456226E+03  0.44130500359E+03  0.51537264617E+03  0.93147111819E+02 0.  0.
         23    2    4    4    0    0  0.11251730609E+03 -0.39413825768E+02 -0.37562007113E+03  0.40401690881E+03  0.89026012690E+02 0.  0.
          2    1    3    3  502    0 -0.13699195127E+01 -0.32866666782E+02 -0.12651791552E+04  0.12656067277E+04  0.00000000000E+00 0. -1.
         -1    1    3    3    0  502  0.28794595877E+02 -0.13411406971E+03 -0.17590813355E+04  0.17644213945E+04  0.00000000000E+00 0.  1.
         11    1    5    5    0    0 -0.13847179731E+03  0.17077437697E+03  0.41938888115E+03  0.47352440286E+03  0.00000000000E+00 0.  1.
        -11    1    5    5    0    0 -0.14701851450E+01  0.35620185291E+02  0.21916122443E+02  0.41848243302E+02  0.00000000000E+00 0. -1.
          1    1    6    6  503    0  0.32649490637E+02 -0.56161788124E+02 -0.20170390375E+03  0.21190705622E+03  0.00000000000E+00 0. -1.
         -1    1    6    6    0  503  0.79867815456E+02  0.16747962356E+02 -0.17391616738E+03  0.19210985260E+03  0.00000000000E+00 0.  1.
<mgrwt>
<rscale>  0 0.26162436E+04</rscale>
<asrwt>0</asrwt>
<pdfrwt beam="1">  1        2 0.53138410E+00 0.26162436E+04</pdfrwt>
<pdfrwt beam="2">  1       -1 0.76218624E-01 0.26162436E+04</pdfrwt>
<totfact> 0.15201520E+00</totfact>
</mgrwt>
</event>
<event>
12    6  0.1611689E-007  0.2259745E+04  0.7818608E-02  0.8493964E-01
          2   -1    0    0  501    0  0.00000000000E+00  0.00000000000E+00  0.18129855279E+04  0.18129855279E+04  0.00000000000E+00 0. -1.
         -1   -1    0    0    0  501 -0.00000000000E+00 -0.00000000000E+00 -0.70414912675E+03  0.70414912675E+03  0.00000000000E+00 0.  1.
         24    2    1    2    0    0 -0.58677579842E+03 -0.11094714513E+03  0.12782096891E+04  0.14131447112E+04  0.80887939895E+02 0.  0.
        254    2    1    2    0    0  0.58677579842E+03  0.11094714513E+03 -0.16937328793E+03  0.11039899435E+04  0.91295748971E+03 0.  0.
         23    2    4    4    0    0  0.58724922728E+02  0.40977396437E+03  0.98868225040E+02  0.43436743902E+03  0.86814905055E+02 0.  0.
         23    2    4    4    0    0  0.52805087570E+03 -0.29882681923E+03 -0.26824151297E+03  0.66962250446E+03  0.91135031606E+02 0.  0.
          4    1    3    3  502    0 -0.28889355301E+03 -0.22073445532E+02  0.67473126648E+03  0.73430852095E+03  0.00000000000E+00 0. -1.
         -3    1    3    3    0  502 -0.29788224541E+03 -0.88873699602E+02  0.60347842259E+03  0.67883619021E+03  0.00000000000E+00 0.  1.
         11    1    5    5    0    0 -0.20953816182E+02  0.49212165205E+02  0.17183024299E+02  0.56179675514E+02  0.00000000000E+00 0. -1.
        -11    1    5    5    0    0  0.79678738910E+02  0.36056179916E+03  0.81685200741E+02  0.37818776351E+03  0.00000000000E+00 0.  1.
          4    1    6    6  503    0  0.30044703901E+02 -0.28749959376E+02 -0.43409903069E+02  0.60113759499E+02  0.00000000000E+00 0. -1.
         -4    1    6    6    0  503  0.49800617180E+03 -0.27007685986E+03 -0.22483160990E+03  0.60950874496E+03  0.00000000000E+00 0.  1.
<mgrwt>
<rscale>  0 0.22597453E+04</rscale>
<asrwt>0</asrwt>
<pdfrwt beam="1">  1        2 0.27892085E+00 0.22597453E+04</pdfrwt>
<pdfrwt beam="2">  1       -1 0.10833064E+00 0.22597453E+04</pdfrwt>
<totfact> 0.69535958E+00</totfact>
</mgrwt>
</event>
<event>
12    6  0.1611689E-007  0.1524447E+04  0.7818608E-02  0.8868357E-01
         -1   -1    0    0    0  501 -0.00000000000E+00  0.00000000000E+00  0.16813339656E+03  0.16813339656E+03  0.00000000000E+00 0.  1.
          2   -1    0    0  501    0  0.00000000000E+00 -0.00000000000E+00 -0.34554965402E+04  0.34554965402E+04  0.00000000000E+00 0. -1.
         24    2    1    2    0    0  0.42998019872E+03  0.41987885901E+02 -0.51380485790E+03  0.67691779593E+03  0.87042039258E+02 0.  0.
        254    2    1    2    0    0 -0.42998019872E+03 -0.41987885901E+02 -0.27735582857E+04  0.29467121408E+04  0.89657176098E+03 0.  0.
         23    2    4    4    0    0  0.45036013834E+02 -0.38482254134E+03 -0.98289694911E+03  0.10604490059E+04  0.91373140411E+02 0.  0.
         23    2    4    4    0    0 -0.47501621255E+03  0.34283465543E+03 -0.17906613366E+04  0.18862631348E+04  0.91348718124E+02 0.  0.
          4    1    3    3  502    0  0.16894172683E+03  0.27971386016E+01 -0.26431951087E+03  0.31370995342E+03  0.00000000000E+00 0. -1.
         -3    1    3    3    0  502  0.26103847189E+03  0.39190747300E+02 -0.24948534703E+03  0.36320784251E+03  0.00000000000E+00 0.  1.
         11    1    5    5    0    0  0.40579950453E+02 -0.14560305672E+03 -0.28379123833E+03  0.32153452297E+03  0.00000000000E+00 0. -1.
        -11    1    5    5    0    0  0.44560633814E+01 -0.23921948461E+03 -0.69910571078E+03  0.73891448298E+03  0.00000000000E+00 0.  1.
          1    1    6    6  503    0 -0.34547311407E+03  0.26647198902E+03 -0.14419011840E+04  0.15064654055E+04  0.00000000000E+00 0. -1.
         -1    1    6    6    0  503 -0.12954309848E+03  0.76362666415E+02 -0.34876015258E+03  0.37979772935E+03  0.00000000000E+00 0.  1.
<mgrwt>
<rscale>  0 0.15244466E+04</rscale>
<asrwt>0</asrwt>
<pdfrwt beam="1">  1        2 0.53161485E+00 0.15244466E+04</pdfrwt>
<pdfrwt beam="2">  1       -1 0.25866677E-01 0.15244466E+04</pdfrwt>
<totfact> 0.12829948E+01</totfact>
</mgrwt>
</event>
<event>
12    6  0.1702417E-007  0.1735791E+04  0.7818608E-02  0.8741210E-01
         -1   -1    0    0    0  501 -0.00000000000E+00  0.00000000000E+00  0.31435348494E+03  0.31435348494E+03  0.00000000000E+00 0.  1.
          2   -1    0    0  501    0  0.00000000000E+00 -0.00000000000E+00 -0.23961653233E+04  0.23961653233E+04  0.00000000000E+00 0. -1.
         24    2    1    2    0    0 -0.13776024724E+03  0.39170415430E+03 -0.21420634000E+02  0.42287680360E+03  0.77174589378E+02 0.  0.
        254    2    1    2    0    0  0.13776024724E+03 -0.39170415430E+03 -0.20603912044E+04  0.22876420046E+04  0.90315225524E+03 0.  0.
         23    2    4    4    0    0  0.22446472962E+02  0.21356420071E+03 -0.14788803445E+03  0.27644234821E+03  0.91847641100E+02 0.  0.
         23    2    4    4    0    0  0.11531377428E+03 -0.60526835500E+03 -0.19125031699E+04  0.20111996564E+04  0.87227490021E+02 0.  0.
          2    1    3    3  502    0  0.84447818958E+01  0.10658051246E+02  0.33122688589E+01  0.13995696575E+02  0.00000000000E+00 0. -1.
         -1    1    3    3    0  502 -0.14620502914E+03  0.38104610305E+03 -0.24732902859E+02  0.40888110702E+03  0.00000000000E+00 0.  1.
         11    1    5    5    0    0  0.40198473342E+01  0.10448991755E+03 -0.18462512948E+02  0.10618458658E+03  0.00000000000E+00 0. -1.
        -11    1    5    5    0    0  0.18426625628E+02  0.10907428316E+03 -0.12942552151E+03  0.17025776163E+03  0.00000000000E+00 0.  1.
          1    1    6    6  503    0  0.38219068351E+02 -0.10462059114E+03 -0.44515096358E+03  0.45887421550E+03  0.00000000000E+00 0. -1.
         -1    1    6    6    0  503  0.77094705930E+02 -0.50064776386E+03 -0.14673522063E+04  0.15523254409E+04  0.00000000000E+00 0.  1.
<mgrwt>
<rscale>  0 0.17357914E+04</rscale>
<asrwt>0</asrwt>
<pdfrwt beam="1">  1        2 0.36864081E+00 0.17357914E+04</pdfrwt>
<pdfrwt beam="2">  1       -1 0.48362076E-01 0.17357914E+04</pdfrwt>
<totfact> 0.18481140E+01</totfact>
</mgrwt>
</event>
<event>
12    6  0.1611689E-007  0.1395063E+04  0.7818608E-02  0.8957400E-01
          2   -1    0    0  501    0  0.00000000000E+00  0.00000000000E+00  0.99776026515E+03  0.99776026515E+03  0.00000000000E+00 0. -1.
         -1   -1    0    0    0  501 -0.00000000000E+00 -0.00000000000E+00 -0.48764262026E+03  0.48764262026E+03  0.00000000000E+00 0.  1.
         24    2    1    2    0    0 -0.24709101950E+03 -0.26173622561E+03 -0.48100454206E+02  0.37149734925E+03  0.78337750132E+02 0.  0.
        254    2    1    2    0    0  0.24709101950E+03  0.26173622561E+03  0.55821809909E+03  0.11139055361E+04  0.89421377399E+03 0.  0.
         23    2    4    4    0    0  0.11448417913E+03 -0.14999276555E+03  0.63178996452E+03  0.66566955867E+03  0.91394447801E+02 0.  0.
         23    2    4    4    0    0  0.13260684037E+03  0.41172899116E+03 -0.73571865422E+02  0.44823597747E+03  0.91636978596E+02 0.  0.
          4    1    3    3  502    0 -0.35434846373E+02 -0.11101257864E+02  0.97374379836E+01  0.38388591562E+02  0.00000000000E+00 0. -1.
         -3    1    3    3    0  502 -0.21165617313E+03 -0.25063496774E+03 -0.57837892189E+02  0.33310875769E+03  0.00000000000E+00 0.  1.
         11    1    5    5    0    0  0.11614544509E+03 -0.10232939278E+03  0.54595289922E+03  0.56747302774E+03  0.00000000000E+00 0. -1.
        -11    1    5    5    0    0 -0.16612659604E+01 -0.47663372776E+02  0.85837065294E+02  0.98196530933E+02  0.00000000000E+00 0.  1.
          4    1    6    6  503    0  0.43292570317E+01  0.34545632180E+02 -0.32666961599E+02  0.47741738021E+02  0.00000000000E+00 0.  1.
         -4    1    6    6    0  503  0.12827758333E+03  0.37718335898E+03 -0.40904903823E+02  0.40049423945E+03  0.00000000000E+00 0. -1.
<mgrwt>
<rscale>  0 0.13950633E+04</rscale>
<asrwt>0</asrwt>
<pdfrwt beam="1">  1        2 0.15350158E+00 0.13950633E+04</pdfrwt>
<pdfrwt beam="2">  1       -1 0.75021942E-01 0.13950633E+04</pdfrwt>
<totfact> 0.50172579E+01</totfact>
</mgrwt>
</event>
<event>
12    6  0.1611689E-007  0.2456051E+04  0.7818608E-02  0.8418812E-01
          2   -1    0    0  501    0  0.00000000000E+00  0.00000000000E+00  0.14579290872E+04  0.14579290872E+04  0.00000000000E+00 0. -1.
         -1   -1    0    0    0  501 -0.00000000000E+00 -0.00000000000E+00 -0.10343755211E+04  0.10343755211E+04  0.00000000000E+00 0.  1.
         24    2    1    2    0    0  0.62896961403E+03  0.69301851853E+03 -0.35373835940E+03  0.10036286915E+04  0.79134575884E+02 0.  0.
        254    2    1    2    0    0 -0.62896961403E+03 -0.69301851853E+03  0.77729192549E+03  0.14886759168E+04  0.85796025869E+03 0.  0.
         23    2    4    4    0    0 -0.50900661485E+03 -0.30396442015E+03 -0.70658117188E+01  0.59976003936E+03  0.90443775012E+02 0.  0.
         23    2    4    4    0    0 -0.11996299918E+03 -0.38905409837E+03  0.78435773721E+03  0.88891587746E+03  0.95917488737E+02 0.  0.
          2    1    3    3  502    0  0.11212170129E+03  0.93328197356E+02 -0.33820335530E+02  0.14975060407E+03  0.00000000000E+00 0. -1.
         -1    1    3    3    0  502  0.51684791273E+03  0.59969032117E+03 -0.31991802387E+03  0.85387808743E+03  0.00000000000E+00 0.  1.
         11    1    5    5    0    0 -0.19632551270E+01 -0.11096607065E+02  0.83265093800E+01  0.14011417398E+02  0.00000000000E+00 0.  1.
        -11    1    5    5    0    0 -0.50704335972E+03 -0.29286781309E+03 -0.15392321099E+02  0.58574862196E+03  0.00000000000E+00 0. -1.
          1    1    6    6  503    0 -0.11419018268E+03 -0.39423747644E+03  0.76739214539E+03  0.87026047277E+03  0.00000000000E+00 0. -1.
         -1    1    6    6    0  503 -0.57728165012E+01  0.51833780670E+01  0.16965591817E+02  0.18655404693E+02  0.00000000000E+00 0.  1.
<mgrwt>
<rscale>  0 0.24560506E+04</rscale>
<asrwt>0</asrwt>
<pdfrwt beam="1">  1        2 0.22429678E+00 0.24560506E+04</pdfrwt>
<pdfrwt beam="2">  1       -1 0.15913470E+00 0.24560506E+04</pdfrwt>
<totfact> 0.40570887E+00</totfact>
</mgrwt>
</event>
<event>
12    6  0.1611689E-007  0.2402306E+04  0.7818608E-02  0.8438641E-01
         -1   -1    0    0    0  501 -0.00000000000E+00  0.00000000000E+00  0.38181423349E+03  0.38181423349E+03  0.00000000000E+00 0.  1.
          2   -1    0    0  501    0  0.00000000000E+00 -0.00000000000E+00 -0.37787188190E+04  0.37787188190E+04  0.00000000000E+00 0. -1.
         24    2    1    2    0    0  0.13364441339E+03  0.32800600022E+03 -0.31215545624E+04  0.31425382172E+04  0.77426060409E+02 0.  0.
        254    2    1    2    0    0 -0.13364441339E+03 -0.32800600022E+03 -0.27535002313E+03  0.10179948353E+04  0.91380910706E+03 0.  0.
         23    2    4    4    0    0  0.29031987208E+03 -0.42289775435E+03 -0.60534565215E+02  0.52483781700E+03  0.93070735527E+02 0.  0.
         23    2    4    4    0    0 -0.42396428547E+03  0.94891754123E+02 -0.21481545791E+03  0.49315701835E+03  0.91148249759E+02 0.  0.
          4    1    3    3  502    0  0.95716355079E+02  0.28685031329E+03 -0.27840355182E+04  0.28004104144E+04  0.00000000000E+00 0. -1.
         -3    1    3    3    0  502  0.37928058309E+02  0.41155686928E+02 -0.33751904423E+03  0.34212780272E+03  0.00000000000E+00 0.  1.
         11    1    5    5    0    0 -0.13221856926E+01  0.21679746873E+01 -0.59388242251E+01  0.64589412776E+01  0.00000000000E+00 0.  1.
        -11    1    5    5    0    0  0.29164205777E+03 -0.42506572903E+03 -0.54595740990E+02  0.51837887572E+03  0.00000000000E+00 0. -1.
          3    1    6    6  503    0 -0.40444571598E+03  0.67886848337E+02 -0.19235809421E+03  0.45297527280E+03  0.00000000000E+00 0. -1.
         -3    1    6    6    0  503 -0.19518569484E+02  0.27004905786E+02 -0.22457363703E+02  0.40181745553E+02  0.00000000000E+00 0.  1.
<mgrwt>
<rscale>  0 0.24023061E+04</rscale>
<asrwt>0</asrwt>
<pdfrwt beam="1">  1        2 0.58134135E+00 0.24023061E+04</pdfrwt>
<pdfrwt beam="2">  1       -1 0.58740652E-01 0.24023061E+04</pdfrwt>
<totfact> 0.15360862E+00</totfact>
</mgrwt>
</event>
<event>
12    6  0.1611689E-007  0.1199339E+04  0.7818608E-02  0.9113435E-01
          2   -1    0    0  501    0  0.00000000000E+00  0.00000000000E+00  0.18069706179E+04  0.18069706179E+04  0.00000000000E+00 0. -1.
         -1   -1    0    0    0  501 -0.00000000000E+00 -0.00000000000E+00 -0.19900898186E+03  0.19900898186E+03  0.00000000000E+00 0.  1.
         24    2    1    2    0    0 -0.30303775803E+02  0.12528902168E+03 -0.11032578424E+02  0.15270040433E+03  0.81117432866E+02 0.  0.
        254    2    1    2    0    0  0.30303775803E+02 -0.12528902168E+03  0.16189942145E+04  0.18532791954E+04  0.89268463185E+03 0.  0.
         23    2    4    4    0    0 -0.16019982258E+03  0.14830545967E+03  0.14472277784E+04  0.14663771696E+04  0.90195721966E+02 0.  0.
         23    2    4    4    0    0  0.19050359838E+03 -0.27359448135E+03  0.17176643606E+03  0.38690202588E+03  0.95099462916E+02 0.  0.
          2    1    3    3  502    0 -0.44030143260E+02  0.85362622214E+02  0.22658335552E+02  0.98685515436E+02  0.00000000000E+00 0. -1.
         -1    1    3    3    0  502  0.13726367457E+02  0.39926399470E+02 -0.33690913976E+02  0.54014888899E+02  0.00000000000E+00 0.  1.
         11    1    5    5    0    0 -0.12321990300E+03  0.83326226877E+02  0.11632599476E+04  0.11727319005E+04  0.00000000000E+00 0. -1.
        -11    1    5    5    0    0 -0.36979919581E+02  0.64979232792E+02  0.28396783078E+03  0.29364526910E+03  0.00000000000E+00 0.  1.
          4    1    6    6  503    0  0.13891672279E+02  0.64978816746E+01  0.10564498662E+02  0.18622826234E+02  0.00000000000E+00 0. -1.
         -4    1    6    6    0  503  0.17661192610E+03 -0.28009236303E+03  0.16120193740E+03  0.36827919964E+03  0.00000000000E+00 0.  1.
<mgrwt>
<rscale>  0 0.11993388E+04</rscale>
<asrwt>0</asrwt>
<pdfrwt beam="1">  1        2 0.27799547E+00 0.11993388E+04</pdfrwt>
<pdfrwt beam="2">  1       -1 0.30616768E-01 0.11993388E+04</pdfrwt>
<totfact> 0.94676348E+01</totfact>
</mgrwt>
</event>
<event>
12    6  0.1611689E-007  0.2194888E+04  0.7818608E-02  0.8520559E-01
         -1   -1    0    0    0  501 -0.00000000000E+00  0.00000000000E+00  0.55392502185E+03  0.55392502185E+03  0.00000000000E+00 0.  1.
          2   -1    0    0  501    0  0.00000000000E+00 -0.00000000000E+00 -0.21742705305E+04  0.21742705305E+04  0.00000000000E+00 0. -1.
         24    2    1    2    0    0  0.64034269716E+03 -0.59773591145E+03 -0.35917853835E+03  0.95002314850E+03  0.78789406902E+02 0.  0.
        254    2    1    2    0    0 -0.64034269716E+03  0.59773591145E+03 -0.12611669703E+04  0.17781724038E+04  0.89667607368E+03 0.  0.
         23    2    4    4    0    0 -0.16995760497E+03  0.47825480158E+03 -0.11659970645E+04  0.12750504348E+04  0.92688802328E+02 0.  0.
         23    2    4    4    0    0 -0.47038509219E+03  0.11948110987E+03 -0.95169905758E+02  0.50312196902E+03  0.92393366512E+02 0.  0.
          2    1    3    3  502    0  0.16686631924E+03 -0.18295810930E+03 -0.13357709261E+03  0.28135542988E+03  0.00000000000E+00 0. -1.
         -1    1    3    3    0  502  0.47347637792E+03 -0.41477780215E+03 -0.22560144574E+03  0.66866771862E+03  0.00000000000E+00 0.  1.
         11    1    5    5    0    0 -0.11826808895E+03  0.19536017651E+03 -0.51444614867E+03  0.56285680178E+03  0.00000000000E+00 0. -1.
        -11    1    5    5    0    0 -0.51689516027E+02  0.28289462507E+03 -0.65155091584E+03  0.71219363301E+03  0.00000000000E+00 0.  1.
          1    1    6    6  503    0 -0.23739891471E+02  0.21720390123E+02 -0.24568666296E+02  0.40484282848E+02  0.00000000000E+00 0. -1.
         -1    1    6    6    0  503 -0.44664520072E+03  0.97760719748E+02 -0.70601239462E+02  0.46263768617E+03  0.00000000000E+00 0.  1.
<mgrwt>
<rscale>  0 0.21948876E+04</rscale>
<asrwt>0</asrwt>
<pdfrwt beam="1">  1        2 0.33450316E+00 0.21948876E+04</pdfrwt>
<pdfrwt beam="2">  1       -1 0.85219234E-01 0.21948876E+04</pdfrwt>
<totfact> 0.75637127E+00</totfact>
</mgrwt>
</event>
<event>
12    6  0.1611689E-007  0.3455133E+04  0.7818608E-02  0.8124506E-01
         -1   -1    0    0    0  501 -0.00000000000E+00  0.00000000000E+00  0.11122141179E+04  0.11122141179E+04  0.00000000000E+00 0.  1.
          2   -1    0    0  501    0  0.00000000000E+00 -0.00000000000E+00 -0.26833742340E+04  0.26833742340E+04  0.00000000000E+00 0. -1.
         24    2    1    2    0    0 -0.26789513936E+03  0.14655932652E+04 -0.63855809043E+02  0.14933753748E+04  0.79756009294E+02 0.  0.
        254    2    1    2    0    0  0.26789513936E+03 -0.14655932652E+04 -0.15073043070E+04  0.23022129771E+04  0.89915899225E+03 0.  0.
         23    2    4    4    0    0  0.42717092169E+03 -0.78772727587E+03 -0.38709572281E+03  0.98041027272E+03  0.91498342851E+02 0.  0.
         23    2    4    4    0    0 -0.15927578233E+03 -0.67786598931E+03 -0.11202085842E+04  0.13218027044E+04  0.86162885785E+02 0.  0.
          4    1    3    3  502    0 -0.17354210469E+02  0.17952845781E+03 -0.28911211245E+02  0.18266771450E+03  0.00000000000E+00 0. -1.
         -3    1    3    3    0  502 -0.25054092889E+03  0.12860648074E+04 -0.34944597798E+02  0.13107076603E+04  0.00000000000E+00 0.  1.
         11    1    5    5    0    0  0.42939215853E+03 -0.78572040699E+03 -0.37997243227E+03  0.97268352153E+03  0.00000000000E+00 0.  1.
        -11    1    5    5    0    0 -0.22212368369E+01 -0.20068688753E+01 -0.71232905413E+01  0.77267511869E+01  0.00000000000E+00 0. -1.
          2    1    6    6  503    0  0.72229703830E+01 -0.13272261454E+02 -0.13940221945E+02  0.20558550852E+02  0.00000000000E+00 0. -1.
         -2    1    6    6    0  503 -0.16649875271E+03 -0.66459372785E+03 -0.11062683622E+04  0.13012441535E+04  0.00000000000E+00 0.  1.
<mgrwt>
<rscale>  0 0.34551334E+04</rscale>
<asrwt>0</asrwt>
<pdfrwt beam="1">  1        2 0.41282680E+00 0.34551334E+04</pdfrwt>
<pdfrwt beam="2">  1       -1 0.17110987E+00 0.34551334E+04</pdfrwt>
<totfact> 0.61451058E-01</totfact>
</mgrwt>
</event>
<event>
12    6  0.1611689E-007  0.1212004E+04  0.7818608E-02  0.9102414E-01
          2   -1    0    0  501    0  0.00000000000E+00  0.00000000000E+00  0.99904523707E+03  0.99904523707E+03  0.00000000000E+00 0. -1.
         -1   -1    0    0    0  501 -0.00000000000E+00 -0.00000000000E+00 -0.36758947853E+03  0.36758947853E+03  0.00000000000E+00 0.  1.
         24    2    1    2    0    0 -0.64150323274E+02  0.21240474548E+03  0.18443894096E+02  0.23672054479E+03  0.80407706191E+02 0.  0.
        254    2    1    2    0    0  0.64150323274E+02 -0.21240474548E+03  0.61301186444E+03  0.11299141708E+04  0.92287130608E+03 0.  0.
         23    2    4    4    0    0 -0.12597083916E+03  0.32623430182E+03  0.31605041265E+03  0.47979547706E+03  0.89545320719E+02 0.  0.
         23    2    4    4    0    0  0.19012116244E+03 -0.53863904731E+03  0.29696145179E+03  0.65011869376E+03  0.90499350480E+02 0.  0.
          4    1    3    3  502    0 -0.54994927854E+02  0.16159893151E+03 -0.20676530219E+02  0.17194817725E+03  0.00000000000E+00 0. -1.
         -3    1    3    3    0  502 -0.91553954200E+01  0.50805813969E+02  0.39120424315E+02  0.64772367541E+02  0.00000000000E+00 0.  1.
         11    1    5    5    0    0 -0.14018724625E+03  0.29673083165E+03  0.28473983202E+03  0.43448638921E+03  0.00000000000E+00 0. -1.
        -11    1    5    5    0    0  0.14216407090E+02  0.29503470174E+02  0.31310580624E+02  0.45309087851E+02  0.00000000000E+00 0.  1.
          1    1    6    6  503    0  0.12326565909E+03 -0.25427132184E+03  0.18243731407E+03  0.33635056323E+03  0.00000000000E+00 0. -1.
         -1    1    6    6    0  503  0.66855503348E+02 -0.28436772547E+03  0.11452413773E+03  0.31376813053E+03  0.00000000000E+00 0.  1.
<mgrwt>
<rscale>  0 0.12120042E+04</rscale>
<asrwt>0</asrwt>
<pdfrwt beam="1">  1        2 0.15369927E+00 0.12120042E+04</pdfrwt>
<pdfrwt beam="2">  1       -1 0.56552228E-01 0.12120042E+04</pdfrwt>
<totfact> 0.89773413E+01</totfact>
</mgrwt>
</event>
<event>
12    6  0.1611689E-007  0.1652904E+04  0.7818608E-02  0.8788690E-01
         -1   -1    0    0    0  501 -0.00000000000E+00  0.00000000000E+00  0.64919285451E+03  0.64919285451E+03  0.00000000000E+00 0.  1.
          2   -1    0    0  501    0  0.00000000000E+00 -0.00000000000E+00 -0.10521115261E+04  0.10521115261E+04  0.00000000000E+00 0. -1.
         24    2    1    2    0    0 -0.52592214408E+02 -0.39567993900E+03  0.27955753380E+03  0.49416398358E+03  0.81957750248E+02 0.  0.
        254    2    1    2    0    0  0.52592214408E+02  0.39567993900E+03 -0.68247620540E+03  0.12071403970E+04  0.91218726810E+03 0.  0.
         23    2    4    4    0    0 -0.39059842372E+03  0.98240614454E+02 -0.46816350451E+03  0.62439153095E+03  0.92029180242E+02 0.  0.
         23    2    4    4    0    0  0.44319063813E+03  0.29743932454E+03 -0.21431270088E+03  0.58274886609E+03  0.93692121649E+02 0.  0.
          4    1    3    3  502    0 -0.42299972843E+02 -0.11722526384E+03  0.12032277713E+03  0.17322996531E+03  0.00000000000E+00 0. -1.
         -3    1    3    3    0  502 -0.10292241565E+02 -0.27845467516E+03  0.15923475667E+03  0.32093401827E+03  0.00000000000E+00 0.  1.
         11    1    5    5    0    0 -0.36243128928E+03  0.63673142034E+02 -0.42727277237E+03  0.56389070791E+03  0.00000000000E+00 0.  1.
        -11    1    5    5    0    0 -0.28167134449E+02  0.34567472420E+02 -0.40890732147E+02  0.60500823037E+02  0.00000000000E+00 0. -1.
          1    1    6    6  503    0  0.11650521228E+03  0.96157099231E+02 -0.19203058355E+02  0.15227741025E+03  0.00000000000E+00 0. -1.
         -1    1    6    6    0  503  0.32668542585E+03  0.20128222531E+03 -0.19510964253E+03  0.43047145585E+03  0.00000000000E+00 0.  1.
<mgrwt>
<rscale>  0 0.16529045E+04</rscale>
<asrwt>0</asrwt>
<pdfrwt beam="1">  1        2 0.16186331E+00 0.16529045E+04</pdfrwt>
<pdfrwt beam="2">  1       -1 0.99875825E-01 0.16529045E+04</pdfrwt>
<totfact> 0.24306398E+01</totfact>
</mgrwt>
</event>
<event>
12    6  0.1611689E-007  0.2100314E+04  0.7818608E-02  0.8561105E-01
         -1   -1    0    0    0  501 -0.00000000000E+00  0.00000000000E+00  0.39600377461E+03  0.39600377461E+03  0.00000000000E+00 0.  1.
          2   -1    0    0  501    0  0.00000000000E+00 -0.00000000000E+00 -0.27848964763E+04  0.27848964763E+04  0.00000000000E+00 0. -1.
         24    2    1    2    0    0 -0.57879482831E+03  0.33188352758E+03 -0.17250597645E+03  0.69398395074E+03  0.81885791342E+02 0.  0.
        254    2    1    2    0    0  0.57879482831E+03 -0.33188352758E+03 -0.22163867253E+04  0.24869163002E+04  0.90952319328E+03 0.  0.
         23    2    4    4    0    0 -0.22538408569E+03 -0.18297655374E+03 -0.62179743390E+03  0.69228045443E+03  0.91333309794E+02 0.  0.
         23    2    4    4    0    0  0.80417891400E+03 -0.14890697384E+03 -0.15945892914E+04  0.17946358458E+04  0.95529043852E+02 0.  0.
          4    1    3    3  502    0 -0.14661561086E+03  0.10311399530E+03 -0.80137528110E+02  0.19634321171E+03  0.00000000000E+00 0. -1.
         -3    1    3    3    0  502 -0.43217921745E+03  0.22876953228E+03 -0.92368448343E+02  0.49764073903E+03  0.00000000000E+00 0.  1.
         11    1    5    5    0    0 -0.12229071036E+03 -0.15466095194E+03 -0.41660227578E+03  0.46090398575E+03  0.00000000000E+00 0. -1.
        -11    1    5    5    0    0 -0.10309337533E+03 -0.28315601800E+02 -0.20519515813E+03  0.23137646868E+03  0.00000000000E+00 0.  1.
          2    1    6    6  503    0  0.30823992442E+03 -0.76962796018E+02 -0.52857400387E+03  0.61670544067E+03  0.00000000000E+00 0.  1.
         -2    1    6    6    0  503  0.49593898957E+03 -0.71944177818E+02 -0.10660152875E+04  0.11779304051E+04  0.00000000000E+00 0. -1.
<mgrwt>
<rscale>  0 0.21003138E+04</rscale>
<asrwt>0</asrwt>
<pdfrwt beam="1">  1        2 0.42844563E+00 0.21003138E+04</pdfrwt>
<pdfrwt beam="2">  1       -1 0.60923655E-01 0.21003138E+04</pdfrwt>
<totfact> 0.67741866E+00</totfact>
</mgrwt>
</event>
<event>
12    6  0.1611689E-007  0.1065846E+04  0.7818608E-02  0.9239135E-01
         -1   -1    0    0    0  501 -0.00000000000E+00  0.00000000000E+00  0.13443734263E+04  0.13443734263E+04  0.00000000000E+00 0.  1.
          2   -1    0    0  501    0  0.00000000000E+00 -0.00000000000E+00 -0.21125590637E+03  0.21125590637E+03  0.00000000000E+00 0. -1.
         24    2    1    2    0    0 -0.62735631254E+02  0.81905560226E+02  0.37761254900E+02  0.13636760498E+03  0.80783235206E+02 0.  0.
        254    2    1    2    0    0  0.62735631254E+02 -0.81905560226E+02  0.10953562650E+04  0.14192617277E+04  0.89657917896E+03 0.  0.
         23    2    4    4    0    0  0.44393497594E+03 -0.77082823888E+02  0.35174885012E+03  0.57871829592E+03  0.90374708143E+02 0.  0.
         23    2    4    4    0    0 -0.38119934469E+03 -0.48227363377E+01  0.74360741492E+03  0.84054343178E+03  0.90692193745E+02 0.  0.
          2    1    3    3  502    0 -0.60363301513E+02  0.83918416198E+02  0.50371128842E+01  0.10349589969E+03  0.00000000000E+00 0. -1.
         -1    1    3    3    0  502 -0.23723297409E+01 -0.20128559727E+01  0.32724142016E+02  0.32871705283E+02  0.00000000000E+00 0.  1.
         11    1    5    5    0    0  0.29178444708E+03 -0.53783067128E+02  0.17550474608E+03  0.34472118845E+03  0.00000000000E+00 0.  1.
        -11    1    5    5    0    0  0.15215052886E+03 -0.23299756760E+02  0.17624410404E+03  0.23399710747E+03  0.00000000000E+00 0. -1.
          3    1    6    6  503    0 -0.19130245139E+03 -0.35136230122E+02  0.30651079778E+03  0.36301522245E+03  0.00000000000E+00 0. -1.
         -3    1    6    6    0  503 -0.18989689330E+03  0.30313493784E+02  0.43709661713E+03  0.47752820932E+03  0.00000000000E+00 0.  1.
<mgrwt>
<rscale>  0 0.10658458E+04</rscale>
<asrwt>0</asrwt>
<pdfrwt beam="1">  1        2 0.32500909E-01 0.10658458E+04</pdfrwt>
<pdfrwt beam="2">  1       -1 0.20682668E+00 0.10658458E+04</pdfrwt>
<totfact> 0.25125679E+01</totfact>
</mgrwt>
</event>
<event>
12    6  0.1611689E-007  0.1228479E+04  0.7818608E-02  0.9088288E-01
          2   -1    0    0  501    0  0.00000000000E+00  0.00000000000E+00  0.23412038841E+04  0.23412038841E+04  0.00000000000E+00 0. -1.
         -1   -1    0    0    0  501 -0.00000000000E+00 -0.00000000000E+00 -0.16115219791E+03  0.16115219791E+03  0.00000000000E+00 0.  1.
         24    2    1    2    0    0  0.86655146392E+02  0.20431894186E+03  0.67408480764E+03  0.71431906739E+03  0.81277658315E+02 0.  0.
        254    2    1    2    0    0 -0.86655146392E+02 -0.20431894186E+03  0.15059668786E+04  0.17880370146E+04  0.93802173855E+03 0.  0.
         23    2    4    4    0    0 -0.26920280609E+03  0.14985435736E+03  0.12029894522E+03  0.34325835969E+03  0.91804063364E+02 0.  0.
         23    2    4    4    0    0  0.18254765970E+03 -0.35417329922E+03  0.13856679334E+04  0.14447786550E+04  0.92451967849E+02 0.  0.
          2    1    3    3  502    0  0.99295733160E+02  0.15926518092E+03  0.57239727336E+03  0.60238167223E+03  0.00000000000E+00 0. -1.
         -1    1    3    3    0  502 -0.12640586768E+02  0.45053760933E+02  0.10168753428E+03  0.11193739516E+03  0.00000000000E+00 0.  1.
         11    1    5    5    0    0 -0.66190951797E+02  0.41967432778E+02 -0.99884612363E+01  0.79008081053E+02  0.00000000000E+00 0.  1.
        -11    1    5    5    0    0 -0.20301185429E+03  0.10788692458E+03  0.13028740646E+03  0.26425027864E+03  0.00000000000E+00 0. -1.
          3    1    6    6  503    0  0.13086894476E+03 -0.15496816736E+03  0.71980869729E+03  0.74784114242E+03  0.00000000000E+00 0. -1.
         -3    1    6    6    0  503  0.51678714934E+02 -0.19920513185E+03  0.66585923607E+03  0.69693751254E+03  0.00000000000E+00 0.  1.
<mgrwt>
<rscale>  0 0.12284790E+04</rscale>
<asrwt>0</asrwt>
<pdfrwt beam="1">  1        2 0.36018519E+00 0.12284790E+04</pdfrwt>
<pdfrwt beam="2">  1       -1 0.24792648E-01 0.12284790E+04</pdfrwt>
<totfact> 0.68747815E+01</totfact>
</mgrwt>
</event>
<event>
12    6  0.1611689E-007  0.1573039E+04  0.7818608E-02  0.8837284E-01
          2   -1    0    0  501    0  0.00000000000E+00  0.00000000000E+00  0.53528186508E+03  0.53528186508E+03  0.00000000000E+00 0. -1.
         -1   -1    0    0    0  501 -0.00000000000E+00 -0.00000000000E+00 -0.11556770468E+04  0.11556770468E+04  0.00000000000E+00 0.  1.
         24    2    1    2    0    0 -0.30803212918E+03 -0.31716643534E+03  0.87481352910E+02  0.45802715163E+03  0.81593775602E+02 0.  0.
        254    2    1    2    0    0  0.30803212918E+03  0.31716643534E+03 -0.70787653467E+03  0.12329317603E+04  0.90749831783E+03 0.  0.
         23    2    4    4    0    0  0.10345984643E+03  0.10277792921E+03 -0.86792113043E+03  0.88476007257E+03  0.90807790475E+02 0.  0.
         23    2    4    4    0    0  0.20457228275E+03  0.21438850612E+03  0.16004459576E+03  0.34817168771E+03  0.88300628924E+02 0.  0.
          4    1    3    3  502    0 -0.25620519701E+03 -0.26028494184E+03  0.39529879766E+02  0.36735808868E+03  0.00000000000E+00 0. -1.
         -3    1    3    3    0  502 -0.51826932162E+02 -0.56881493494E+02  0.47951473143E+02  0.90669062949E+02  0.00000000000E+00 0.  1.
         11    1    5    5    0    0  0.26902905169E+02  0.83664643074E+02 -0.35012867803E+03  0.36098979208E+03  0.00000000000E+00 0. -1.
        -11    1    5    5    0    0  0.76556941258E+02  0.19113286141E+02 -0.51779245240E+03  0.52377028049E+03  0.00000000000E+00 0.  1.
          3    1    6    6  503    0  0.11788179880E+03  0.60921936508E+02  0.75752892079E+02  0.15279431107E+03  0.00000000000E+00 0. -1.
         -3    1    6    6    0  503  0.86690483948E+02  0.15346656961E+03  0.84291703677E+02  0.19537737665E+03  0.00000000000E+00 0.  1.
<mgrwt>
<rscale>  0 0.15730391E+04</rscale>
<asrwt>0</asrwt>
<pdfrwt beam="1">  1        2 0.82351057E-01 0.15730391E+04</pdfrwt>
<pdfrwt beam="2">  1       -1 0.17779647E+00 0.15730391E+04</pdfrwt>
<totfact> 0.13475553E+01</totfact>
</mgrwt>
</event>
<event>
12    6  0.1611689E-007  0.1159532E+04  0.7818608E-02  0.9149035E-01
         -1   -1    0    0    0  501 -0.00000000000E+00  0.00000000000E+00  0.10667706060E+03  0.10667706060E+03  0.00000000000E+00 0.  1.
          2   -1    0    0  501    0  0.00000000000E+00 -0.00000000000E+00 -0.31508968208E+04  0.31508968208E+04  0.00000000000E+00 0. -1.
         24    2    1    2    0    0  0.57656513229E+02  0.18800548763E+03 -0.33622544867E+03  0.39775621056E+03  0.80573654554E+02 0.  0.
        254    2    1    2    0    0 -0.57656513229E+02 -0.18800548763E+03 -0.27079943115E+04  0.28598176708E+04  0.89813895488E+03 0.  0.
         23    2    4    4    0    0 -0.22382187147E+03 -0.16191692952E+02 -0.25447101357E+04  0.25562409022E+04  0.91975400919E+02 0.  0.
         23    2    4    4    0    0  0.16616535824E+03 -0.17181379468E+03 -0.16328417581E+03  0.30357676860E+03  0.91467076291E+02 0.  0.
          2    1    3    3  502    0  0.96832882474E+01  0.62917643606E+02 -0.18538771757E+03  0.19601275921E+03  0.00000000000E+00 0. -1.
         -1    1    3    3    0  502  0.47973224981E+02  0.12508784403E+03 -0.15083773110E+03  0.20174345135E+03  0.00000000000E+00 0.  1.
         11    1    5    5    0    0 -0.89226234495E+02 -0.45475561142E+02 -0.83325030509E+03  0.83924693537E+03  0.00000000000E+00 0. -1.
        -11    1    5    5    0    0 -0.13459563697E+03  0.29283868190E+02 -0.17114598306E+04  0.17169939669E+04  0.00000000000E+00 0.  1.
          4    1    6    6  503    0  0.41148079889E+02 -0.10523432068E+03 -0.87675391500E+02  0.14301888338E+03  0.00000000000E+00 0.  1.
         -4    1    6    6    0  503  0.12501727835E+03 -0.66579474000E+02 -0.75608784312E+02  0.16055788523E+03  0.00000000000E+00 0. -1.
<mgrwt>
<rscale>  0 0.11595316E+04</rscale>
<asrwt>0</asrwt>
<pdfrwt beam="1">  1        2 0.48475335E+00 0.11595316E+04</pdfrwt>
<pdfrwt beam="2">  1       -1 0.16411856E-01 0.11595316E+04</pdfrwt>
<totfact> 0.45533180E+01</totfact>
</mgrwt>
</event>
<event>
12    6  0.1611689E-007  0.2289335E+04  0.7818608E-02  0.8482138E-01
          2   -1    0    0  501    0  0.00000000000E+00  0.00000000000E+00  0.10242346777E+04  0.10242346777E+04  0.00000000000E+00 0. -1.
         -1   -1    0    0    0  501 -0.00000000000E+00 -0.00000000000E+00 -0.12792614484E+04  0.12792614484E+04  0.00000000000E+00 0.  1.
         24    2    1    2    0    0 -0.12960632707E+03 -0.37302516400E+03 -0.99285094265E+03  0.10713753555E+04  0.78400159167E+02 0.  0.
        254    2    1    2    0    0  0.12960632707E+03  0.37302516400E+03  0.73782417188E+03  0.12321207706E+04  0.90431825803E+03 0.  0.
         23    2    4    4    0    0  0.22146291520E+03 -0.78938951028E+02  0.71857731154E+03  0.76148267839E+03  0.90693638358E+02 0.  0.
         23    2    4    4    0    0 -0.91856588126E+02  0.45196411503E+03  0.19246860338E+02  0.47063809223E+03  0.91763708372E+02 0.  0.
          2    1    3    3  502    0 -0.18299065694E+01 -0.79866592647E+01 -0.31297239025E+01  0.87710008534E+01  0.00000000000E+00 0. -1.
         -1    1    3    3    0  502 -0.12777642051E+03 -0.36503850473E+03 -0.98972121875E+03  0.10626043546E+04  0.00000000000E+00 0.  1.
         11    1    5    5    0    0  0.83074025102E+02 -0.76233757759E+02  0.35354045877E+03  0.37108453950E+03  0.00000000000E+00 0. -1.
        -11    1    5    5    0    0  0.13838889010E+03 -0.27051932697E+01  0.36503685277E+03  0.39039813890E+03  0.00000000000E+00 0.  1.
          4    1    6    6  503    0 -0.10664814270E+03  0.41613984804E+03  0.29335177212E+02  0.43058884343E+03  0.00000000000E+00 0. -1.
         -4    1    6    6    0  503  0.14791554578E+02  0.35824266991E+02 -0.10088316874E+02  0.40049248802E+02  0.00000000000E+00 0.  1.
<mgrwt>
<rscale>  0 0.22893352E+04</rscale>
<asrwt>0</asrwt>
<pdfrwt beam="1">  1        2 0.15757457E+00 0.22893352E+04</pdfrwt>
<pdfrwt beam="2">  1       -1 0.19680945E+00 0.22893352E+04</pdfrwt>
<totfact> 0.39823577E+00</totfact>
</mgrwt>
</event>
<event>
12    6  0.1611689E-007  0.2563281E+04  0.7818608E-02  0.8380782E-01
         -1   -1    0    0    0  501 -0.00000000000E+00  0.00000000000E+00  0.16182110270E+04  0.16182110270E+04  0.00000000000E+00 0.  1.
          2   -1    0    0  501    0  0.00000000000E+00 -0.00000000000E+00 -0.10150726667E+04  0.10150726667E+04  0.00000000000E+00 0. -1.
         24    2    1    2    0    0  0.26523679876E+03  0.11333516248E+03  0.13166255907E+04  0.13502480734E+04  0.80445603153E+02 0.  0.
        254    2    1    2    0    0 -0.26523679876E+03 -0.11333516248E+03 -0.71348723044E+03  0.12830356203E+04  0.10266065246E+04 0.  0.
         23    2    4    4    0    0 -0.64633887141E+03 -0.77811378747E+01 -0.51959149607E+03  0.83442572508E+03  0.92067828767E+02 0.  0.
         23    2    4    4    0    0  0.38110207265E+03 -0.10555402461E+03 -0.19389573437E+03  0.44860989520E+03  0.85292674785E+02 0.  0.
          2    1    3    3  502    0  0.17541538154E+03  0.11088807307E+03  0.84245026789E+03  0.86763424016E+03  0.00000000000E+00 0. -1.
         -1    1    3    3    0  502  0.89821417220E+02  0.24470894120E+01  0.47417532285E+03  0.48261383324E+03  0.00000000000E+00 0.  1.
         11    1    5    5    0    0 -0.17787671024E+03  0.22547379365E+01 -0.92898007825E+02  0.20068693966E+03  0.00000000000E+00 0.  1.
        -11    1    5    5    0    0 -0.46846216117E+03 -0.10035875811E+02 -0.42669348824E+03  0.63373878543E+03  0.00000000000E+00 0. -1.
          4    1    6    6  503    0  0.17921114108E+03 -0.43165096355E+02 -0.43948709484E+02  0.18950289627E+03  0.00000000000E+00 0. -1.
         -4    1    6    6    0  503  0.20189093157E+03 -0.62388928253E+02 -0.14994702489E+03  0.25910699893E+03  0.00000000000E+00 0.  1.
<mgrwt>
<rscale>  0 0.25632805E+04</rscale>
<asrwt>0</asrwt>
<pdfrwt beam="1">  1        2 0.15616502E+00 0.25632805E+04</pdfrwt>
<pdfrwt beam="2">  1       -1 0.24895554E+00 0.25632805E+04</pdfrwt>
<totfact> 0.17645955E+00</totfact>
</mgrwt>
</event>
<event>
12    6  0.1611689E-007  0.1840858E+04  0.7818608E-02  0.8684868E-01
         -1   -1    0    0    0  501 -0.00000000000E+00  0.00000000000E+00  0.27702328252E+03  0.27702328252E+03  0.00000000000E+00 0.  1.
          2   -1    0    0  501    0  0.00000000000E+00 -0.00000000000E+00 -0.30581888321E+04  0.30581888321E+04  0.00000000000E+00 0. -1.
         24    2    1    2    0    0 -0.28614370229E+03 -0.30055531023E+02  0.90704439734E+02  0.31166696584E+03  0.78278023149E+02 0.  0.
        254    2    1    2    0    0  0.28614370229E+03  0.30055531023E+02 -0.28718699893E+04  0.30235451488E+04  0.90078103768E+03 0.  0.
         23    2    4    4    0    0  0.48000076572E+03 -0.19712023090E+03 -0.24035287620E+04  0.24606260512E+04  0.92048540981E+02 0.  0.
         23    2    4    4    0    0 -0.19385706343E+03  0.22717576192E+03 -0.46834122737E+03  0.56291909756E+03  0.91351066216E+02 0.  0.
          4    1    3    3  502    0  0.33127095063E+01 -0.58602473689E+01 -0.15399708083E+01  0.69056537409E+01  0.00000000000E+00 0. -1.
         -3    1    3    3    0  502 -0.28945641179E+03 -0.24195283655E+02  0.92244410542E+02  0.30476131210E+03  0.00000000000E+00 0.  1.
         11    1    5    5    0    0  0.23760005397E+03 -0.99634352866E+02 -0.97892286504E+03  0.10122602262E+04  0.00000000000E+00 0. -1.
        -11    1    5    5    0    0  0.24240071174E+03 -0.97485878030E+02 -0.14246058969E+04  0.14483658250E+04  0.00000000000E+00 0.  1.
          1    1    6    6  503    0 -0.11325398814E+03  0.17435473451E+03 -0.37487867222E+03  0.42867243691E+03  0.00000000000E+00 0. -1.
         -1    1    6    6    0  503 -0.80603075284E+02  0.52821027409E+02 -0.93462555148E+02  0.13424666065E+03  0.00000000000E+00 0.  1.
<mgrwt>
<rscale>  0 0.18408580E+04</rscale>
<asrwt>0</asrwt>
<pdfrwt beam="1">  1        2 0.47049056E+00 0.18408580E+04</pdfrwt>
<pdfrwt beam="2">  1       -1 0.42618969E-01 0.18408580E+04</pdfrwt>
<totfact> 0.93244719E+00</totfact>
</mgrwt>
</event>
<event>
12    6  0.1611689E-007  0.2183008E+04  0.7818608E-02  0.8525534E-01
         -1   -1    0    0    0  501 -0.00000000000E+00  0.00000000000E+00  0.19066906827E+04  0.19066906827E+04  0.00000000000E+00 0.  1.
          2   -1    0    0  501    0  0.00000000000E+00 -0.00000000000E+00 -0.62484230165E+03  0.62484230165E+03  0.00000000000E+00 0. -1.
         24    2    1    2    0    0 -0.19000609596E+03 -0.14021872269E+02 -0.48644203433E+03  0.52833565874E+03  0.78827572149E+02 0.  0.
        254    2    1    2    0    0  0.19000609596E+03  0.14021872269E+02  0.17682904154E+04  0.20031973256E+04  0.92176439657E+03 0.  0.
         23    2    4    4    0    0 -0.13443631616E+03 -0.38294604806E+03  0.88249095531E+03  0.97567340961E+03  0.91801509736E+02 0.  0.
         23    2    4    4    0    0  0.32444241212E+03  0.39696792033E+03  0.88579946008E+03  0.10275239160E+04  0.91204747270E+02 0.  0.
          4    1    3    3  502    0 -0.12933065141E+03 -0.25863374711E+01 -0.22343956094E+03  0.25818277233E+03  0.00000000000E+00 0. -1.
         -1    1    3    3    0  502 -0.60675444559E+02 -0.11435534798E+02 -0.26300247339E+03  0.27015288641E+03  0.00000000000E+00 0.  1.
         11    1    5    5    0    0 -0.11556221280E+03 -0.25402112814E+03  0.67811440900E+03  0.73329428626E+03  0.00000000000E+00 0. -1.
        -11    1    5    5    0    0 -0.18874103354E+02 -0.12892491993E+03  0.20437654632E+03  0.24237912336E+03  0.00000000000E+00 0.  1.
          1    1    6    6  503    0  0.69119256589E+02  0.10488224499E+03  0.14942027676E+03  0.19520290995E+03  0.00000000000E+00 0. -1.
         -1    1    6    6    0  503  0.25532315553E+03  0.29208567534E+03  0.73637918333E+03  0.83232100606E+03  0.00000000000E+00 0.  1.
<mgrwt>
<rscale>  0 0.21830080E+04</rscale>
<asrwt>0</asrwt>
<pdfrwt beam="1">  1        2 0.96129586E-01 0.21830080E+04</pdfrwt>
<pdfrwt beam="2">  1       -1 0.29333703E+00 0.21830080E+04</pdfrwt>
<totfact> 0.17997015E+00</totfact>
</mgrwt>
</event>
<event>
12    6  0.1611689E-007  0.3165811E+04  0.7818608E-02  0.8197905E-01
          2   -1    0    0  501    0  0.00000000000E+00  0.00000000000E+00  0.16801734719E+04  0.16801734719E+04  0.00000000000E+00 0. -1.
         -1   -1    0    0    0  501 -0.00000000000E+00 -0.00000000000E+00 -0.14912688613E+04  0.14912688613E+04  0.00000000000E+00 0.  1.
         24    2    1    2    0    0  0.22995325297E+03  0.13082190364E+04 -0.49995562032E+03  0.14214270047E+04  0.78635625408E+02 0.  0.
        254    2    1    2    0    0 -0.22995325297E+03 -0.13082190364E+04  0.68886023096E+03  0.17500153286E+04  0.90758453412E+03 0.  0.
         23    2    4    4    0    0 -0.23455800371E+03 -0.14322892176E+04  0.63798382174E+03  0.15879380666E+04  0.89744563339E+02 0.  0.
         23    2    4    4    0    0  0.46047507377E+01  0.12407018118E+03  0.50876409226E+02  0.16207726194E+03  0.90917634347E+02 0.  0.
          2    1    3    3  502    0  0.17743427069E+03  0.11137998816E+04 -0.44698360075E+03  0.12131889532E+04  0.00000000000E+00 0. -1.
         -1    1    3    3    0  502  0.52518982283E+02  0.19441915479E+03 -0.52972019572E+02  0.20823805154E+03  0.00000000000E+00 0.  1.
         11    1    5    5    0    0 -0.11117775309E+03 -0.65344539385E+03  0.24285445680E+03  0.70592468629E+03  0.00000000000E+00 0. -1.
        -11    1    5    5    0    0 -0.12338025062E+03 -0.77884382375E+03  0.39512936494E+03  0.88201338032E+03  0.00000000000E+00 0.  1.
          1    1    6    6  503    0  0.26720227066E+02  0.10354971143E+03  0.68632564999E+02  0.12707061914E+03  0.00000000000E+00 0. -1.
         -1    1    6    6    0  503 -0.22115476328E+02  0.20520469750E+02 -0.17756155773E+02  0.35006642796E+02  0.00000000000E+00 0.  1.
<mgrwt>
<rscale>  0 0.31658114E+04</rscale>
<asrwt>0</asrwt>
<pdfrwt beam="1">  1        2 0.25848823E+00 0.31658114E+04</pdfrwt>
<pdfrwt beam="2">  1       -1 0.22942598E+00 0.31658114E+04</pdfrwt>
<totfact> 0.92067990E-01</totfact>
</mgrwt>
</event>
<event>
12    6  0.1611689E-007  0.1230689E+04  0.7818608E-02  0.9086411E-01
          2   -1    0    0  501    0  0.00000000000E+00  0.00000000000E+00  0.75962980790E+03  0.75962980790E+03  0.00000000000E+00 0. -1.
         -1   -1    0    0    0  501 -0.00000000000E+00 -0.00000000000E+00 -0.49846487154E+03  0.49846487154E+03  0.00000000000E+00 0.  1.
         24    2    1    2    0    0  0.21986362015E+03 -0.57940383608E+02  0.21947109535E+03  0.32578478085E+03  0.79190038666E+02 0.  0.
        254    2    1    2    0    0 -0.21986362015E+03  0.57940383608E+02  0.41693841005E+02  0.93230989859E+03  0.90319780287E+03 0.  0.
         23    2    4    4    0    0 -0.44832358425E+03 -0.16655176541E+03  0.24232126350E+03  0.54418530043E+03  0.93190770519E+02 0.  0.
         23    2    4    4    0    0  0.22845996410E+03  0.22449214902E+03 -0.20062742249E+03  0.38812459815E+03  0.88310026982E+02 0.  0.
          2    1    3    3  502    0  0.15630276528E+03 -0.70438519228E+02  0.18567791408E+03  0.25272203545E+03  0.00000000000E+00 0. -1.
         -1    1    3    3    0  502  0.63560854868E+02  0.12498135619E+02  0.33793181275E+02  0.73062745406E+02  0.00000000000E+00 0.  1.
         11    1    5    5    0    0 -0.43426545560E+03 -0.16258453321E+03  0.21064838452E+03  0.50930635012E+03  0.00000000000E+00 0. -1.
        -11    1    5    5    0    0 -0.14058128644E+02 -0.39672322034E+01  0.31672878979E+02  0.34878950316E+02  0.00000000000E+00 0.  1.
          3    1    6    6  503    0  0.22607811279E+03  0.19656619639E+03 -0.19977782065E+03  0.36008437937E+03  0.00000000000E+00 0. -1.
         -3    1    6    6    0  503  0.23818513136E+01  0.27925952630E+02 -0.84960184673E+00  0.28040218780E+02  0.00000000000E+00 0.  1.
<mgrwt>
<rscale>  0 0.12306889E+04</rscale>
<asrwt>0</asrwt>
<pdfrwt beam="1">  1        2 0.11686613E+00 0.12306889E+04</pdfrwt>
<pdfrwt beam="2">  1       -1 0.76686903E-01 0.12306889E+04</pdfrwt>
<totfact> 0.70792379E+01</totfact>
</mgrwt>
</event>
<event>
12    6  0.1611689E-007  0.2607018E+04  0.7818608E-02  0.8365821E-01
         -1   -1    0    0    0  501 -0.00000000000E+00  0.00000000000E+00  0.15152582479E+04  0.15152582479E+04  0.00000000000E+00 0.  1.
          2   -1    0    0  501    0  0.00000000000E+00 -0.00000000000E+00 -0.11213507956E+04  0.11213507956E+04  0.00000000000E+00 0. -1.
         24    2    1    2    0    0  0.49910906810E+03  0.73608567239E+03  0.90819651862E+03  0.12736026510E+04  0.79440652514E+02 0.  0.
        254    2    1    2    0    0 -0.49910906810E+03 -0.73608567239E+03 -0.51428906637E+03  0.13630063925E+04  0.89574617115E+03 0.  0.
         23    2    4    4    0    0  0.88346189598E+01 -0.59043212330E+03  0.32384604425E+02  0.59707342003E+03  0.82217781427E+02 0.  0.
         23    2    4    4    0    0 -0.50794368706E+03 -0.14565354909E+03 -0.54667367079E+03  0.76593297243E+03  0.92625430261E+02 0.  0.
          2    1    3    3  502    0  0.49187643837E+02  0.42641901159E+02  0.84338529546E+02  0.10653986863E+03  0.00000000000E+00 0. -1.
         -1    1    3    3    0  502  0.44992142426E+03  0.69344377123E+03  0.82385798907E+03  0.11670627824E+04  0.00000000000E+00 0.  1.
         11    1    5    5    0    0  0.14185279130E+02 -0.25992844221E+03  0.53863021637E+02  0.26582934810E+03  0.00000000000E+00 0. -1.
        -11    1    5    5    0    0 -0.53506601702E+01 -0.33050368109E+03 -0.21478417212E+02  0.33124407193E+03  0.00000000000E+00 0.  1.
          3    1    6    6  503    0 -0.22223202090E+03 -0.11160565365E+03 -0.25893735634E+03  0.35901455061E+03  0.00000000000E+00 0. -1.
         -3    1    6    6    0  503 -0.28571166616E+03 -0.34047895444E+02 -0.28773631445E+03  0.40691842182E+03  0.00000000000E+00 0.  1.
<mgrwt>
<rscale>  0 0.26070183E+04</rscale>
<asrwt>0</asrwt>
<pdfrwt beam="1">  1        2 0.17251551E+00 0.26070183E+04</pdfrwt>
<pdfrwt beam="2">  1       -1 0.23311665E+00 0.26070183E+04</pdfrwt>
<totfact> 0.19168473E+00</totfact>
</mgrwt>
</event>
<event>
12    6  0.1611689E-007  0.1124106E+04  0.7818608E-02  0.9182010E-01
          2   -1    0    0  501    0  0.00000000000E+00  0.00000000000E+00  0.77907952042E+03  0.77907952042E+03  0.00000000000E+00 0. -1.
         -1   -1    0    0    0  501 -0.00000000000E+00 -0.00000000000E+00 -0.40548294436E+03  0.40548294436E+03  0.00000000000E+00 0.  1.
         24    2    1    2    0    0 -0.17728733833E+02 -0.46387106077E+02 -0.12702382916E+03  0.15808064531E+03  0.79927252127E+02 0.  0.
        254    2    1    2    0    0  0.17728733833E+02  0.46387106077E+02  0.50062040522E+03  0.10264818195E+04  0.89475028023E+03 0.  0.
         23    2    4    4    0    0  0.43377641243E+03  0.59425160667E+02  0.14215559587E+03  0.46971630502E+03  0.93444465129E+02 0.  0.
         23    2    4    4    0    0 -0.41604767860E+03 -0.13038054590E+02  0.35846480935E+03  0.55676551445E+03  0.90692650194E+02 0.  0.
          4    1    3    3  502    0  0.20659038328E+02  0.69090145001E+01 -0.61753680357E+02  0.65483183976E+02  0.00000000000E+00 0. -1.
         -3    1    3    3    0  502 -0.38387772161E+02 -0.53296120577E+02 -0.65270148801E+02  0.92597461329E+02  0.00000000000E+00 0.  1.
         11    1    5    5    0    0 -0.22823675602E+01  0.50326807534E+01 -0.37622568228E+01  0.66851816464E+01  0.00000000000E+00 0.  1.
        -11    1    5    5    0    0  0.43605878000E+03  0.54392479913E+02  0.14591785269E+03  0.46303112338E+03  0.00000000000E+00 0. -1.
          1    1    6    6  503    0 -0.30822080345E+03  0.30453292123E+02  0.25775777300E+03  0.40294731197E+03  0.00000000000E+00 0. -1.
         -1    1    6    6    0  503 -0.10782687515E+03 -0.43491346712E+02  0.10070703635E+03  0.15381820248E+03  0.00000000000E+00 0.  1.
<mgrwt>
<rscale>  0 0.11241058E+04</rscale>
<asrwt>0</asrwt>
<pdfrwt beam="1">  1        2 0.11985839E+00 0.11241058E+04</pdfrwt>
<pdfrwt beam="2">  1       -1 0.62381991E-01 0.11241058E+04</pdfrwt>
<totfact> 0.10527171E+02</totfact>
</mgrwt>
</event>
<event>
12    6  0.1611689E-007  0.3268116E+04  0.7818608E-02  0.8171056E-01
         -1   -1    0    0    0  501 -0.00000000000E+00  0.00000000000E+00  0.25971351052E+04  0.25971351052E+04  0.00000000000E+00 0.  1.
          2   -1    0    0  501    0  0.00000000000E+00 -0.00000000000E+00 -0.10281120020E+04  0.10281120020E+04  0.00000000000E+00 0. -1.
         24    2    1    2    0    0 -0.12277228890E+04 -0.59573629135E+03  0.13003428634E+02  0.13670295431E+04  0.79971629550E+02 0.  0.
        254    2    1    2    0    0  0.12277228890E+04  0.59573629135E+03  0.15560196746E+04  0.22582175640E+04  0.90340695024E+03 0.  0.
         23    2    4    4    0    0 -0.11140633114E+03  0.92943266316E+02  0.33095065022E+03  0.37275350440E+03  0.91471420607E+02 0.  0.
         23    2    4    4    0    0  0.13391292202E+04  0.50279302503E+03  0.12250690244E+04  0.18854640596E+04  0.90070591249E+02 0.  0.
          2    1    3    3  502    0 -0.93371987859E+03 -0.47885215785E+03  0.34493342533E+02  0.10499152306E+04  0.00000000000E+00 0. -1.
         -1    1    3    3    0  502 -0.29400301042E+03 -0.11688413350E+03 -0.21489913899E+02  0.31711431251E+03  0.00000000000E+00 0.  1.
         11    1    5    5    0    0 -0.43564507921E+02  0.82015927408E+02  0.24929867601E+03  0.26603441236E+03  0.00000000000E+00 0. -1.
        -11    1    5    5    0    0 -0.67841823217E+02  0.10927338908E+02  0.81651974213E+02  0.10671909204E+03  0.00000000000E+00 0.  1.
          1    1    6    6  503    0  0.12199647323E+04  0.44049961418E+03  0.10817914290E+04  0.16889720406E+04  0.00000000000E+00 0. -1.
         -1    1    6    6    0  503  0.11916448789E+03  0.62293410846E+02  0.14327759539E+03  0.19649201905E+03  0.00000000000E+00 0.  1.
<mgrwt>
<rscale>  0 0.32681161E+04</rscale>
<asrwt>0</asrwt>
<pdfrwt beam="1">  1        2 0.15817108E+00 0.32681161E+04</pdfrwt>
<pdfrwt beam="2">  1       -1 0.39955925E+00 0.32681161E+04</pdfrwt>
<totfact> 0.16596518E-01</totfact>
</mgrwt>
</event>
<event>
12    6  0.1611689E-007  0.2316303E+04  0.7818608E-02  0.8471521E-01
         -1   -1    0    0    0  501 -0.00000000000E+00  0.00000000000E+00  0.99949807354E+03  0.99949807354E+03  0.00000000000E+00 0.  1.
          2   -1    0    0  501    0  0.00000000000E+00 -0.00000000000E+00 -0.13419883564E+04  0.13419883564E+04  0.00000000000E+00 0. -1.
         24    2    1    2    0    0 -0.22833086731E+03 -0.66195037926E+03  0.56191494440E+03  0.90120338243E+03  0.78139888647E+02 0.  0.
        254    2    1    2    0    0  0.22833086731E+03  0.66195037926E+03 -0.90440522730E+03  0.14402830476E+04  0.87530174930E+03 0.  0.
         23    2    4    4    0    0 -0.18707666222E+03  0.30410433908E+03 -0.78964667289E+03  0.87251880978E+03  0.10134139739E+03 0.  0.
         23    2    4    4    0    0  0.41540752952E+03  0.35784604018E+03 -0.11475855442E+03  0.56776423777E+03  0.92571592980E+02 0.  0.
          2    1    3    3  502    0 -0.39656492395E+02 -0.11913502717E+03  0.64505504490E+02  0.14116214860E+03  0.00000000000E+00 0. -1.
         -1    1    3    3    0  502 -0.18867437491E+03 -0.54281535210E+03  0.49740943991E+03  0.76004123384E+03  0.00000000000E+00 0.  1.
         11    1    5    5    0    0 -0.36903519364E+02  0.13382631128E+03 -0.23106827395E+03  0.26956242052E+03  0.00000000000E+00 0.  1.
        -11    1    5    5    0    0 -0.15017314285E+03  0.17027802780E+03 -0.55857839894E+03  0.60295638926E+03  0.00000000000E+00 0. -1.
          4    1    6    6  503    0  0.36551066981E+03  0.34781143385E+03 -0.96520959087E+02  0.51369946350E+03  0.00000000000E+00 0. -1.
         -4    1    6    6    0  503  0.49896859715E+02  0.10034606331E+02 -0.18237595329E+02  0.54064774271E+02  0.00000000000E+00 0.  1.
<mgrwt>
<rscale>  0 0.23163029E+04</rscale>
<asrwt>0</asrwt>
<pdfrwt beam="1">  1        2 0.20645975E+00 0.23163029E+04</pdfrwt>
<pdfrwt beam="2">  1       -1 0.15376893E+00 0.23163029E+04</pdfrwt>
<totfact> 0.52593189E+00</totfact>
</mgrwt>
</event>
<event>
12    6  0.1611689E-007  0.1752160E+04  0.7818608E-02  0.8732162E-01
         -1   -1    0    0    0  501 -0.00000000000E+00  0.00000000000E+00  0.14554337939E+04  0.14554337939E+04  0.00000000000E+00 0.  1.
          2   -1    0    0  501    0  0.00000000000E+00 -0.00000000000E+00 -0.52734508674E+03  0.52734508674E+03  0.00000000000E+00 0. -1.
         24    2    1    2    0    0 -0.34755716431E+03  0.28204388607E+03  0.85363152528E+03  0.96719073210E+03  0.80164800084E+02 0.  0.
        254    2    1    2    0    0  0.34755716431E+03 -0.28204388607E+03  0.74457181866E+02  0.10155881485E+04  0.90858718865E+03 0.  0.
         23    2    4    4    0    0 -0.19349915589E+03 -0.23871973435E+03  0.28177649555E+03  0.42694829591E+03  0.91966401656E+02 0.  0.
         23    2    4    4    0    0  0.54105632020E+03 -0.43324151714E+02 -0.20731931369E+03  0.58863985263E+03  0.94322078659E+02 0.  0.
          2    1    3    3  502    0 -0.82093725701E+02  0.52060889660E+02  0.12524233137E+03  0.15854134350E+03  0.00000000000E+00 0. -1.
         -1    1    3    3    0  502 -0.26546343860E+03  0.22998299640E+03  0.72838919391E+03  0.80864938860E+03  0.00000000000E+00 0.  1.
         11    1    5    5    0    0 -0.61654102728E+02 -0.57115071554E+02  0.28954595808E+02  0.88891666652E+02  0.00000000000E+00 0.  1.
        -11    1    5    5    0    0 -0.13184505317E+03 -0.18160466280E+03  0.25282189975E+03  0.33805662926E+03  0.00000000000E+00 0. -1.
          4    1    6    6  503    0  0.47465810546E+03 -0.51961661492E+02 -0.20999134828E+03  0.52162888886E+03  0.00000000000E+00 0. -1.
         -4    1    6    6    0  503  0.66398214739E+02  0.86375097778E+01  0.26720345905E+01  0.67010963764E+02  0.00000000000E+00 0.  1.
<mgrwt>
<rscale>  0 0.17521597E+04</rscale>
<asrwt>0</asrwt>
<pdfrwt beam="1">  1        2 0.81130014E-01 0.17521597E+04</pdfrwt>
<pdfrwt beam="2">  1       -1 0.22391289E+00 0.17521597E+04</pdfrwt>
<totfact> 0.64911317E+00</totfact>
</mgrwt>
</event>
<event>
12    6  0.1611689E-007  0.1736844E+04  0.7818608E-02  0.8740626E-01
          2   -1    0    0  501    0  0.00000000000E+00  0.00000000000E+00  0.97316162737E+03  0.97316162737E+03  0.00000000000E+00 0. -1.
         -1   -1    0    0    0  501 -0.00000000000E+00 -0.00000000000E+00 -0.77495505969E+03  0.77495505969E+03  0.00000000000E+00 0.  1.
         24    2    1    2    0    0  0.25539642569E+03  0.27843474921E+03  0.56996070993E+03  0.68843421956E+03  0.79581530369E+02 0.  0.
        254    2    1    2    0    0 -0.25539642569E+03 -0.27843474921E+03 -0.37175414225E+03  0.10596824675E+04  0.91759061996E+03 0.  0.
         23    2    4    4    0    0  0.29430805855E+03 -0.97689241244E+02 -0.34605350622E+03  0.47345755640E+03  0.90821844055E+02 0.  0.
         23    2    4    4    0    0 -0.54970448424E+03 -0.18074550796E+03 -0.25700636023E+02  0.58622491111E+03  0.90305952595E+02 0.  0.
          4    1    3    3  502    0  0.20393556301E+03  0.21523674596E+03  0.49862926764E+03  0.58012732845E+03  0.00000000000E+00 0. -1.
         -3    1    3    3    0  502  0.51460862677E+02  0.63198003244E+02  0.71331442291E+02  0.10830689111E+03  0.00000000000E+00 0.  1.
         11    1    5    5    0    0  0.43495936112E+02 -0.49085006701E+02 -0.50387515915E+02  0.82705115327E+02  0.00000000000E+00 0. -1.
        -11    1    5    5    0    0  0.25081212244E+03 -0.48604234543E+02 -0.29566599031E+03  0.39075244107E+03  0.00000000000E+00 0.  1.
          3    1    6    6  503    0 -0.17150167737E+03 -0.89873787060E+02  0.19674137830E+02  0.19462064289E+03  0.00000000000E+00 0. -1.
         -3    1    6    6    0  503 -0.37820280687E+03 -0.90871720902E+02 -0.45374773853E+02  0.39160426822E+03  0.00000000000E+00 0.  1.
<mgrwt>
<rscale>  0 0.17368437E+04</rscale>
<asrwt>0</asrwt>
<pdfrwt beam="1">  1        2 0.14971717E+00 0.17368437E+04</pdfrwt>
<pdfrwt beam="2">  1       -1 0.11922386E+00 0.17368437E+04</pdfrwt>
<totfact> 0.17855211E+01</totfact>
</mgrwt>
</event>
<event>
12    6  0.1611689E-007  0.1486784E+04  0.7818608E-02  0.8893289E-01
         -1   -1    0    0    0  501 -0.00000000000E+00  0.00000000000E+00  0.55291910528E+03  0.55291910528E+03  0.00000000000E+00 0.  1.
          2   -1    0    0  501    0  0.00000000000E+00 -0.00000000000E+00 -0.99947983072E+03  0.99947983072E+03  0.00000000000E+00 0. -1.
         24    2    1    2    0    0  0.18829233080E+03 -0.18576112169E+03 -0.54567562788E+03  0.61164496355E+03  0.79915420317E+02 0.  0.
        254    2    1    2    0    0 -0.18829233080E+03  0.18576112169E+03  0.99114902443E+02  0.94075397245E+03  0.89734780137E+03 0.  0.
         23    2    4    4    0    0 -0.49483439402E+03  0.28869411964E+03  0.15507138256E+03  0.60052164683E+03  0.91508154844E+02 0.  0.
         23    2    4    4    0    0  0.30654206322E+03 -0.10293299795E+03 -0.55956480119E+02  0.34023232562E+03  0.89797935062E+02 0.  0.
          2    1    3    3  502    0  0.68291366751E+02 -0.36233349228E+02 -0.22629813822E+03  0.23913890050E+03  0.00000000000E+00 0. -1.
         -1    1    3    3    0  502  0.12000096405E+03 -0.14952777246E+03 -0.31937748966E+03  0.37250606305E+03  0.00000000000E+00 0.  1.
         11    1    5    5    0    0 -0.29214399072E+03  0.13867677335E+03  0.49530700630E+02  0.32715844645E+03  0.00000000000E+00 0.  1.
        -11    1    5    5    0    0 -0.20269040329E+03  0.15001734629E+03  0.10554068193E+03  0.27336320037E+03  0.00000000000E+00 0. -1.
          1    1    6    6  503    0  0.26705922989E+03 -0.64954276357E+02 -0.21878616296E+02  0.27571427990E+03  0.00000000000E+00 0. -1.
         -1    1    6    6    0  503  0.39482833323E+02 -0.37978721594E+02 -0.34077863823E+02  0.64518045723E+02  0.00000000000E+00 0.  1.
<mgrwt>
<rscale>  0 0.14867838E+04</rscale>
<asrwt>0</asrwt>
<pdfrwt beam="1">  1        2 0.15376613E+00 0.14867838E+04</pdfrwt>
<pdfrwt beam="2">  1       -1 0.85064479E-01 0.14867838E+04</pdfrwt>
<totfact> 0.38028284E+01</totfact>
</mgrwt>
</event>
<event>
12    6  0.1611689E-007  0.1319495E+04  0.7818608E-02  0.9014247E-01
         -1   -1    0    0    0  501 -0.00000000000E+00  0.00000000000E+00  0.18652057818E+03  0.18652057818E+03  0.00000000000E+00 0.  1.
          2   -1    0    0  501    0  0.00000000000E+00 -0.00000000000E+00 -0.23336121500E+04  0.23336121500E+04  0.00000000000E+00 0. -1.
         24    2    1    2    0    0  0.84870375538E+02 -0.30574702658E+03 -0.76566809264E+03  0.83290632174E+03  0.82468707985E+02 0.  0.
        254    2    1    2    0    0 -0.84870375538E+02  0.30574702658E+03 -0.13814234792E+04  0.16872264064E+04  0.91526930072E+03 0.  0.
         23    2    4    4    0    0 -0.95701121089E+02  0.59915170131E+03 -0.65238966518E+03  0.89596252617E+03  0.94842539570E+02 0.  0.
         23    2    4    4    0    0  0.10830745551E+02 -0.29340467474E+03 -0.72903381399E+03  0.79126388026E+03  0.91676703954E+02 0.  0.
          2    1    3    3  502    0  0.51185075212E+02 -0.27726155592E+03 -0.62914215848E+03  0.68943000942E+03  0.00000000000E+00 0. -1.
         -1    1    3    3    0  502  0.33685300326E+02 -0.28485470653E+02 -0.13652593417E+03  0.14347631232E+03  0.00000000000E+00 0.  1.
         11    1    5    5    0    0 -0.52956134603E+02  0.37363250945E+03 -0.47024297519E+03  0.60293785752E+03  0.00000000000E+00 0. -1.
        -11    1    5    5    0    0 -0.42744986486E+02  0.22551919186E+03 -0.18214668998E+03  0.29302466866E+03  0.00000000000E+00 0.  1.
          2    1    6    6  503    0  0.18924916110E+02 -0.27380803330E+03 -0.59112126986E+03  0.65173103903E+03  0.00000000000E+00 0. -1.
         -2    1    6    6    0  503 -0.80941705583E+01 -0.19596641436E+02 -0.13791254413E+03  0.13953284123E+03  0.00000000000E+00 0.  1.
<mgrwt>
<rscale>  0 0.13194949E+04</rscale>
<asrwt>0</asrwt>
<pdfrwt beam="1">  1        2 0.35901725E+00 0.13194949E+04</pdfrwt>
<pdfrwt beam="2">  1       -1 0.28695474E-01 0.13194949E+04</pdfrwt>
<totfact> 0.53516459E+01</totfact>
</mgrwt>
</event>
<event>
12    6  0.1611689E-007  0.3518772E+04  0.7818608E-02  0.8109356E-01
          2   -1    0    0  501    0  0.00000000000E+00  0.00000000000E+00  0.23983545603E+04  0.23983545603E+04  0.00000000000E+00 0. -1.
         -1   -1    0    0    0  501 -0.00000000000E+00 -0.00000000000E+00 -0.12906509759E+04  0.12906509759E+04  0.00000000000E+00 0.  1.
         24    2    1    2    0    0  0.15707878991E+04 -0.26802438929E+03  0.95896282205E+02  0.15983724146E+04  0.79916089990E+02 0.  0.
        254    2    1    2    0    0 -0.15707878991E+04  0.26802438929E+03  0.10118073022E+04  0.20906331216E+04  0.89876645194E+03 0.  0.
         23    2    4    4    0    0 -0.13806480663E+04 -0.93771741351E+02  0.91007289929E+03  0.16587356732E+04  0.90493807676E+02 0.  0.
         23    2    4    4    0    0 -0.19013983282E+03  0.36179613064E+03  0.10173440293E+03  0.43189744837E+03  0.95582011929E+02 0.  0.
          4    1    3    3  502    0  0.65606154526E+03 -0.77906062006E+02  0.60351961771E+02  0.66342178511E+03  0.00000000000E+00 0. -1.
         -3    1    3    3    0  502  0.91472635384E+03 -0.19011832728E+03  0.35544320434E+02  0.93495062945E+03  0.00000000000E+00 0.  1.
         11    1    5    5    0    0 -0.18184379680E+03 -0.13942700360E+02  0.15801880345E+03  0.24131205435E+03  0.00000000000E+00 0. -1.
        -11    1    5    5    0    0 -0.11988042695E+04 -0.79829040992E+02  0.75205409584E+03  0.14174236189E+04  0.00000000000E+00 0.  1.
          4    1    6    6  503    0 -0.58026709417E+01  0.71744260697E+02  0.41197912171E+02  0.82934781005E+02  0.00000000000E+00 0.  1.
         -4    1    6    6    0  503 -0.18433716187E+03  0.29005186994E+03  0.60536490760E+02  0.34896266737E+03  0.00000000000E+00 0. -1.
<mgrwt>
<rscale>  0 0.35187717E+04</rscale>
<asrwt>0</asrwt>
<pdfrwt beam="1">  1        2 0.36897762E+00 0.35187717E+04</pdfrwt>
<pdfrwt beam="2">  1       -1 0.19856169E+00 0.35187717E+04</pdfrwt>
<totfact> 0.57209558E-01</totfact>
</mgrwt>
</event>
<event>
12    6  0.1611689E-007  0.1274771E+04  0.7818608E-02  0.9049814E-01
         -1   -1    0    0    0  501 -0.00000000000E+00  0.00000000000E+00  0.55538577614E+03  0.55538577614E+03  0.00000000000E+00 0.  1.
          2   -1    0    0  501    0  0.00000000000E+00 -0.00000000000E+00 -0.73149252074E+03  0.73149252074E+03  0.00000000000E+00 0. -1.
         24    2    1    2    0    0  0.21737582493E+03  0.19337489397E+03  0.10029803136E+03  0.31776796599E+03  0.79187664648E+02 0.  0.
        254    2    1    2    0    0 -0.21737582493E+03 -0.19337489397E+03 -0.27640477596E+03  0.96911033090E+03  0.88211628168E+03 0.  0.
         23    2    4    4    0    0 -0.40761718093E+03  0.12423728628E+03  0.84615685786E+02  0.44402396771E+03  0.91710414500E+02 0.  0.
         23    2    4    4    0    0  0.19024135600E+03 -0.31761218025E+03 -0.36102046175E+03  0.52508636319E+03  0.91162735949E+02 0.  0.
          2    1    3    3  502    0  0.22177608379E+02  0.23800241983E+02  0.41264348902E+02  0.52545640373E+02  0.00000000000E+00 0. -1.
         -1    1    3    3    0  502  0.19519821655E+03  0.16957465198E+03  0.59033682462E+02  0.26522232562E+03  0.00000000000E+00 0.  1.
         11    1    5    5    0    0 -0.22852597888E+03  0.11065512040E+03  0.72284317427E+02  0.26399564626E+03  0.00000000000E+00 0.  1.
        -11    1    5    5    0    0 -0.17909120205E+03  0.13582165883E+02  0.12331368360E+02  0.18002832146E+03  0.00000000000E+00 0. -1.
          3    1    6    6  503    0  0.78343912330E+01 -0.10933289882E+01 -0.33586998692E+02  0.34505934785E+02  0.00000000000E+00 0. -1.
         -3    1    6    6    0  503  0.18240696477E+03 -0.31651885126E+03 -0.32743346306E+03  0.49058042840E+03  0.00000000000E+00 0.  1.
<mgrwt>
<rscale>  0 0.12747714E+04</rscale>
<asrwt>0</asrwt>
<pdfrwt beam="1">  1        2 0.11253731E+00 0.12747714E+04</pdfrwt>
<pdfrwt beam="2">  1       -1 0.85443966E-01 0.12747714E+04</pdfrwt>
<totfact> 0.58820126E+01</totfact>
</mgrwt>
</event>
<event>
12    6  0.1611689E-007  0.1403195E+04  0.7818608E-02  0.8951509E-01
         -1   -1    0    0    0  501 -0.00000000000E+00  0.00000000000E+00  0.16967999356E+04  0.16967999356E+04  0.00000000000E+00 0.  1.
          2   -1    0    0  501    0  0.00000000000E+00 -0.00000000000E+00 -0.29009834371E+03  0.29009834371E+03  0.00000000000E+00 0. -1.
         24    2    1    2    0    0 -0.39462086151E+03 -0.61956308946E+02  0.54358051159E+03  0.67901205699E+03  0.77546066336E+02 0.  0.
        254    2    1    2    0    0  0.39462086151E+03  0.61956308946E+02  0.86312108027E+03  0.13078862223E+04  0.89778848438E+03 0.  0.
         23    2    4    4    0    0  0.29116830309E+03 -0.17053432354E+03 -0.51229700935E+02  0.35431489671E+03  0.95150551969E+02 0.  0.
         23    2    4    4    0    0  0.10345255842E+03  0.23249063249E+03  0.91435078121E+03  0.95357132558E+03  0.92231208620E+02 0.  0.
          4    1    3    3  502    0 -0.16858326543E+03 -0.51976626035E+02  0.28736300600E+03  0.33719339296E+03  0.00000000000E+00 0. -1.
         -3    1    3    3    0  502 -0.22603759607E+03 -0.99796829107E+01  0.25621750559E+03  0.34181866403E+03  0.00000000000E+00 0.  1.
         11    1    5    5    0    0  0.26102721051E+03 -0.11545544693E+03 -0.25837850157E+02  0.28658813540E+03  0.00000000000E+00 0.  1.
        -11    1    5    5    0    0  0.30141092577E+02 -0.55078876612E+02 -0.25391850777E+02  0.67726761302E+02  0.00000000000E+00 0. -1.
          2    1    6    6  503    0 -0.85186777255E+01  0.40348018758E+02  0.78877014014E+02  0.89006257238E+02  0.00000000000E+00 0. -1.
         -2    1    6    6    0  503  0.11197123614E+03  0.19214261373E+03  0.83547376719E+03  0.86456506835E+03  0.00000000000E+00 0.  1.
<mgrwt>
<rscale>  0 0.14031947E+04</rscale>
<asrwt>0</asrwt>
<pdfrwt beam="1">  1        2 0.44630516E-01 0.14031947E+04</pdfrwt>
<pdfrwt beam="2">  1       -1 0.26104614E+00 0.14031947E+04</pdfrwt>
<totfact> 0.75153570E+00</totfact>
</mgrwt>
</event>
<event>
12    6  0.1611689E-007  0.1971370E+04  0.7818608E-02  0.8620124E-01
         -1   -1    0    0    0  501 -0.00000000000E+00  0.00000000000E+00  0.56309878434E+03  0.56309878434E+03  0.00000000000E+00 0.  1.
          2   -1    0    0  501    0  0.00000000000E+00 -0.00000000000E+00 -0.17254083372E+04  0.17254083372E+04  0.00000000000E+00 0. -1.
         24    2    1    2    0    0  0.77167217302E+03  0.84003665918E+02 -0.38430129819E+03  0.86981687234E+03  0.79745502134E+02 0.  0.
        254    2    1    2    0    0 -0.77167217302E+03 -0.84003665918E+02 -0.77800825465E+03  0.14186902492E+04  0.89713467233E+03 0.  0.
         23    2    4    4    0    0 -0.47018378478E+03 -0.50311523465E+02 -0.94483674488E+03  0.10606937440E+04  0.93545193368E+02 0.  0.
         23    2    4    4    0    0 -0.30148838825E+03 -0.33692142453E+02  0.16682849023E+03  0.35799650519E+03  0.91100734699E+02 0.  0.
          2    1    3    3  502    0  0.35106069305E+03  0.72028786758E+01 -0.14552527027E+03  0.38009616672E+03  0.00000000000E+00 0. -1.
         -1    1    3    3    0  502  0.42061147997E+03  0.76800787242E+02 -0.23877602792E+03  0.48972070562E+03  0.00000000000E+00 0.  1.
         11    1    5    5    0    0 -0.39932431752E+03 -0.31283037310E+02 -0.71651288045E+03  0.82087102935E+03  0.00000000000E+00 0. -1.
        -11    1    5    5    0    0 -0.70859467254E+02 -0.19028486155E+02 -0.22832386443E+03  0.23982271463E+03  0.00000000000E+00 0.  1.
          2    1    6    6  503    0 -0.73223419885E+02  0.12649447752E+02  0.52003805246E+01  0.74489742285E+02  0.00000000000E+00 0.  1.
         -2    1    6    6    0  503 -0.22826496836E+03 -0.46341590205E+02  0.16162810970E+03  0.28350676290E+03  0.00000000000E+00 0. -1.
<mgrwt>
<rscale>  0 0.19713704E+04</rscale>
<asrwt>0</asrwt>
<pdfrwt beam="1">  1        2 0.26544744E+00 0.19713704E+04</pdfrwt>
<pdfrwt beam="2">  1       -1 0.86630582E-01 0.19713704E+04</pdfrwt>
<totfact> 0.13224513E+01</totfact>
</mgrwt>
</event>
<event>
12    6  0.1611689E-007  0.1671073E+04  0.7818608E-02  0.8778037E-01
         -1   -1    0    0    0  501 -0.00000000000E+00  0.00000000000E+00  0.59241110189E+03  0.59241110189E+03  0.00000000000E+00 0.  1.
          2   -1    0    0  501    0  0.00000000000E+00 -0.00000000000E+00 -0.11784402245E+04  0.11784402245E+04  0.00000000000E+00 0. -1.
         24    2    1    2    0    0 -0.24927018090E+03  0.44011674349E+03  0.11648897209E+03  0.52514667888E+03  0.79818436008E+02 0.  0.
        254    2    1    2    0    0  0.24927018090E+03 -0.44011674349E+03 -0.70251809470E+03  0.12457046475E+04  0.89577342251E+03 0.  0.
         23    2    4    4    0    0 -0.20393558056E+03  0.14007829773E+03 -0.30845837523E+03  0.40570128404E+03  0.90748620466E+02 0.  0.
         23    2    4    4    0    0  0.45320576145E+03 -0.58019504122E+03 -0.39405971947E+03  0.84000336347E+03  0.91108946105E+02 0.  0.
          2    1    3    3  502    0 -0.51466512377E+02  0.43069048367E+02  0.25601870784E+01  0.67158762506E+02  0.00000000000E+00 0. -1.
         -1    1    3    3    0  502 -0.19780366852E+03  0.39704769513E+03  0.11392878501E+03  0.45798791637E+03  0.00000000000E+00 0.  1.
         11    1    5    5    0    0 -0.47989234577E+02  0.21477372813E+02 -0.13178338037E+03  0.14188412004E+03  0.00000000000E+00 0.  1.
        -11    1    5    5    0    0 -0.15594634598E+03  0.11860092491E+03 -0.17667499486E+03  0.26381716400E+03  0.00000000000E+00 0. -1.
          3    1    6    6  503    0  0.12499720708E+03 -0.15949716797E+03 -0.15596293583E+03  0.25571094173E+03  0.00000000000E+00 0. -1.
         -3    1    6    6    0  503  0.32820855437E+03 -0.42069787325E+03 -0.23809678364E+03  0.58429242174E+03  0.00000000000E+00 0.  1.
<mgrwt>
<rscale>  0 0.16710728E+04</rscale>
<asrwt>0</asrwt>
<pdfrwt beam="1">  1        2 0.18129849E+00 0.16710728E+04</pdfrwt>
<pdfrwt beam="2">  1       -1 0.91140171E-01 0.16710728E+04</pdfrwt>
<totfact> 0.24933554E+01</totfact>
</mgrwt>
</event>
<event>
12    6  0.1611689E-007  0.1922952E+04  0.7818608E-02  0.8643515E-01
         -1   -1    0    0    0  501 -0.00000000000E+00  0.00000000000E+00  0.27078847540E+03  0.27078847540E+03  0.00000000000E+00 0.  1.
          2   -1    0    0  501    0  0.00000000000E+00 -0.00000000000E+00 -0.34138690062E+04  0.34138690062E+04  0.00000000000E+00 0. -1.
         24    2    1    2    0    0 -0.51517198463E+02 -0.38955658006E+03 -0.24544374196E+04  0.24863951078E+04  0.59069743449E+02 0.  0.
        254    2    1    2    0    0  0.51517198463E+02  0.38955658006E+03 -0.68864311119E+03  0.11982623738E+04  0.89844033247E+03 0.  0.
         23    2    4    4    0    0 -0.32999622170E+02 -0.93607839487E+02 -0.68702943813E+03  0.69889897278E+03  0.81233752902E+02 0.  0.
         23    2    4    4    0    0  0.84516820633E+02  0.48316441955E+03 -0.16136730542E+01  0.49936340100E+03  0.93649629096E+02 0.  0.
          4    1    3    3  502    0 -0.16506548991E+02 -0.23592603691E+03 -0.16254712469E+04  0.16425864774E+04  0.00000000000E+00 0. -1.
         -3    1    3    3    0  502 -0.35010649472E+02 -0.15363054315E+03 -0.82896617269E+03  0.84380863046E+03  0.00000000000E+00 0.  1.
         11    1    5    5    0    0 -0.35313138259E+02 -0.19875624359E+02 -0.11100336545E+03  0.11816854623E+03  0.00000000000E+00 0. -1.
        -11    1    5    5    0    0  0.23135160890E+01 -0.73732215128E+02 -0.57602607268E+03  0.58073042655E+03  0.00000000000E+00 0.  1.
          3    1    6    6  503    0  0.29139356025E+02  0.66747941648E+02  0.28486085471E+02  0.78203880015E+02  0.00000000000E+00 0. -1.
         -3    1    6    6    0  503  0.55377464608E+02  0.41641647790E+03 -0.30099758526E+02  0.42115952099E+03  0.00000000000E+00 0.  1.
<mgrwt>
<rscale>  0 0.19229523E+04</rscale>
<asrwt>0</asrwt>
<pdfrwt beam="1">  1        2 0.52521065E+00 0.19229523E+04</pdfrwt>
<pdfrwt beam="2">  1       -1 0.41659763E-01 0.19229523E+04</pdfrwt>
<totfact> 0.56428479E+00</totfact>
</mgrwt>
</event>
<event>
12    6  0.1611689E-007  0.3656155E+04  0.7818608E-02  0.8077749E-01
         -1   -1    0    0    0  501 -0.00000000000E+00  0.00000000000E+00  0.13277303461E+04  0.13277303461E+04  0.00000000000E+00 0.  1.
          2   -1    0    0  501    0  0.00000000000E+00 -0.00000000000E+00 -0.25169767756E+04  0.25169767756E+04  0.00000000000E+00 0. -1.
         24    2    1    2    0    0  0.82260225848E+03  0.14694274694E+04 -0.90840914097E+03  0.19149774382E+04  0.77716524578E+02 0.  0.
        254    2    1    2    0    0 -0.82260225848E+03 -0.14694274694E+04 -0.28083728853E+03  0.19297296834E+04  0.89949736235E+03 0.  0.
         23    2    4    4    0    0 -0.59273064648E+03 -0.14659977330E+04 -0.40448364797E+02  0.15846005189E+04  0.94041276563E+02 0.  0.
         23    2    4    4    0    0 -0.22987161200E+03 -0.34297363730E+01 -0.24038892374E+03  0.34512916453E+03  0.92057506249E+02 0.  0.
          4    1    3    3  502    0  0.72692584128E+03  0.12985885300E+04 -0.77370246104E+03  0.16773100033E+04  0.00000000000E+00 0. -1.
         -3    1    3    3    0  502  0.95676417200E+02  0.17083893938E+03 -0.13470667993E+03  0.23766743495E+03  0.00000000000E+00 0.  1.
         11    1    5    5    0    0 -0.40196246222E+03 -0.87185015630E+03 -0.27479520267E+02  0.96044346013E+03  0.00000000000E+00 0. -1.
        -11    1    5    5    0    0 -0.19076818426E+03 -0.59414757670E+03 -0.12968844530E+02  0.62415705872E+03  0.00000000000E+00 0.  1.
          3    1    6    6  503    0 -0.15000726191E+03  0.40048978718E+02 -0.16923828861E+03  0.22966866929E+03  0.00000000000E+00 0. -1.
         -3    1    6    6    0  503 -0.79864350095E+02 -0.43478715091E+02 -0.71150635125E+02  0.11546049524E+03  0.00000000000E+00 0.  1.
<mgrwt>
<rscale>  0 0.36561545E+04</rscale>
<asrwt>0</asrwt>
<pdfrwt beam="1">  1        2 0.38722719E+00 0.36561545E+04</pdfrwt>
<pdfrwt beam="2">  1       -1 0.20426621E+00 0.36561545E+04</pdfrwt>
<totfact> 0.44130735E-01</totfact>
</mgrwt>
</event>
<event>
12    6  0.1611689E-007  0.2273427E+04  0.7818608E-02  0.8488473E-01
          2   -1    0    0  501    0  0.00000000000E+00  0.00000000000E+00  0.17677601555E+04  0.17677601555E+04  0.00000000000E+00 0. -1.
         -1   -1    0    0    0  501 -0.00000000000E+00 -0.00000000000E+00 -0.73093517831E+03  0.73093517831E+03  0.00000000000E+00 0.  1.
         24    2    1    2    0    0 -0.15912497267E+03 -0.92567709543E+03  0.61822834050E+03  0.11273166615E+04  0.80235481141E+02 0.  0.
        254    2    1    2    0    0  0.15912497267E+03  0.92567709543E+03  0.41859663666E+03  0.13713786723E+04  0.90733537161E+03 0.  0.
         23    2    4    4    0    0 -0.15684342711E+03  0.48314454899E+03  0.59845639721E+03  0.79167421211E+03  0.10280799053E+03 0.  0.
         23    2    4    4    0    0  0.31596839977E+03  0.44253254644E+03 -0.17985976055E+03  0.57970446014E+03  0.89647327532E+02 0.  0.
          4    1    3    3  502    0 -0.10297875637E+03 -0.77281069982E+03  0.51971217455E+03  0.93698545687E+03  0.00000000000E+00 0. -1.
         -3    1    3    3    0  502 -0.56146216301E+02 -0.15286639561E+03  0.98516165947E+02  0.19033120465E+03  0.00000000000E+00 0.  1.
         11    1    5    5    0    0  0.98621531830E+01  0.15962390420E+02  0.43328702160E+02  0.47216908033E+02  0.00000000000E+00 0. -1.
        -11    1    5    5    0    0 -0.16670558029E+03  0.46718215857E+03  0.55512769505E+03  0.74445730408E+03  0.00000000000E+00 0.  1.
          3    1    6    6  503    0  0.12877103088E+02  0.63287718464E+02 -0.32821744112E+02  0.72445993532E+02  0.00000000000E+00 0. -1.
         -3    1    6    6    0  503  0.30309129669E+03  0.37924482797E+03 -0.14703801644E+03  0.50725846661E+03  0.00000000000E+00 0.  1.
<mgrwt>
<rscale>  0 0.22734274E+04</rscale>
<asrwt>0</asrwt>
<pdfrwt beam="1">  1        2 0.27196310E+00 0.22734274E+04</pdfrwt>
<pdfrwt beam="2">  1       -1 0.11245157E+00 0.22734274E+04</pdfrwt>
<totfact> 0.67365325E+00</totfact>
</mgrwt>
</event>
<event>
12    6  0.1611689E-007  0.1687477E+04  0.7818608E-02  0.8768539E-01
          2   -1    0    0  501    0  0.00000000000E+00  0.00000000000E+00  0.11455753518E+04  0.11455753518E+04  0.00000000000E+00 0. -1.
         -1   -1    0    0    0  501 -0.00000000000E+00 -0.00000000000E+00 -0.62142956891E+03  0.62142956891E+03  0.00000000000E+00 0.  1.
         24    2    1    2    0    0 -0.51334641024E+03  0.27785124492E+03  0.32530768070E+03  0.67282698501E+03  0.78391411682E+02 0.  0.
        254    2    1    2    0    0  0.51334641024E+03 -0.27785124492E+03  0.19883810222E+03  0.10941779357E+04  0.90386000739E+03 0.  0.
         23    2    4    4    0    0  0.61584143476E+03 -0.50205350002E+03  0.22331128545E+03  0.83055372376E+03  0.92914843784E+02 0.  0.
         23    2    4    4    0    0 -0.10249502452E+03  0.22420225510E+03 -0.24473183230E+02  0.26362421198E+03  0.90149360497E+02 0.  0.
          4    1    3    3  502    0 -0.41138517141E+03  0.18798632801E+03  0.26419052183E+03  0.52380650111E+03  0.00000000000E+00 0. -1.
         -3    1    3    3    0  502 -0.10196123882E+03  0.89864916910E+02  0.61117158875E+02  0.14902048390E+03  0.00000000000E+00 0.  1.
         11    1    5    5    0    0  0.24334464930E+03 -0.21905748597E+03  0.47704013082E+02  0.33087531393E+03  0.00000000000E+00 0. -1.
        -11    1    5    5    0    0  0.37249678546E+03 -0.28299601405E+03  0.17560727237E+03  0.49967840984E+03  0.00000000000E+00 0.  1.
          2    1    6    6  503    0 -0.11645547058E+02  0.25102772628E+02 -0.34886564760E+02  0.44529095664E+02  0.00000000000E+00 0.  1.
         -2    1    6    6    0  503 -0.90849477463E+02  0.19909948248E+03  0.10413381530E+02  0.21909511631E+03  0.00000000000E+00 0. -1.
<mgrwt>
<rscale>  0 0.16874767E+04</rscale>
<asrwt>0</asrwt>
<pdfrwt beam="1">  1        2 0.17624236E+00 0.16874767E+04</pdfrwt>
<pdfrwt beam="2">  1       -1 0.95604549E-01 0.16874767E+04</pdfrwt>
<totfact> 0.23427100E+01</totfact>
</mgrwt>
</event>
<event>
12    6  0.1611689E-007  0.1990851E+04  0.7818608E-02  0.8610910E-01
          2   -1    0    0  501    0  0.00000000000E+00  0.00000000000E+00  0.13489747634E+04  0.13489747634E+04  0.00000000000E+00 0. -1.
         -1   -1    0    0    0  501 -0.00000000000E+00 -0.00000000000E+00 -0.73453735482E+03  0.73453735482E+03  0.00000000000E+00 0.  1.
         24    2    1    2    0    0 -0.14091287801E+03 -0.27417866124E+03  0.10070260908E+04  0.10565024871E+04  0.84057005034E+02 0.  0.
        254    2    1    2    0    0  0.14091287801E+03  0.27417866124E+03 -0.39258868226E+03  0.10270096311E+04  0.89754806643E+03 0.  0.
         23    2    4    4    0    0 -0.29684140521E+03  0.89186672702E+02  0.97932589930E+02  0.33790035535E+03  0.92286377889E+02 0.  0.
         23    2    4    4    0    0  0.43775428322E+03  0.18499198853E+03 -0.49052127219E+03  0.68910927579E+03  0.91704019618E+02 0.  0.
          2    1    3    3  502    0 -0.80740412774E+02 -0.97005099679E+02  0.30773180516E+03  0.33260767809E+03  0.00000000000E+00 0. -1.
         -1    1    3    3    0  502 -0.60172465238E+02 -0.17717356156E+03  0.69929428566E+03  0.72389480896E+03  0.00000000000E+00 0.  1.
         11    1    5    5    0    0 -0.17645639723E+03  0.72672941390E+01  0.39302454358E+02  0.18092638450E+03  0.00000000000E+00 0. -1.
        -11    1    5    5    0    0 -0.12038500798E+03  0.81919378563E+02  0.58630135572E+02  0.15697397086E+03  0.00000000000E+00 0.  1.
          1    1    6    6  503    0  0.15512176594E+03  0.10585774418E+03 -0.15650944701E+03  0.24446642157E+03  0.00000000000E+00 0. -1.
         -1    1    6    6    0  503  0.28263251728E+03  0.79134244356E+02 -0.33401182518E+03  0.44464285422E+03  0.00000000000E+00 0.  1.
<mgrwt>
<rscale>  0 0.19908514E+04</rscale>
<asrwt>0</asrwt>
<pdfrwt beam="1">  1        2 0.20753458E+00 0.19908514E+04</pdfrwt>
<pdfrwt beam="2">  1       -1 0.11300575E+00 0.19908514E+04</pdfrwt>
<totfact> 0.11744698E+01</totfact>
</mgrwt>
</event>
<event>
12    6  0.1611689E-007  0.1996338E+04  0.7818608E-02  0.8608335E-01
          2   -1    0    0  501    0  0.00000000000E+00  0.00000000000E+00  0.96533807689E+03  0.96533807689E+03  0.00000000000E+00 0. -1.
         -1   -1    0    0    0  501 -0.00000000000E+00 -0.00000000000E+00 -0.10321164667E+04  0.10321164667E+04  0.00000000000E+00 0.  1.
         24    2    1    2    0    0 -0.13627455082E+03  0.38966184295E+02 -0.80680431983E+03  0.82297935174E+03  0.79200291516E+02 0.  0.
        254    2    1    2    0    0  0.13627455082E+03 -0.38966184295E+02  0.74002592999E+03  0.11744751919E+04  0.90092423796E+03 0.  0.
         23    2    4    4    0    0 -0.19398196309E+03  0.30029760572E+03  0.53628953639E+03  0.65106810702E+03  0.92062799921E+02 0.  0.
         23    2    4    4    0    0  0.33025651391E+03 -0.33926379002E+03  0.20373639360E+03  0.52340708485E+03  0.90978976649E+02 0.  0.
          2    1    3    3  502    0 -0.14231237074E+01 -0.16148679506E+02 -0.63739099144E+02  0.65768365424E+02  0.00000000000E+00 0. -1.
         -3    1    3    3    0  502 -0.13485142711E+03  0.55114863801E+02 -0.74306522069E+03  0.75721098632E+03  0.00000000000E+00 0.  1.
         11    1    5    5    0    0 -0.56583506946E+02  0.58710293618E+02  0.19202284624E+03  0.20861774927E+03  0.00000000000E+00 0.  1.
        -11    1    5    5    0    0 -0.13739845615E+03  0.24158731211E+03  0.34426669016E+03  0.44245035775E+03  0.00000000000E+00 0. -1.
          2    1    6    6  503    0  0.27332138982E+03 -0.29167340027E+03  0.20492810712E+03  0.44919203427E+03  0.00000000000E+00 0. -1.
         -2    1    6    6    0  503  0.56935124091E+02 -0.47590389748E+02 -0.11917135235E+01  0.74215050581E+02  0.00000000000E+00 0.  1.
<mgrwt>
<rscale>  0 0.19963380E+04</rscale>
<asrwt>0</asrwt>
<pdfrwt beam="1">  1        2 0.14851355E+00 0.19963380E+04</pdfrwt>
<pdfrwt beam="2">  1       -1 0.15878715E+00 0.19963380E+04</pdfrwt>
<totfact> 0.83954822E+00</totfact>
</mgrwt>
</event>
<event>
12    6  0.1611689E-007  0.1244645E+04  0.7818608E-02  0.9074652E-01
          2   -1    0    0  501    0  0.00000000000E+00  0.00000000000E+00  0.37140853862E+03  0.37140853862E+03  0.00000000000E+00 0. -1.
         -1   -1    0    0    0  501 -0.00000000000E+00 -0.00000000000E+00 -0.10427480028E+04  0.10427480028E+04  0.00000000000E+00 0.  1.
         24    2    1    2    0    0 -0.10870771639E+03  0.24552543633E+03 -0.71459715460E+02  0.28944498633E+03  0.81066649697E+02 0.  0.
        254    2    1    2    0    0  0.10870771639E+03 -0.24552543633E+03 -0.59987974870E+03  0.11247115551E+04  0.91269943667E+03 0.  0.
         23    2    4    4    0    0 -0.38957717904E+03 -0.64813509644E+02 -0.33147757270E+03  0.52363986617E+03  0.91379203211E+02 0.  0.
         23    2    4    4    0    0  0.49828489543E+03 -0.18071192669E+03 -0.26840217600E+03  0.60107168888E+03  0.91119754350E+02 0.  0.
          4    1    3    3  502    0 -0.37338928494E+02  0.16238347793E+03 -0.18193056153E+02  0.16761138619E+03  0.00000000000E+00 0. -1.
         -3    1    3    3    0  502 -0.71368787895E+02  0.83141958397E+02 -0.53266659307E+02  0.12183360015E+03  0.00000000000E+00 0.  1.
         11    1    5    5    0    0 -0.21579058017E+03 -0.89668901988E+01 -0.13141535350E+03  0.25281608878E+03  0.00000000000E+00 0.  1.
        -11    1    5    5    0    0 -0.17378659887E+03 -0.55846619445E+02 -0.20006221920E+03  0.27082377739E+03  0.00000000000E+00 0. -1.
          3    1    6    6  503    0  0.19788729052E+03 -0.82692831684E+02 -0.60550806609E+02  0.22285395294E+03  0.00000000000E+00 0. -1.
         -3    1    6    6    0  503  0.30039760491E+03 -0.98019095003E+02 -0.20785136939E+03  0.37821773594E+03  0.00000000000E+00 0.  1.
<mgrwt>
<rscale>  0 0.12446454E+04</rscale>
<asrwt>0</asrwt>
<pdfrwt beam="1">  1        2 0.57139775E-01 0.12446454E+04</pdfrwt>
<pdfrwt beam="2">  1       -1 0.16042277E+00 0.12446454E+04</pdfrwt>
<totfact> 0.28245905E+01</totfact>
</mgrwt>
</event>
<event>
12    6  0.1611689E-007  0.1735327E+04  0.7818608E-02  0.8741469E-01
         -1   -1    0    0    0  501 -0.00000000000E+00  0.00000000000E+00  0.54570257709E+03  0.54570257709E+03  0.00000000000E+00 0.  1.
          2   -1    0    0  501    0  0.00000000000E+00 -0.00000000000E+00 -0.13795785452E+04  0.13795785452E+04  0.00000000000E+00 0. -1.
         24    2    1    2    0    0  0.40837960742E+03  0.41808482894E+03 -0.53129124377E+03  0.79410614296E+03  0.82251763695E+02 0.  0.
        254    2    1    2    0    0 -0.40837960742E+03 -0.41808482894E+03 -0.30258472433E+03  0.11311749793E+04  0.92001657076E+03 0.  0.
         23    2    4    4    0    0 -0.74332403763E+02 -0.27617088810E+03  0.29850519003E+03  0.42312495534E+03  0.90187103687E+02 0.  0.
         23    2    4    4    0    0 -0.33404720366E+03 -0.14191394084E+03 -0.60108991436E+03  0.70805002397E+03  0.91096928717E+02 0.  0.
          2    1    3    3  502    0  0.12000242603E+03  0.15611284529E+03 -0.22135369462E+03  0.29625877343E+03  0.00000000000E+00 0. -1.
         -1    1    3    3    0  502  0.28837718140E+03  0.26197198366E+03 -0.30993754915E+03  0.49784736953E+03  0.00000000000E+00 0.  1.
         11    1    5    5    0    0 -0.92775358444E+01 -0.26881064172E+02 -0.48927380380E+00  0.28441231886E+02  0.00000000000E+00 0. -1.
        -11    1    5    5    0    0 -0.65054867919E+02 -0.24928982393E+03  0.29899446384E+03  0.39468372345E+03  0.00000000000E+00 0.  1.
          4    1    6    6  503    0 -0.44383090233E+02  0.10992246310E+02 -0.91180859413E+02  0.10200312398E+03  0.00000000000E+00 0. -1.
         -4    1    6    6    0  503 -0.28966411343E+03 -0.15290618715E+03 -0.50990905495E+03  0.60604690000E+03  0.00000000000E+00 0.  1.
<mgrwt>
<rscale>  0 0.17353266E+04</rscale>
<asrwt>0</asrwt>
<pdfrwt beam="1">  1        2 0.21224285E+00 0.17353266E+04</pdfrwt>
<pdfrwt beam="2">  1       -1 0.83954243E-01 0.17353266E+04</pdfrwt>
<totfact> 0.22613134E+01</totfact>
</mgrwt>
</event>
<event>
12    6  0.1611689E-007  0.1514732E+04  0.7818608E-02  0.8874715E-01
         -1   -1    0    0    0  501 -0.00000000000E+00  0.00000000000E+00  0.30922719502E+03  0.30922719502E+03  0.00000000000E+00 0.  1.
          2   -1    0    0  501    0  0.00000000000E+00 -0.00000000000E+00 -0.18549583287E+04  0.18549583287E+04  0.00000000000E+00 0. -1.
         24    2    1    2    0    0  0.46908213134E+03 -0.15418583480E+03 -0.34419358101E+03  0.60746420407E+03  0.82050109197E+02 0.  0.
        254    2    1    2    0    0 -0.46908213134E+03  0.15418583480E+03 -0.12015375527E+04  0.15567213197E+04  0.85783300182E+03 0.  0.
         23    2    4    4    0    0 -0.63047892607E+03  0.31981040200E+03 -0.71006115930E+03  0.10059367527E+04  0.89104046156E+02 0.  0.
         23    2    4    4    0    0  0.16139679473E+03 -0.16562456719E+03 -0.49147639342E+03  0.55078456699E+03  0.91291682783E+02 0.  0.
          2    1    3    3  502    0  0.60998125141E+02 -0.50018126656E+02 -0.64338243357E+02  0.10179387910E+03  0.00000000000E+00 0. -1.
         -1    1    3    3    0  502  0.40808400620E+03 -0.10416770815E+03 -0.27985533766E+03  0.50567032497E+03  0.00000000000E+00 0.  1.
         11    1    5    5    0    0 -0.23481572400E+03  0.11086628997E+03 -0.20240687031E+03  0.32923897041E+03  0.00000000000E+00 0. -1.
        -11    1    5    5    0    0 -0.39566320207E+03  0.20894411203E+03 -0.50765428899E+03  0.67669778229E+03  0.00000000000E+00 0.  1.
          1    1    6    6  503    0  0.24440594260E+01 -0.54109168695E+02 -0.96496601923E+02  0.11065879877E+03  0.00000000000E+00 0. -1.
         -1    1    6    6    0  503  0.15895273530E+03 -0.11151539850E+03 -0.39497979149E+03  0.44012576822E+03  0.00000000000E+00 0.  1.
<mgrwt>
<rscale>  0 0.15147324E+04</rscale>
<asrwt>0</asrwt>
<pdfrwt beam="1">  1        2 0.28537821E+00 0.15147324E+04</pdfrwt>
<pdfrwt beam="2">  1       -1 0.47573414E-01 0.15147324E+04</pdfrwt>
<totfact> 0.39013178E+01</totfact>
</mgrwt>
</event>
<event>
12    6  0.1611689E-007  0.3220973E+04  0.7818608E-02  0.8183300E-01
          2   -1    0    0  501    0  0.00000000000E+00  0.00000000000E+00  0.28742366140E+04  0.28742366140E+04  0.00000000000E+00 0. -1.
         -1   -1    0    0    0  501 -0.00000000000E+00 -0.00000000000E+00 -0.90238449713E+03  0.90238449713E+03  0.00000000000E+00 0.  1.
         24    2    1    2    0    0 -0.98617678610E+03  0.18329069232E+03  0.21274610689E+04  0.23534578202E+04  0.80826855022E+02 0.  0.
        254    2    1    2    0    0  0.98617678610E+03 -0.18329069232E+03 -0.15560895206E+03  0.14231632909E+04  0.99751665411E+03 0.  0.
         23    2    4    4    0    0  0.93090909984E+03 -0.10333965678E+03  0.26853600002E+03  0.97892538277E+03  0.94405958012E+02 0.  0.
         23    2    4    4    0    0  0.55267686265E+02 -0.79951035537E+02 -0.42414495208E+03  0.44423790811E+03  0.89452185009E+02 0.  0.
          2    1    3    3  502    0 -0.71302584386E+01  0.68404432269E+01  0.37934793449E+02  0.39200520443E+02  0.00000000000E+00 0. -1.
         -1    1    3    3    0  502 -0.97904652766E+03  0.17645024909E+03  0.20895262754E+04  0.23142572998E+04  0.00000000000E+00 0.  1.
         11    1    5    5    0    0  0.65466374792E+03 -0.45745131137E+02  0.15206031731E+03  0.67364647996E+03  0.00000000000E+00 0.  1.
        -11    1    5    5    0    0  0.27624535192E+03 -0.57594525644E+02  0.11647568271E+03  0.30527890281E+03  0.00000000000E+00 0. -1.
          2    1    6    6  503    0  0.69007337925E+02 -0.22142905355E+02 -0.24518554687E+03  0.25567219899E+03  0.00000000000E+00 0. -1.
         -2    1    6    6    0  503 -0.13739651659E+02 -0.57808130181E+02 -0.17895940521E+03  0.18856570912E+03  0.00000000000E+00 0.  1.
<mgrwt>
<rscale>  0 0.32209729E+04</rscale>
<asrwt>0</asrwt>
<pdfrwt beam="1">  1        2 0.44219024E+00 0.32209729E+04</pdfrwt>
<pdfrwt beam="2">  1       -1 0.13882839E+00 0.32209729E+04</pdfrwt>
<totfact> 0.85204384E-01</totfact>
</mgrwt>
</event>
<event>
12    6  0.1611689E-007  0.2037132E+04  0.7818608E-02  0.8589454E-01
         -1   -1    0    0    0  501 -0.00000000000E+00  0.00000000000E+00  0.94500757834E+03  0.94500757834E+03  0.00000000000E+00 0.  1.
          2   -1    0    0  501    0  0.00000000000E+00 -0.00000000000E+00 -0.10978499312E+04  0.10978499312E+04  0.00000000000E+00 0. -1.
         24    2    1    2    0    0 -0.46806044485E+03  0.75049376403E+02 -0.73028313361E+03  0.87429147323E+03  0.79744190945E+02 0.  0.
        254    2    1    2    0    0  0.46806044485E+03 -0.75049376403E+02  0.57744078074E+03  0.11685660363E+04  0.89855202247E+03 0.  0.
         23    2    4    4    0    0  0.58464145424E+03 -0.35766847262E+03  0.34053498227E+03  0.77066473846E+03  0.90706662581E+02 0.  0.
         23    2    4    4    0    0 -0.11658100940E+03  0.28261909622E+03  0.23690579847E+03  0.39790129787E+03  0.93468712400E+02 0.  0.
          4    1    3    3  502    0 -0.30275115843E+03  0.35606623219E+02 -0.53194664206E+03  0.61310139907E+03  0.00000000000E+00 0. -1.
         -3    1    3    3    0  502 -0.16530928642E+03  0.39442753184E+02 -0.19833649156E+03  0.26119007416E+03  0.00000000000E+00 0.  1.
         11    1    5    5    0    0  0.49616964131E+02 -0.43304817048E+02  0.71747630093E+01  0.66246717152E+02  0.00000000000E+00 0. -1.
        -11    1    5    5    0    0  0.53502449011E+03 -0.31436365557E+03  0.33336021926E+03  0.70441802131E+03  0.00000000000E+00 0.  1.
          1    1    6    6  503    0  0.13223046174E+02  0.62133323414E+02  0.40297212794E+02  0.75228081111E+02  0.00000000000E+00 0. -1.
         -1    1    6    6    0  503 -0.12980405557E+03  0.22048577280E+03  0.19660858568E+03  0.32267321676E+03  0.00000000000E+00 0.  1.
<mgrwt>
<rscale>  0 0.20371318E+04</rscale>
<asrwt>0</asrwt>
<pdfrwt beam="1">  1        2 0.16889999E+00 0.20371318E+04</pdfrwt>
<pdfrwt beam="2">  1       -1 0.14538578E+00 0.20371318E+04</pdfrwt>
<totfact> 0.87583393E+00</totfact>
</mgrwt>
</event>
<event>
12    6  0.1611689E-007  0.2170892E+04  0.7818608E-02  0.8530642E-01
         -1   -1    0    0    0  501 -0.00000000000E+00  0.00000000000E+00  0.73561240097E+03  0.73561240097E+03  0.00000000000E+00 0.  1.
          2   -1    0    0  501    0  0.00000000000E+00 -0.00000000000E+00 -0.16016496094E+04  0.16016496094E+04  0.00000000000E+00 0. -1.
         24    2    1    2    0    0  0.15369891262E+03 -0.88119272010E+03 -0.12575408496E+03  0.90682084990E+03  0.79912441089E+02 0.  0.
        254    2    1    2    0    0 -0.15369891262E+03  0.88119272010E+03 -0.74028312348E+03  0.14304411605E+04  0.83547522103E+03 0.  0.
         23    2    4    4    0    0 -0.12624841975E+03 -0.37147235304E+02  0.94291925140E+02  0.18576095097E+03  0.91091070804E+02 0.  0.
         23    2    4    4    0    0 -0.27450492872E+02  0.91833995540E+03 -0.83457504862E+03  0.12446802095E+04  0.92798215935E+02 0.  0.
          2    1    3    3  502    0  0.42916905925E+02 -0.42082262257E+03 -0.85863657710E+02  0.43163191285E+03  0.00000000000E+00 0. -1.
         -1    1    3    3    0  502  0.11078200669E+03 -0.46037009753E+03 -0.39890427247E+02  0.47518893705E+03  0.00000000000E+00 0.  1.
         11    1    5    5    0    0 -0.57475604689E+02  0.18513116053E+02  0.73042573193E+02  0.94770238466E+02  0.00000000000E+00 0. -1.
        -11    1    5    5    0    0 -0.68772815058E+02 -0.55660351357E+02  0.21249351948E+02  0.90990712506E+02  0.00000000000E+00 0.  1.
          4    1    6    6  503    0 -0.17769227918E+02  0.14250768482E+03 -0.91025311085E+02  0.17002880036E+03  0.00000000000E+00 0.  1.
         -4    1    6    6    0  503 -0.96812649545E+01  0.77583227059E+03 -0.74354973753E+03  0.10746514091E+04  0.00000000000E+00 0. -1.
<mgrwt>
<rscale>  0 0.21708923E+04</rscale>
<asrwt>0</asrwt>
<pdfrwt beam="1">  1        2 0.24640763E+00 0.21708923E+04</pdfrwt>
<pdfrwt beam="2">  1       -1 0.11317114E+00 0.21708923E+04</pdfrwt>
<totfact> 0.82835914E+00</totfact>
</mgrwt>
</event>
<event>
12    6  0.1611689E-007  0.1239952E+04  0.7818608E-02  0.9078587E-01
          4   -1    0    0  501    0  0.00000000000E+00  0.00000000000E+00  0.13676756263E+03  0.13676756263E+03  0.00000000000E+00 0. -1.
         -3   -1    0    0    0  501 -0.00000000000E+00 -0.00000000000E+00 -0.28103923941E+04  0.28103923941E+04  0.00000000000E+00 0.  1.
         24    2    1    2    0    0  0.11759638145E+03 -0.96499315501E+02 -0.12060991783E+04  0.12182652586E+04  0.79711891129E+02 0.  0.
        254    2    1    2    0    0 -0.11759638145E+03  0.96499315501E+02 -0.14675256532E+04  0.17288946981E+04  0.90127926178E+03 0.  0.
         23    2    4    4    0    0  0.24112182279E+03 -0.74132306704E+02 -0.76957933277E+02  0.27986817247E+03  0.93639404876E+02 0.  0.
         23    2    4    4    0    0 -0.35871820424E+03  0.17063162220E+03 -0.13905677199E+04  0.14490265257E+04  0.90583596294E+02 0.  0.
          4    1    3    3  502    0 -0.78976318244E+00  0.11319968531E+02 -0.98432494140E+02  0.99084415102E+02  0.00000000000E+00 0. -1.
         -3    1    3    3    0  502  0.11838614463E+03 -0.10781928403E+03 -0.11076666842E+04  0.11191808435E+04  0.00000000000E+00 0.  1.
         11    1    5    5    0    0  0.92274301557E+02 -0.69546686326E+02 -0.81867943491E+01  0.11583743742E+03  0.00000000000E+00 0. -1.
        -11    1    5    5    0    0  0.14884752123E+03 -0.45856203781E+01 -0.68771138928E+02  0.16403073505E+03  0.00000000000E+00 0.  1.
          2    1    6    6  503    0 -0.34528398470E+03  0.18109583808E+03 -0.13162066773E+04  0.13727405982E+04  0.00000000000E+00 0.  1.
         -2    1    6    6    0  503 -0.13434219541E+02 -0.10464215880E+02 -0.74361042623E+02  0.76285927461E+02  0.00000000000E+00 0. -1.
<mgrwt>
<rscale>  0 0.12399524E+04</rscale>
<asrwt>0</asrwt>
<pdfrwt beam="1">  1        4 0.21041165E-01 0.12399524E+04</pdfrwt>
<pdfrwt beam="2">  1       -3 0.43236802E+00 0.12399524E+04</pdfrwt>
<totfact> 0.34059101E-01</totfact>
</mgrwt>
</event>
<event>
12    6  0.1611689E-007  0.1016765E+04  0.7818608E-02  0.9290346E-01
         -1   -1    0    0    0  501 -0.00000000000E+00  0.00000000000E+00  0.11793812171E+04  0.11793812171E+04  0.00000000000E+00 0.  1.
          2   -1    0    0  501    0  0.00000000000E+00 -0.00000000000E+00 -0.21914269262E+03  0.21914269262E+03  0.00000000000E+00 0. -1.
         24    2    1    2    0    0  0.66577669584E+02  0.14377813746E+03  0.63863564111E+02  0.18813277850E+03  0.78807668576E+02 0.  0.
        254    2    1    2    0    0 -0.66577669584E+02 -0.14377813746E+03  0.89637496037E+03  0.12103911312E+04  0.79778059771E+03 0.  0.
         23    2    4    4    0    0  0.20337606832E+03 -0.20085900796E+03  0.86808993563E+03  0.91841419223E+03  0.90544607267E+02 0.  0.
         23    2    4    4    0    0 -0.26995373791E+03  0.57080870507E+02  0.28285024742E+02  0.29197693900E+03  0.91198924856E+02 0.  0.
          4    1    3    3  502    0  0.30130077188E+02  0.13054459998E+03  0.65893612155E+02  0.14930399278E+03  0.00000000000E+00 0. -1.
         -3    1    3    3    0  502  0.36447592396E+02  0.13233537473E+02 -0.20300480442E+01  0.38828785721E+02  0.00000000000E+00 0.  1.
         11    1    5    5    0    0  0.20876382000E+03 -0.20033219275E+03  0.81097755423E+03  0.86104582541E+03  0.00000000000E+00 0. -1.
        -11    1    5    5    0    0 -0.53877516812E+01 -0.52681521478E+00  0.57112381405E+02  0.57368366825E+02  0.00000000000E+00 0.  1.
          4    1    6    6  503    0 -0.24555434672E+03  0.76984379817E+02  0.14923986508E+02  0.25777171548E+03  0.00000000000E+00 0. -1.
         -4    1    6    6    0  503 -0.24399391184E+02 -0.19903509310E+02  0.13361038234E+02  0.34205223515E+02  0.00000000000E+00 0.  1.
<mgrwt>
<rscale>  0 0.10167650E+04</rscale>
<asrwt>0</asrwt>
<pdfrwt beam="1">  1        2 0.33714261E-01 0.10167650E+04</pdfrwt>
<pdfrwt beam="2">  1       -1 0.18144326E+00 0.10167650E+04</pdfrwt>
<totfact> 0.36332365E+01</totfact>
</mgrwt>
</event>
<event>
12    6  0.1611689E-007  0.1853229E+04  0.7818608E-02  0.8678494E-01
          2   -1    0    0  501    0  0.00000000000E+00  0.00000000000E+00  0.12297971528E+04  0.12297971528E+04  0.00000000000E+00 0. -1.
         -1   -1    0    0    0  501 -0.00000000000E+00 -0.00000000000E+00 -0.69817591556E+03  0.69817591556E+03  0.00000000000E+00 0.  1.
         24    2    1    2    0    0  0.42638128238E+03 -0.31998513154E+03  0.68645646891E+03  0.87285293637E+03  0.80363439769E+02 0.  0.
        254    2    1    2    0    0 -0.42638128238E+03  0.31998513154E+03 -0.15483523166E+03  0.10551201320E+04  0.89728092680E+03 0.  0.
         23    2    4    4    0    0 -0.41629464771E+03  0.59359235508E+03 -0.66927377859E+01  0.72942150397E+03  0.79735939158E+02 0.  0.
         23    2    4    4    0    0 -0.10086634669E+02 -0.27360722354E+03 -0.14814249388E+03  0.32569862802E+03  0.95764005944E+02 0.  0.
          4    1    3    3  502    0  0.41036931258E+02 -0.37470254400E+02  0.11674941501E+03  0.12929994430E+03  0.00000000000E+00 0. -1.
         -3    1    3    3    0  502  0.38534435113E+03 -0.28251487714E+03  0.56970705390E+03  0.74355299206E+03  0.00000000000E+00 0.  1.
         11    1    5    5    0    0 -0.39471465533E+03  0.54029090288E+03 -0.23450952182E+02  0.66952510485E+03  0.00000000000E+00 0. -1.
        -11    1    5    5    0    0 -0.21579992381E+02  0.53301452200E+02  0.16758214396E+02  0.59896399120E+02  0.00000000000E+00 0.  1.
          3    1    6    6  503    0  0.52044770770E+01 -0.21472007689E+03 -0.68429188493E+02  0.22542038914E+03  0.00000000000E+00 0. -1.
         -3    1    6    6    0  503 -0.15291111746E+02 -0.58887146642E+02 -0.79713305383E+02  0.10027823888E+03  0.00000000000E+00 0.  1.
<mgrwt>
<rscale>  0 0.18532293E+04</rscale>
<asrwt>0</asrwt>
<pdfrwt beam="1">  1        2 0.18919956E+00 0.18532293E+04</pdfrwt>
<pdfrwt beam="2">  1       -1 0.10741168E+00 0.18532293E+04</pdfrwt>
<totfact> 0.15733252E+01</totfact>
</mgrwt>
</event>
<event>
12    6  0.1611689E-007  0.2045189E+04  0.7818608E-02  0.8585780E-01
         -3   -1    0    0    0  501 -0.00000000000E+00  0.00000000000E+00  0.28544485893E+03  0.28544485893E+03  0.00000000000E+00 0.  1.
          2   -1    0    0  501    0  0.00000000000E+00 -0.00000000000E+00 -0.36634019024E+04  0.36634019024E+04  0.00000000000E+00 0. -1.
         24    2    1    2    0    0  0.50200244894E+03  0.48495090171E+03 -0.52191936418E+03  0.87490025926E+03  0.76595072532E+02 0.  0.
        254    2    1    2    0    0 -0.50200244894E+03 -0.48495090171E+03 -0.28560376793E+04  0.30739465021E+04  0.89722462975E+03 0.  0.
         23    2    4    4    0    0 -0.35128185019E+03 -0.50642756966E+03 -0.28239508683E+04  0.28918473111E+04  0.90634114749E+02 0.  0.
         23    2    4    4    0    0 -0.15072059875E+03  0.21476667955E+02 -0.32086811017E+02  0.18209919096E+03  0.94618210462E+02 0.  0.
          4    1    3    3  502    0  0.93326545703E+02  0.10488153459E+03 -0.14253860371E+03  0.20006807336E+03  0.00000000000E+00 0. -1.
         -3    1    3    3    0  502  0.40867590324E+03  0.38006936712E+03 -0.37938076046E+03  0.67483218590E+03  0.00000000000E+00 0.  1.
         11    1    5    5    0    0 -0.65286663958E+01  0.18425464540E+01 -0.13934585010E+02  0.15498100585E+02  0.00000000000E+00 0. -1.
        -11    1    5    5    0    0 -0.34475318379E+03 -0.50827011612E+03 -0.28100162833E+04  0.28763492106E+04  0.00000000000E+00 0.  1.
          3    1    6    6  503    0 -0.16105719218E+02 -0.30507779993E+02 -0.11326092294E+02  0.36309767258E+02  0.00000000000E+00 0. -1.
         -3    1    6    6    0  503 -0.13461487954E+03  0.51984447948E+02 -0.20760718723E+02  0.14578942370E+03  0.00000000000E+00 0.  1.
<mgrwt>
<rscale>  0 0.20451887E+04</rscale>
<asrwt>0</asrwt>
<pdfrwt beam="1">  1        2 0.56360026E+00 0.20451887E+04</pdfrwt>
<pdfrwt beam="2">  1       -3 0.43914596E-01 0.20451887E+04</pdfrwt>
<totfact> 0.19342858E+00</totfact>
</mgrwt>
</event>
<event>
12    6  0.1611689E-007  0.1852336E+04  0.7818608E-02  0.8678953E-01
         -1   -1    0    0    0  501 -0.00000000000E+00  0.00000000000E+00  0.91944698160E+03  0.91944698160E+03  0.00000000000E+00 0.  1.
          2   -1    0    0  501    0  0.00000000000E+00 -0.00000000000E+00 -0.93293780417E+03  0.93293780417E+03  0.00000000000E+00 0. -1.
         24    2    1    2    0    0 -0.68020714992E+03 -0.54579063646E+01  0.17687065639E+03  0.70752228112E+03  0.81197251463E+02 0.  0.
        254    2    1    2    0    0  0.68020714992E+03  0.54579063646E+01 -0.19036147896E+03  0.11448625046E+04  0.90097786118E+03 0.  0.
         23    2    4    4    0    0  0.37307943408E+03 -0.30476796382E+03 -0.41797095114E+03  0.64428378199E+03  0.91269380618E+02 0.  0.
         23    2    4    4    0    0  0.30712771585E+03  0.31022587019E+03  0.22760947218E+03  0.50057872266E+03  0.90584001789E+02 0.  0.
          4    1    3    3  502    0 -0.54956788246E+03 -0.13929758076E+02  0.11047815698E+03  0.56073551587E+03  0.00000000000E+00 0. -1.
         -3    1    3    3    0  502 -0.13063926747E+03  0.84718517109E+01  0.66392499410E+02  0.14678676525E+03  0.00000000000E+00 0.  1.
         11    1    5    5    0    0  0.24779250537E+03 -0.15441228071E+03 -0.28245568129E+03  0.40623329510E+03  0.00000000000E+00 0. -1.
        -11    1    5    5    0    0  0.12528692870E+03 -0.15035568311E+03 -0.13551526985E+03  0.23805048689E+03  0.00000000000E+00 0.  1.
          2    1    6    6  503    0  0.11000142256E+02  0.46387763416E+01  0.28241418854E+02  0.30661035770E+02  0.00000000000E+00 0. -1.
         -2    1    6    6    0  503  0.29612757359E+03  0.30558709384E+03  0.19936805332E+03  0.46991768689E+03  0.00000000000E+00 0.  1.
<mgrwt>
<rscale>  0 0.18523357E+04</rscale>
<asrwt>0</asrwt>
<pdfrwt beam="1">  1        2 0.14352889E+00 0.18523357E+04</pdfrwt>
<pdfrwt beam="2">  1       -1 0.14145338E+00 0.18523357E+04</pdfrwt>
<totfact> 0.12195433E+01</totfact>
</mgrwt>
</event>
<event>
12    6  0.1611689E-007  0.1345294E+04  0.7818608E-02  0.8994398E-01
         -1   -1    0    0    0  501 -0.00000000000E+00  0.00000000000E+00  0.10606790366E+04  0.10606790366E+04  0.00000000000E+00 0.  1.
          2   -1    0    0  501    0  0.00000000000E+00 -0.00000000000E+00 -0.42657012980E+03  0.42657012980E+03  0.00000000000E+00 0. -1.
         24    2    1    2    0    0 -0.11046768035E+03 -0.18203189866E+03 -0.14368961302E+03  0.26817214067E+03  0.77012152347E+02 0.  0.
        254    2    1    2    0    0  0.11046768035E+03  0.18203189866E+03  0.77779851982E+03  0.12190770257E+04  0.91424260276E+03 0.  0.
         23    2    4    4    0    0  0.19789637237E+03  0.52759344038E+03  0.45982663014E+03  0.73281749016E+03  0.89794941830E+02 0.  0.
         23    2    4    4    0    0 -0.87428692013E+02 -0.34556154172E+03  0.31797188968E+03  0.48625953558E+03  0.91025589847E+02 0.  0.
          4    1    3    3  502    0 -0.73733436608E+02 -0.11184905056E+03 -0.13204999111E+03  0.18810643248E+03  0.00000000000E+00 0. -1.
         -3    1    3    3    0  502 -0.36734243746E+02 -0.70182848095E+02 -0.11639621908E+02  0.80065708193E+02  0.00000000000E+00 0.  1.
         11    1    5    5    0    0  0.17034488648E+02  0.28453840680E+02  0.58698890962E+02  0.67419245421E+02  0.00000000000E+00 0.  1.
        -11    1    5    5    0    0  0.18086188372E+03  0.49913959970E+03  0.40112773918E+03  0.66539824474E+03  0.00000000000E+00 0. -1.
          4    1    6    6  503    0 -0.10654217592E+03 -0.30189553288E+03  0.28009780539E+03  0.42537857093E+03  0.00000000000E+00 0. -1.
         -4    1    6    6    0  503  0.19113483908E+02 -0.43666008837E+02  0.37874084299E+02  0.60880964647E+02  0.00000000000E+00 0.  1.
<mgrwt>
<rscale>  0 0.13452940E+04</rscale>
<asrwt>0</asrwt>
<pdfrwt beam="1">  1        2 0.65626174E-01 0.13452940E+04</pdfrwt>
<pdfrwt beam="2">  1       -1 0.16318139E+00 0.13452940E+04</pdfrwt>
<totfact> 0.22851631E+01</totfact>
</mgrwt>
</event>
<event>
12    6  0.1611689E-007  0.1302167E+04  0.7818608E-02  0.9027849E-01
         -1   -1    0    0    0  501 -0.00000000000E+00  0.00000000000E+00  0.18923551269E+03  0.18923551269E+03  0.00000000000E+00 0.  1.
          2   -1    0    0  501    0  0.00000000000E+00 -0.00000000000E+00 -0.22401156810E+04  0.22401156810E+04  0.00000000000E+00 0. -1.
         24    2    1    2    0    0 -0.22026667999E+03 -0.17629587376E+03 -0.21373551088E+03  0.36390419837E+03  0.84532547328E+02 0.  0.
        254    2    1    2    0    0  0.22026667999E+03  0.17629587376E+03 -0.18371446574E+04  0.20654469953E+04  0.90076253960E+03 0.  0.
         23    2    4    4    0    0 -0.29133275883E+03  0.27979244391E+03 -0.81545465722E+03  0.91453047858E+03  0.90780560833E+02 0.  0.
         23    2    4    4    0    0  0.51159943882E+03 -0.10349657015E+03 -0.10216900002E+04  0.11509165167E+04  0.91174810998E+02 0.  0.
          4    1    3    3  502    0 -0.98567063060E+01 -0.29293850332E+02 -0.52093908922E+02  0.60572763460E+02  0.00000000000E+00 0. -1.
         -3    1    3    3    0  502 -0.21040997368E+03 -0.14700202343E+03 -0.16164160196E+03  0.30333143491E+03  0.00000000000E+00 0.  1.
         11    1    5    5    0    0 -0.91958430229E+02  0.40928297303E+02 -0.24219658057E+03  0.26227974007E+03  0.00000000000E+00 0. -1.
        -11    1    5    5    0    0 -0.19937432860E+03  0.23886414661E+03 -0.57325807666E+03  0.65225073851E+03  0.00000000000E+00 0.  1.
          2    1    6    6  503    0  0.11158418549E+02 -0.18799670875E+02 -0.52425233157E+02  0.56800906692E+02  0.00000000000E+00 0. -1.
         -2    1    6    6    0  503  0.50044102027E+03 -0.84696899275E+02 -0.96926476702E+03  0.10941156100E+04  0.00000000000E+00 0.  1.
<mgrwt>
<rscale>  0 0.13021666E+04</rscale>
<asrwt>0</asrwt>
<pdfrwt beam="1">  1        2 0.34463317E+00 0.13021666E+04</pdfrwt>
<pdfrwt beam="2">  1       -1 0.29113157E-01 0.13021666E+04</pdfrwt>
<totfact> 0.58992423E+01</totfact>
</mgrwt>
</event>
<event>
12    6  0.1611689E-007  0.1934879E+04  0.7818608E-02  0.8637687E-01
          2   -1    0    0  501    0  0.00000000000E+00  0.00000000000E+00  0.49298395213E+03  0.49298395213E+03  0.00000000000E+00 0. -1.
         -1   -1    0    0    0  501 -0.00000000000E+00 -0.00000000000E+00 -0.18985181162E+04  0.18985181162E+04  0.00000000000E+00 0.  1.
         24    2    1    2    0    0  0.14664895600E+03 -0.20063070071E+03 -0.14424776929E+04  0.14658917280E+04  0.79611992728E+02 0.  0.
        254    2    1    2    0    0 -0.14664895600E+03  0.20063070071E+03  0.36943528854E+02  0.92561034029E+03  0.89085974393E+03 0.  0.
         23    2    4    4    0    0 -0.23476323246E+03 -0.75288683920E+02  0.38310846440E+03  0.46490295413E+03  0.92630988434E+02 0.  0.
         23    2    4    4    0    0  0.88114276455E+02  0.27591938463E+03 -0.34616493555E+03  0.46070738616E+03  0.92333637038E+02 0.  0.
          4    1    3    3  502    0  0.53956346535E+02 -0.19822698399E+02 -0.34752933831E+03  0.35225114292E+03  0.00000000000E+00 0. -1.
         -3    1    3    3    0  502  0.92692609469E+02 -0.18080800231E+03 -0.10949483546E+04  0.11136405851E+04  0.00000000000E+00 0.  1.
         11    1    5    5    0    0 -0.11808497234E+02 -0.13864191363E+02  0.97186615940E+00  0.18237349942E+02  0.00000000000E+00 0.  1.
        -11    1    5    5    0    0 -0.22295473523E+03 -0.61424492557E+02  0.38213659824E+03  0.44666560419E+03  0.00000000000E+00 0. -1.
          3    1    6    6  503    0  0.12803431974E+02  0.81898393993E+02 -0.44127130742E+02  0.93906754158E+02  0.00000000000E+00 0. -1.
         -3    1    6    6    0  503  0.75310844481E+02  0.19402099064E+03 -0.30203780481E+03  0.36680063200E+03  0.00000000000E+00 0.  1.
<mgrwt>
<rscale>  0 0.19348788E+04</rscale>
<asrwt>0</asrwt>
<pdfrwt beam="1">  1        2 0.75843684E-01 0.19348788E+04</pdfrwt>
<pdfrwt beam="2">  1       -1 0.29207971E+00 0.19348788E+04</pdfrwt>
<totfact> 0.24845235E+00</totfact>
</mgrwt>
</event>
<event>
12    6  0.1611689E-007  0.1384124E+04  0.7818608E-02  0.8965391E-01
         -1   -1    0    0    0  501 -0.00000000000E+00  0.00000000000E+00  0.32642835211E+03  0.32642835211E+03  0.00000000000E+00 0.  1.
          2   -1    0    0  501    0  0.00000000000E+00 -0.00000000000E+00 -0.14672435607E+04  0.14672435607E+04  0.00000000000E+00 0. -1.
         24    2    1    2    0    0  0.11820498296E+03  0.23811914380E+03  0.10084811457E+03  0.29576003401E+03  0.81427948940E+02 0.  0.
        254    2    1    2    0    0 -0.11820498296E+03 -0.23811914380E+03 -0.12416633231E+04  0.14979118788E+04  0.79456846397E+03 0.  0.
         23    2    4    4    0    0 -0.19342697077E+03 -0.26431276997E+03 -0.10695709942E+03  0.35666790064E+03  0.92178830752E+02 0.  0.
         23    2    4    4    0    0  0.75221987811E+02  0.26193626173E+02 -0.11347062237E+04  0.11412439781E+04  0.92385875677E+02 0.  0.
          4    1    3    3  502    0  0.55622295053E+02  0.59650883772E+02  0.28049613999E+00  0.81560691021E+02  0.00000000000E+00 0. -1.
         -3    1    3    3    0  502  0.62582687903E+02  0.17846826002E+03  0.10056761843E+03  0.21419934299E+03  0.00000000000E+00 0.  1.
         11    1    5    5    0    0 -0.51347676799E+02 -0.10789257676E+03  0.74334724252E+00  0.11949035357E+03  0.00000000000E+00 0.  1.
        -11    1    5    5    0    0 -0.14207929397E+03 -0.15642019321E+03 -0.10770044667E+03  0.23717754706E+03  0.00000000000E+00 0. -1.
          3    1    6    6  503    0  0.76234871466E+02  0.14738315258E+02 -0.11194467020E+04  0.11221363074E+04  0.00000000000E+00 0. -1.
         -3    1    6    6    0  503 -0.10128836555E+01  0.11455310914E+02 -0.15259521643E+02  0.19107670769E+02  0.00000000000E+00 0.  1.
<mgrwt>
<rscale>  0 0.13841241E+04</rscale>
<asrwt>0</asrwt>
<pdfrwt beam="1">  1        2 0.22572978E+00 0.13841241E+04</pdfrwt>
<pdfrwt beam="2">  1       -1 0.50219747E-01 0.13841241E+04</pdfrwt>
<totfact> 0.58544439E+01</totfact>
</mgrwt>
</event>
<event>
12    6  0.1611689E-007  0.2131369E+04  0.7818608E-02  0.8547550E-01
          2   -1    0    0  501    0  0.00000000000E+00  0.00000000000E+00  0.24129312445E+04  0.24129312445E+04  0.00000000000E+00 0. -1.
         -1   -1    0    0    0  501 -0.00000000000E+00 -0.00000000000E+00 -0.47066549612E+03  0.47066549612E+03  0.00000000000E+00 0.  1.
         24    2    1    2    0    0 -0.54820539084E+03 -0.60781932550E+03  0.11815164382E+04  0.14396328761E+04  0.81167981527E+02 0.  0.
        254    2    1    2    0    0  0.54820539084E+03  0.60781932550E+03  0.76074931018E+03  0.14439638645E+04  0.91450459053E+03 0.  0.
         23    2    4    4    0    0  0.64758554165E+03  0.59353912917E+03  0.89126330562E+03  0.12546378143E+04  0.90055725003E+02 0.  0.
         23    2    4    4    0    0 -0.99380150817E+02  0.14280196331E+02 -0.13051399544E+03  0.18932605018E+03  0.93435067766E+02 0.  0.
          4    1    3    3  502    0  0.24585925315E+01 -0.34689553203E+01  0.27149337129E+01  0.50447193496E+01  0.00000000000E+00 0. -1.
         -3    1    3    3    0  502 -0.55066398337E+03 -0.60435037018E+03  0.11788015045E+04  0.14345881568E+04  0.00000000000E+00 0.  1.
         11    1    5    5    0    0  0.40515256973E+03  0.31776076146E+03  0.54887000896E+03  0.75258141953E+03  0.00000000000E+00 0.  1.
        -11    1    5    5    0    0  0.24243297193E+03  0.27577836771E+03  0.34239329667E+03  0.50205639481E+03  0.00000000000E+00 0. -1.
          3    1    6    6  503    0 -0.30248376244E+02 -0.37739347900E+02 -0.63873479947E+02  0.80118937123E+02  0.00000000000E+00 0. -1.
         -3    1    6    6    0  503 -0.69131774573E+02  0.52019544231E+02 -0.66640515494E+02  0.10920711306E+03  0.00000000000E+00 0.  1.
<mgrwt>
<rscale>  0 0.21313690E+04</rscale>
<asrwt>0</asrwt>
<pdfrwt beam="1">  1        2 0.37122018E+00 0.21313690E+04</pdfrwt>
<pdfrwt beam="2">  1       -1 0.72410078E-01 0.21313690E+04</pdfrwt>
<totfact> 0.78665943E+00</totfact>
</mgrwt>
</event>
<event>
12    6  0.1611689E-007  0.2562092E+04  0.7818608E-02  0.8381193E-01
          2   -1    0    0  501    0  0.00000000000E+00  0.00000000000E+00  0.13798274714E+04  0.13798274714E+04  0.00000000000E+00 0. -1.
         -1   -1    0    0    0  501 -0.00000000000E+00 -0.00000000000E+00 -0.11893359113E+04  0.11893359113E+04  0.00000000000E+00 0.  1.
         24    2    1    2    0    0  0.26477015333E+03  0.13101068978E+03  0.11698287875E+04  0.12091026054E+04  0.78502759647E+02 0.  0.
        254    2    1    2    0    0 -0.26477015333E+03 -0.13101068978E+03 -0.97933722739E+03  0.13600607774E+04  0.89632409218E+03 0.  0.
         23    2    4    4    0    0 -0.18757062756E+03  0.46129612959E+02 -0.10959499470E+04  0.11166866765E+04  0.92585990516E+02 0.  0.
         23    2    4    4    0    0 -0.77199525772E+02 -0.17714030274E+03  0.11661271957E+03  0.24337410090E+03  0.91071252256E+02 0.  0.
          2    1    3    3  502    0  0.16885157031E+03  0.47316815101E+02  0.59242246005E+03  0.61783015867E+03  0.00000000000E+00 0. -1.
         -1    1    3    3    0  502  0.95918583019E+02  0.83693874681E+02  0.57740632747E+03  0.59127244670E+03  0.00000000000E+00 0.  1.
         11    1    5    5    0    0 -0.16119402213E+02 -0.70725661476E+01 -0.30985918174E+03  0.31035877437E+03  0.00000000000E+00 0.  1.
        -11    1    5    5    0    0 -0.17145122535E+03  0.53202179106E+02 -0.78609076522E+03  0.80632790209E+03  0.00000000000E+00 0. -1.
          1    1    6    6  503    0 -0.34021459957E+02 -0.16166356695E+03  0.74958472393E+02  0.18141483181E+03  0.00000000000E+00 0. -1.
         -1    1    6    6    0  503 -0.43178065815E+02 -0.15476735791E+02  0.41654247173E+02  0.61959269087E+02  0.00000000000E+00 0.  1.
<mgrwt>
<rscale>  0 0.25620916E+04</rscale>
<asrwt>0</asrwt>
<pdfrwt beam="1">  1        2 0.21228115E+00 0.25620916E+04</pdfrwt>
<pdfrwt beam="2">  1       -1 0.18297476E+00 0.25620916E+04</pdfrwt>
<totfact> 0.29768805E+00</totfact>
</mgrwt>
</event>
<event>
12    6  0.1611689E-007  0.2793066E+04  0.7818608E-02  0.8305424E-01
         -1   -1    0    0    0  501 -0.00000000000E+00  0.00000000000E+00  0.78259703106E+03  0.78259703106E+03  0.00000000000E+00 0.  1.
          2   -1    0    0  501    0  0.00000000000E+00 -0.00000000000E+00 -0.24920924697E+04  0.24920924697E+04  0.00000000000E+00 0. -1.
         24    2    1    2    0    0  0.43488362591E+03 -0.67024365343E+03  0.36447800053E+03  0.88180376288E+03  0.79895809005E+02 0.  0.
        254    2    1    2    0    0 -0.43488362591E+03  0.67024365343E+03 -0.20739734392E+04  0.23928857379E+04  0.88667130612E+03 0.  0.
         23    2    4    4    0    0 -0.44864551926E+03  0.45665716855E+03 -0.20607377347E+04  0.21598121395E+04  0.91268259883E+02 0.  0.
         23    2    4    4    0    0  0.13761893345E+02  0.21358648488E+03 -0.13235704491E+02  0.23307359838E+03  0.91321093704E+02 0.  0.
          2    1    3    3  502    0  0.32291841111E+03 -0.47965022380E+03  0.30071196002E+03  0.65174252610E+03  0.00000000000E+00 0. -1.
         -1    1    3    3    0  502  0.11196521480E+03 -0.19059342963E+03  0.63766040505E+02  0.23006123677E+03  0.00000000000E+00 0.  1.
         11    1    5    5    0    0 -0.27334645603E+02  0.55158852995E+02 -0.14240251492E+03  0.15513915743E+03  0.00000000000E+00 0. -1.
        -11    1    5    5    0    0 -0.42131087366E+03  0.40149831556E+03 -0.19183352198E+04  0.20046729821E+04  0.00000000000E+00 0.  1.
          1    1    6    6  503    0 -0.29529819658E+02  0.93810844217E+02  0.22308951200E+02  0.10084728080E+03  0.00000000000E+00 0. -1.
         -1    1    6    6    0  503  0.43291713004E+02  0.11977564066E+03 -0.35544655691E+02  0.13222631757E+03  0.00000000000E+00 0.  1.
<mgrwt>
<rscale>  0 0.27930658E+04</rscale>
<asrwt>0</asrwt>
<pdfrwt beam="1">  1        2 0.38339884E+00 0.27930658E+04</pdfrwt>
<pdfrwt beam="2">  1       -1 0.12039954E+00 0.27930658E+04</pdfrwt>
<totfact> 0.21377699E+00</totfact>
</mgrwt>
</event>
<event>
12    6  0.1611689E-007  0.1776703E+04  0.7818608E-02  0.8718788E-01
          4   -1    0    0  501    0  0.00000000000E+00  0.00000000000E+00  0.73835607487E+03  0.73835607487E+03  0.00000000000E+00 0. -1.
         -3   -1    0    0    0  501 -0.00000000000E+00 -0.00000000000E+00 -0.10688180013E+04  0.10688180013E+04  0.00000000000E+00 0.  1.
         24    2    1    2    0    0  0.99714990660E+02  0.50964079334E+02  0.53673073289E+03  0.55401225909E+03  0.79431019425E+02 0.  0.
        254    2    1    2    0    0 -0.99714990660E+02 -0.50964079334E+02 -0.86719265933E+03  0.12531618171E+04  0.89769204891E+03 0.  0.
         23    2    4    4    0    0 -0.48023156094E+03 -0.11532534509E+03 -0.41726231413E+03  0.65301696834E+03  0.91657159057E+02 0.  0.
         23    2    4    4    0    0  0.38051657028E+03  0.64361265752E+02 -0.44993034520E+03  0.60014484874E+03  0.93815196810E+02 0.  0.
          4    1    3    3  502    0  0.93376590905E+02  0.81129155966E+01  0.38221769837E+03  0.39354208933E+03  0.00000000000E+00 0. -1.
         -3    1    3    3    0  502  0.63383997549E+01  0.42851163737E+02  0.15451303452E+03  0.16047016976E+03  0.00000000000E+00 0.  1.
         11    1    5    5    0    0 -0.41700491510E+03 -0.12723168188E+03 -0.34280655399E+03  0.55461458108E+03  0.00000000000E+00 0. -1.
        -11    1    5    5    0    0 -0.63226645841E+02  0.11906336793E+02 -0.74455760143E+02  0.98402387260E+02  0.00000000000E+00 0.  1.
          2    1    6    6  503    0  0.10389823799E+03  0.55602509091E+02 -0.10434046358E+03  0.15739572807E+03  0.00000000000E+00 0. -1.
         -2    1    6    6    0  503  0.27661833229E+03  0.87587566605E+01 -0.34558988162E+03  0.44274912067E+03  0.00000000000E+00 0.  1.
<mgrwt>
<rscale>  0 0.17767029E+04</rscale>
<asrwt>0</asrwt>
<pdfrwt beam="1">  1        4 0.11359324E+00 0.17767029E+04</pdfrwt>
<pdfrwt beam="2">  1       -3 0.16443354E+00 0.17767029E+04</pdfrwt>
<totfact> 0.33197729E-01</totfact>
</mgrwt>
</event>
<event>
12    6  0.1611689E-007  0.1157020E+04  0.7818608E-02  0.9151331E-01
          2   -1    0    0  501    0  0.00000000000E+00  0.00000000000E+00  0.88473607096E+03  0.88473607096E+03  0.00000000000E+00 0. -1.
         -1   -1    0    0    0  501 -0.00000000000E+00 -0.00000000000E+00 -0.37827552247E+03  0.37827552247E+03  0.00000000000E+00 0.  1.
         24    2    1    2    0    0 -0.69740087922E+02 -0.11001988522E+03  0.28505643745E+03  0.32367927262E+03  0.80889084496E+02 0.  0.
        254    2    1    2    0    0  0.69740087922E+02  0.11001988522E+03  0.22140411104E+03  0.93933232081E+03  0.90352497116E+03 0.  0.
         23    2    4    4    0    0 -0.53312522210E+02 -0.30488868425E+02  0.54488095284E+03  0.55491109954E+03  0.85201405527E+02 0.  0.
         23    2    4    4    0    0  0.12305261013E+03  0.14050875364E+03 -0.32347684179E+03  0.38442122127E+03  0.90872182072E+02 0.  0.
          2    1    3    3  502    0 -0.86322810419E+02 -0.10188798913E+03  0.26259453812E+03  0.29459918768E+03  0.00000000000E+00 0. -1.
         -1    1    3    3    0  502  0.16582722497E+02 -0.81318960893E+01  0.22461899322E+02  0.29080084948E+02  0.00000000000E+00 0.  1.
         11    1    5    5    0    0 -0.39547012848E+02 -0.50233705953E+02  0.49919574445E+03  0.50327306973E+03  0.00000000000E+00 0.  1.
        -11    1    5    5    0    0 -0.13765509362E+02  0.19744837529E+02  0.45685208387E+02  0.51638029808E+02  0.00000000000E+00 0. -1.
          3    1    6    6  503    0  0.10092711222E+03  0.48199626075E+02 -0.19304133583E+03  0.22310186748E+03  0.00000000000E+00 0. -1.
         -3    1    6    6    0  503  0.22125497910E+02  0.92309127567E+02 -0.13043550596E+03  0.16131935378E+03  0.00000000000E+00 0.  1.
<mgrwt>
<rscale>  0 0.11570203E+04</rscale>
<asrwt>0</asrwt>
<pdfrwt beam="1">  1        2 0.13611324E+00 0.11570203E+04</pdfrwt>
<pdfrwt beam="2">  1       -1 0.58196235E-01 0.11570203E+04</pdfrwt>
<totfact> 0.10143996E+02</totfact>
</mgrwt>
</event>
<event>
12    6  0.1611689E-007  0.1622525E+04  0.7818608E-02  0.8806828E-01
         -3   -1    0    0    0  501 -0.00000000000E+00  0.00000000000E+00  0.63909183290E+03  0.63909183290E+03  0.00000000000E+00 0.  1.
          2   -1    0    0  501    0  0.00000000000E+00 -0.00000000000E+00 -0.10298161432E+04  0.10298161432E+04  0.00000000000E+00 0. -1.
         24    2    1    2    0    0  0.11609531233E+03  0.59351149248E+02  0.42909611602E+03  0.45585216343E+03  0.81713142506E+02 0.  0.
        254    2    1    2    0    0 -0.11609531233E+03 -0.59351149248E+02 -0.81982042633E+03  0.12130558127E+04  0.88453275393E+03 0.  0.
         23    2    4    4    0    0  0.14452650994E+03  0.34873560261E+03 -0.25707792867E+03  0.46533091148E+03  0.89103104171E+02 0.  0.
         23    2    4    4    0    0 -0.26062182227E+03 -0.40808675185E+03 -0.56274249766E+03  0.74772490119E+03  0.89190122241E+02 0.  0.
          2    1    3    3  502    0 -0.10865096467E+02  0.52639661271E+01  0.72238789845E+02  0.73240715582E+02  0.00000000000E+00 0. -1.
         -1    1    3    3    0  502  0.12696040880E+03  0.54087183121E+02  0.35685732617E+03  0.38261144785E+03  0.00000000000E+00 0.  1.
         11    1    5    5    0    0  0.92262846918E+02  0.12898299564E+03 -0.13672431301E+03  0.20938620741E+03  0.00000000000E+00 0. -1.
        -11    1    5    5    0    0  0.52263663022E+02  0.21975260697E+03 -0.12035361566E+03  0.25594470407E+03  0.00000000000E+00 0.  1.
          3    1    6    6  503    0 -0.19716678002E+03 -0.24829832331E+03 -0.32202706365E+03  0.45191617168E+03  0.00000000000E+00 0. -1.
         -3    1    6    6    0  503 -0.63455042244E+02 -0.15978842854E+03 -0.24071543401E+03  0.29580872951E+03  0.00000000000E+00 0.  1.
<mgrwt>
<rscale>  0 0.16225253E+04</rscale>
<asrwt>0</asrwt>
<pdfrwt beam="1">  1        2 0.15843325E+00 0.16225253E+04</pdfrwt>
<pdfrwt beam="2">  1       -3 0.98321821E-01 0.16225253E+04</pdfrwt>
<totfact> 0.13304502E+01</totfact>
</mgrwt>
</event>
<event>
12    6  0.1611689E-007  0.1923436E+04  0.7818608E-02  0.8643278E-01
         -1   -1    0    0    0  501 -0.00000000000E+00  0.00000000000E+00  0.58096565095E+03  0.58096565095E+03  0.00000000000E+00 0.  1.
          2   -1    0    0  501    0  0.00000000000E+00 -0.00000000000E+00 -0.15920067193E+04  0.15920067193E+04  0.00000000000E+00 0. -1.
         24    2    1    2    0    0 -0.69326386923E+03  0.19675719709E+03 -0.64404126729E+03  0.96961372561E+03  0.77675195028E+02 0.  0.
        254    2    1    2    0    0  0.69326386923E+03 -0.19675719709E+03 -0.36699980108E+03  0.12033586447E+04  0.89109763029E+03 0.  0.
         23    2    4    4    0    0  0.78264540398E+03  0.12298985923E+03 -0.20744779904E+03  0.82417675402E+03  0.92587249131E+02 0.  0.
         23    2    4    4    0    0 -0.89381534744E+02 -0.31974705632E+03 -0.15955200204E+03  0.37918189064E+03  0.89971251296E+02 0.  0.
          4    1    3    3  502    0 -0.66720710514E+03  0.19633056755E+03 -0.63571665731E+03  0.94225616542E+03  0.00000000000E+00 0. -1.
         -3    1    3    3    0  502 -0.26056764095E+02  0.42662954005E+00 -0.83246099849E+01  0.27357560185E+02  0.00000000000E+00 0.  1.
         11    1    5    5    0    0  0.32988266722E+02 -0.98999852730E+01 -0.20984871911E+02  0.40331133121E+02  0.00000000000E+00 0. -1.
        -11    1    5    5    0    0  0.74965713726E+03  0.13288984450E+03 -0.18646292713E+03  0.78384562090E+03  0.00000000000E+00 0.  1.
          1    1    6    6  503    0 -0.59072481311E+02 -0.82183484352E+02 -0.71926278180E+02  0.12416550504E+03  0.00000000000E+00 0. -1.
         -1    1    6    6    0  503 -0.30309053432E+02 -0.23756357197E+03 -0.87625723859E+02  0.25501638561E+03  0.00000000000E+00 0.  1.
<mgrwt>
<rscale>  0 0.19234357E+04</rscale>
<asrwt>0</asrwt>
<pdfrwt beam="1">  1        2 0.24492411E+00 0.19234357E+04</pdfrwt>
<pdfrwt beam="2">  1       -1 0.89379333E-01 0.19234357E+04</pdfrwt>
<totfact> 0.14717339E+01</totfact>
</mgrwt>
</event>
<event>
12    6  0.1611689E-007  0.3667819E+04  0.7818608E-02  0.8075131E-01
         -1   -1    0    0    0  501 -0.00000000000E+00  0.00000000000E+00  0.14283773457E+04  0.14283773457E+04  0.00000000000E+00 0.  1.
          2   -1    0    0  501    0  0.00000000000E+00 -0.00000000000E+00 -0.23545761967E+04  0.23545761967E+04  0.00000000000E+00 0. -1.
         24    2    1    2    0    0  0.94759538685E+03  0.13196391818E+04 -0.10277340082E+04  0.19240989516E+04  0.80839325502E+02 0.  0.
        254    2    1    2    0    0 -0.94759538685E+03 -0.13196391818E+04  0.10153515729E+03  0.18588545908E+04  0.89757808257E+03 0.  0.
         23    2    4    4    0    0 -0.73849709828E+03 -0.12759234291E+04 -0.18639437424E+03  0.14888321033E+04  0.92301722417E+02 0.  0.
         23    2    4    4    0    0 -0.20909828858E+03 -0.43715752648E+02  0.28792953153E+03  0.37002248748E+03  0.91542693846E+02 0.  0.
          2    1    3    3  502    0  0.47050222217E+03  0.72111251883E+03 -0.52951522671E+03  0.10108224281E+04  0.00000000000E+00 0. -1.
         -1    1    3    3    0  502  0.47709316468E+03  0.59852666296E+03 -0.49821878152E+03  0.91327652347E+03  0.00000000000E+00 0.  1.
         11    1    5    5    0    0 -0.26180777181E+03 -0.36858406202E+03 -0.64061980525E+02  0.45661959825E+03  0.00000000000E+00 0. -1.
        -11    1    5    5    0    0 -0.47668932647E+03 -0.90733936712E+03 -0.12233239372E+03  0.10322125051E+04  0.00000000000E+00 0.  1.
          1    1    6    6  503    0 -0.81338478862E+02 -0.12287940779E+02  0.18669407038E+03  0.20401376804E+03  0.00000000000E+00 0. -1.
         -1    1    6    6    0  503 -0.12775980971E+03 -0.31427811869E+02  0.10123546115E+03  0.16600871944E+03  0.00000000000E+00 0.  1.
<mgrwt>
<rscale>  0 0.36678186E+04</rscale>
<asrwt>0</asrwt>
<pdfrwt beam="1">  1        2 0.36224249E+00 0.36678186E+04</pdfrwt>
<pdfrwt beam="2">  1       -1 0.21975036E+00 0.36678186E+04</pdfrwt>
<totfact> 0.42960802E-01</totfact>
</mgrwt>
</event>
<event>
12    6  0.1611689E-007  0.1260743E+04  0.7818608E-02  0.9061289E-01
          2   -1    0    0  501    0  0.00000000000E+00  0.00000000000E+00  0.57958698217E+03  0.57958698217E+03  0.00000000000E+00 0. -1.
         -1   -1    0    0    0  501 -0.00000000000E+00 -0.00000000000E+00 -0.68560587415E+03  0.68560587415E+03  0.00000000000E+00 0.  1.
         24    2    1    2    0    0  0.13156431324E+03  0.26135112274E+03  0.44430706285E+02  0.30660394529E+03  0.80114379067E+02 0.  0.
        254    2    1    2    0    0 -0.13156431324E+03 -0.26135112274E+03 -0.15044959826E+03  0.95858891103E+03  0.90035772938E+03 0.  0.
         23    2    4    4    0    0  0.37198217378E+03 -0.10292893955E+03 -0.14556512995E+03  0.42235955934E+03  0.90737456943E+02 0.  0.
         23    2    4    4    0    0 -0.50354648702E+03 -0.15842218319E+03 -0.48844683105E+01  0.53622935169E+03  0.94135045901E+02 0.  0.
          4    1    3    3  502    0  0.91252698208E+02  0.18868470481E+03  0.67792709222E+02  0.22028350865E+03  0.00000000000E+00 0. -1.
         -3    1    3    3    0  502  0.40311615028E+02  0.72666417934E+02 -0.23362002937E+02  0.86320436646E+02  0.00000000000E+00 0.  1.
         11    1    5    5    0    0  0.35439976217E+03 -0.76452232835E+02 -0.14527527028E+03  0.39057526737E+03  0.00000000000E+00 0.  1.
        -11    1    5    5    0    0  0.17582411617E+02 -0.26476706719E+02 -0.28985967941E+00  0.31784291963E+02  0.00000000000E+00 0. -1.
          2    1    6    6  503    0 -0.57994889339E+02 -0.32892311603E+02  0.27673996231E+02  0.72188374545E+02  0.00000000000E+00 0. -1.
         -2    1    6    6    0  503 -0.44555159768E+03 -0.12552987158E+03 -0.32558464542E+02  0.46404097714E+03  0.00000000000E+00 0.  1.
<mgrwt>
<rscale>  0 0.12607430E+04</rscale>
<asrwt>0</asrwt>
<pdfrwt beam="1">  1        2 0.89167228E-01 0.12607430E+04</pdfrwt>
<pdfrwt beam="2">  1       -1 0.10547783E+00 0.12607430E+04</pdfrwt>
<totfact> 0.48957831E+01</totfact>
</mgrwt>
</event>
<event>
12    6  0.1611689E-007  0.3033945E+04  0.7818608E-02  0.8234104E-01
          2   -1    0    0  501    0  0.00000000000E+00  0.00000000000E+00  0.21404972519E+04  0.21404972519E+04  0.00000000000E+00 0. -1.
         -1   -1    0    0    0  501 -0.00000000000E+00 -0.00000000000E+00 -0.10750797043E+04  0.10750797043E+04  0.00000000000E+00 0.  1.
         24    2    1    2    0    0 -0.81194653609E+02  0.49672465024E+03 -0.88512007948E+03  0.10213434550E+04  0.79855795181E+02 0.  0.
        254    2    1    2    0    0  0.81194653609E+02 -0.49672465024E+03  0.19505376271E+04  0.21942335013E+04  0.86990555423E+03 0.  0.
         23    2    4    4    0    0  0.46260854026E+03 -0.21196673158E+03  0.10963356323E+04  0.12120727974E+04  0.90730870767E+02 0.  0.
         23    2    4    4    0    0 -0.38141388665E+03 -0.28475791866E+03  0.85420199486E+03  0.98216070381E+03  0.91733172464E+02 0.  0.
          2    1    3    3  502    0 -0.32338131102E+02  0.88379540406E+02 -0.11794882114E+03  0.15089275097E+03  0.00000000000E+00 0. -1.
         -1    1    3    3    0  502 -0.48856522507E+02  0.40834510984E+03 -0.76717125834E+03  0.87045070402E+03  0.00000000000E+00 0.  1.
         11    1    5    5    0    0  0.43872085731E+03 -0.17404585042E+03  0.10072302881E+04  0.11123312465E+04  0.00000000000E+00 0. -1.
        -11    1    5    5    0    0  0.23887682943E+02 -0.37920881157E+02  0.89105344203E+02  0.99741550968E+02  0.00000000000E+00 0.  1.
          4    1    6    6  503    0 -0.35201160258E+03 -0.28234451229E+03  0.76464361860E+03  0.88786848994E+03  0.00000000000E+00 0. -1.
         -4    1    6    6    0  503 -0.29402284067E+02 -0.24134063753E+01  0.89558376259E+02  0.94292213872E+02  0.00000000000E+00 0.  1.
<mgrwt>
<rscale>  0 0.30339447E+04</rscale>
<asrwt>0</asrwt>
<pdfrwt beam="1">  1        2 0.32930727E+00 0.30339447E+04</pdfrwt>
<pdfrwt beam="2">  1       -1 0.16539688E+00 0.30339447E+04</pdfrwt>
<totfact> 0.14409365E+00</totfact>
</mgrwt>
</event>
<event>
12    6  0.1611689E-007  0.1472624E+04  0.7818608E-02  0.8902864E-01
          2   -1    0    0  501    0  0.00000000000E+00  0.00000000000E+00  0.25919841236E+04  0.25919841236E+04  0.00000000000E+00 0. -1.
         -3   -1    0    0    0  501 -0.00000000000E+00 -0.00000000000E+00 -0.20916626046E+03  0.20916626046E+03  0.00000000000E+00 0.  1.
         24    2    1    2    0    0 -0.41831474653E+03 -0.91190626579E+02  0.48100884772E+03  0.64885650745E+03  0.79638546789E+02 0.  0.
        254    2    1    2    0    0  0.41831474653E+03  0.91190626579E+02  0.19018090155E+04  0.21522938766E+04  0.91224363117E+03 0.  0.
         23    2    4    4    0    0  0.69678878070E+02 -0.27180658256E+03  0.14153830410E+04  0.14458392252E+04  0.91694864947E+02 0.  0.
         23    2    4    4    0    0  0.34863586846E+03  0.36299720914E+03  0.48642597451E+03  0.70645465141E+03  0.95676555100E+02 0.  0.
          2    1    3    3  502    0 -0.24251508020E+03 -0.24871471891E+02  0.31353033539E+03  0.39715667619E+03  0.00000000000E+00 0. -1.
         -3    1    3    3    0  502 -0.17579966633E+03 -0.66319154688E+02  0.16747851233E+03  0.25169983125E+03  0.00000000000E+00 0.  1.
         11    1    5    5    0    0  0.17287231945E+02 -0.18977494773E+03  0.10772812103E+04  0.10940055692E+04  0.00000000000E+00 0.  1.
        -11    1    5    5    0    0  0.52391646124E+02 -0.82031634830E+02  0.33810183061E+03  0.35183365609E+03  0.00000000000E+00 0. -1.
          2    1    6    6  503    0  0.73883728530E+02  0.94204912636E+02  0.17358007940E+03  0.21086349819E+03  0.00000000000E+00 0. -1.
         -2    1    6    6    0  503  0.27475213993E+03  0.26879229650E+03  0.31284589512E+03  0.49559115321E+03  0.00000000000E+00 0.  1.
<mgrwt>
<rscale>  0 0.14726244E+04</rscale>
<asrwt>0</asrwt>
<pdfrwt beam="1">  1        2 0.39876677E+00 0.14726244E+04</pdfrwt>
<pdfrwt beam="2">  1       -3 0.32179426E-01 0.14726244E+04</pdfrwt>
<totfact> 0.18385080E+01</totfact>
</mgrwt>
</event>
<event>
12    6  0.1611689E-007  0.2362682E+04  0.7818608E-02  0.8453608E-01
         -1   -1    0    0    0  501 -0.00000000000E+00  0.00000000000E+00  0.12594878667E+04  0.12594878667E+04  0.00000000000E+00 0.  1.
          2   -1    0    0  501    0  0.00000000000E+00 -0.00000000000E+00 -0.11080433313E+04  0.11080433313E+04  0.00000000000E+00 0. -1.
         24    2    1    2    0    0  0.63237811913E+03 -0.77764255683E+03 -0.17421006498E+02  0.10063640026E+04  0.88515436210E+02 0.  0.
        254    2    1    2    0    0 -0.63237811913E+03  0.77764255683E+03  0.16886554187E+03  0.13611671954E+04  0.90533448562E+03 0.  0.
         23    2    4    4    0    0 -0.55814529905E+03  0.95956067791E+03  0.53125676467E+02  0.11150107404E+04  0.90242696855E+02 0.  0.
         23    2    4    4    0    0 -0.74232820080E+02 -0.18191812108E+03  0.11573986540E+03  0.24615645497E+03  0.92696113863E+02 0.  0.
          4    1    3    3  502    0  0.45521492097E+03 -0.61903873573E+03 -0.98154543617E+01  0.76845684573E+03  0.00000000000E+00 0. -1.
         -3    1    3    3    0  502  0.17716319816E+03 -0.15860382110E+03 -0.76055521368E+01  0.23790715684E+03  0.00000000000E+00 0.  1.
         11    1    5    5    0    0 -0.38379953931E+03  0.60615921411E+03  0.67999042801E+02  0.72066285394E+03  0.00000000000E+00 0.  1.
        -11    1    5    5    0    0 -0.17434575974E+03  0.35340146380E+03 -0.14873366334E+02  0.39434788649E+03  0.00000000000E+00 0. -1.
          3    1    6    6  503    0 -0.72840645816E+02 -0.77944287518E+02  0.28498287670E+02  0.11042293258E+03  0.00000000000E+00 0. -1.
         -3    1    6    6    0  503 -0.13921742640E+01 -0.10397383356E+03  0.87241577734E+02  0.13573352239E+03  0.00000000000E+00 0.  1.
<mgrwt>
<rscale>  0 0.23626825E+04</rscale>
<asrwt>0</asrwt>
<pdfrwt beam="1">  1        2 0.17046820E+00 0.23626825E+04</pdfrwt>
<pdfrwt beam="2">  1       -1 0.19376736E+00 0.23626825E+04</pdfrwt>
<totfact> 0.36827220E+00</totfact>
</mgrwt>
</event>
<event>
12    6  0.1611689E-007  0.1181804E+04  0.7818608E-02  0.9128934E-01
         -1   -1    0    0    0  501 -0.00000000000E+00  0.00000000000E+00  0.44856545377E+03  0.44856545377E+03  0.00000000000E+00 0.  1.
          2   -1    0    0  501    0  0.00000000000E+00 -0.00000000000E+00 -0.77840425671E+03  0.77840425671E+03  0.00000000000E+00 0. -1.
         24    2    1    2    0    0  0.41812902469E+02 -0.76450684772E+02  0.13084251075E+03  0.17729894857E+03  0.81988587794E+02 0.  0.
        254    2    1    2    0    0 -0.41812902469E+02  0.76450684772E+02 -0.46068131369E+03  0.10496707619E+04  0.93914237983E+03 0.  0.
         23    2    4    4    0    0  0.12521118213E+03  0.21221659973E+03  0.21115314272E+03  0.33819754858E+03  0.95279624555E+02 0.  0.
         23    2    4    4    0    0 -0.16702408460E+03 -0.13576591496E+03 -0.67183445641E+03  0.71147321332E+03  0.92212623630E+02 0.  0.
          2    1    3    3  502    0  0.26443910712E+02  0.11706730905E+02  0.43622801497E+02  0.52338100583E+02  0.00000000000E+00 0. -1.
         -1    1    3    3    0  502  0.15368991757E+02 -0.88157415677E+02  0.87219709256E+02  0.12496084798E+03  0.00000000000E+00 0.  1.
         11    1    5    5    0    0  0.13123835514E+03  0.21502202771E+03  0.18860578295E+03  0.31469051403E+03  0.00000000000E+00 0.  1.
        -11    1    5    5    0    0 -0.60271730091E+01 -0.28054279813E+01  0.22547359771E+02  0.23507034549E+02  0.00000000000E+00 0. -1.
          3    1    6    6  503    0 -0.50039254799E+02 -0.39479410430E+02 -0.90326586860E+02  0.11055063619E+03  0.00000000000E+00 0. -1.
         -3    1    6    6    0  503 -0.11698482980E+03 -0.96286504530E+02 -0.58150786955E+03  0.60092257713E+03  0.00000000000E+00 0.  1.
<mgrwt>
<rscale>  0 0.11818041E+04</rscale>
<asrwt>0</asrwt>
<pdfrwt beam="1">  1        2 0.11975450E+00 0.11818041E+04</pdfrwt>
<pdfrwt beam="2">  1       -1 0.69010070E-01 0.11818041E+04</pdfrwt>
<totfact> 0.85615962E+01</totfact>
</mgrwt>
</event>
<event>
12    6  0.1611689E-007  0.1278806E+04  0.7818608E-02  0.9046543E-01
          2   -1    0    0  501    0  0.00000000000E+00  0.00000000000E+00  0.12437836486E+04  0.12437836486E+04  0.00000000000E+00 0. -1.
         -1   -1    0    0    0  501 -0.00000000000E+00 -0.00000000000E+00 -0.32870344731E+03  0.32870344731E+03  0.00000000000E+00 0.  1.
         24    2    1    2    0    0 -0.35301853569E+03 -0.53214082586E+02  0.32784447571E+03  0.49081302928E+03  0.77211426236E+02 0.  0.
        254    2    1    2    0    0  0.35301853569E+03  0.53214082586E+02  0.58723572558E+03  0.10816740666E+04  0.83529585409E+03 0.  0.
         23    2    4    4    0    0  0.39664320599E+03  0.30982932735E+03  0.62035750883E+03  0.80444127325E+03  0.94669310753E+02 0.  0.
         23    2    4    4    0    0 -0.43624670309E+02 -0.25661524476E+03 -0.33121783248E+02  0.27723279337E+03  0.89478899682E+02 0.  0.
          2    1    3    3  502    0 -0.92689856934E+02 -0.37577073661E+01  0.13188216844E+03  0.16124030605E+03  0.00000000000E+00 0. -1.
         -1    1    3    3    0  502 -0.26032867875E+03 -0.49456375220E+02  0.19596230727E+03  0.32957272323E+03  0.00000000000E+00 0.  1.
         11    1    5    5    0    0  0.15028057107E+02  0.34207124686E+02  0.76600799554E+02  0.85227063613E+02  0.00000000000E+00 0.  1.
        -11    1    5    5    0    0  0.38161514889E+03  0.27562220266E+03  0.54375670927E+03  0.71921420964E+03  0.00000000000E+00 0. -1.
          2    1    6    6  503    0 -0.32438934815E+02 -0.13225891315E+03 -0.61132218072E+02  0.14927107117E+03  0.00000000000E+00 0. -1.
         -2    1    6    6    0  503 -0.11185735494E+02 -0.12435633161E+03  0.28010434824E+02  0.12796172220E+03  0.00000000000E+00 0.  1.
<mgrwt>
<rscale>  0 0.12788057E+04</rscale>
<asrwt>0</asrwt>
<pdfrwt beam="1">  1        2 0.19135133E+00 0.12788057E+04</pdfrwt>
<pdfrwt beam="2">  1       -1 0.50569762E-01 0.12788057E+04</pdfrwt>
<totfact> 0.78385739E+01</totfact>
</mgrwt>
</event>
<event>
12    6  0.1611689E-007  0.1539039E+04  0.7818608E-02  0.8858899E-01
          2   -1    0    0  501    0  0.00000000000E+00  0.00000000000E+00  0.12216714032E+04  0.12216714032E+04  0.00000000000E+00 0. -1.
         -1   -1    0    0    0  501 -0.00000000000E+00 -0.00000000000E+00 -0.48471330367E+03  0.48471330367E+03  0.00000000000E+00 0.  1.
         24    2    1    2    0    0 -0.19518843200E+03 -0.43636261629E+03  0.34629753075E+02  0.48619820825E+03  0.81722830512E+02 0.  0.
        254    2    1    2    0    0  0.19518843200E+03  0.43636261629E+03  0.70232834646E+03  0.12201864986E+04  0.87583053628E+03 0.  0.
         23    2    4    4    0    0  0.25214119602E+03  0.55482653280E+03  0.13710230285E+03  0.63286666387E+03  0.10156529213E+03 0.  0.
         23    2    4    4    0    0 -0.56952764028E+02 -0.11846391650E+03  0.56522604362E+03  0.58731983475E+03  0.90480887839E+02 0.  0.
          2    1    3    3  502    0 -0.18154480522E+02 -0.57877402967E+01 -0.22690238289E+01  0.19189360852E+02  0.00000000000E+00 0. -1.
         -1    1    3    3    0  502 -0.17703395147E+03 -0.43057487600E+03  0.36898776904E+02  0.46700884740E+03  0.00000000000E+00 0.  1.
         11    1    5    5    0    0  0.55167036603E+02  0.13643713803E+03  0.78311735845E+02  0.16670699605E+03  0.00000000000E+00 0.  1.
        -11    1    5    5    0    0  0.19697415942E+03  0.41838939477E+03  0.58790567003E+02  0.46615966782E+03  0.00000000000E+00 0. -1.
          3    1    6    6  503    0  0.40000483194E+01 -0.40462375999E+02  0.32445544889E+03  0.32699318429E+03  0.00000000000E+00 0. -1.
         -3    1    6    6    0  503 -0.60952812348E+02 -0.78001540503E+02  0.24077059472E+03  0.26032665045E+03  0.00000000000E+00 0.  1.
<mgrwt>
<rscale>  0 0.15390392E+04</rscale>
<asrwt>0</asrwt>
<pdfrwt beam="1">  1        2 0.18794945E+00 0.15390392E+04</pdfrwt>
<pdfrwt beam="2">  1       -1 0.74571278E-01 0.15390392E+04</pdfrwt>
<totfact> 0.36545273E+01</totfact>
</mgrwt>
</event>
<event>
12    6  0.1611689E-007  0.1471964E+04  0.7818608E-02  0.8903314E-01
         -1   -1    0    0    0  501 -0.00000000000E+00  0.00000000000E+00  0.19921108759E+03  0.19921108759E+03  0.00000000000E+00 0.  1.
          2   -1    0    0  501    0  0.00000000000E+00 -0.00000000000E+00 -0.27190721029E+04  0.27190721029E+04  0.00000000000E+00 0. -1.
         24    2    1    2    0    0  0.39550248411E+03  0.18513199665E+03 -0.53969062103E+03  0.69887407905E+03  0.80392417694E+02 0.  0.
        254    2    1    2    0    0 -0.39550248411E+03 -0.18513199665E+03 -0.19801703943E+04  0.22194091115E+04  0.90222277872E+03 0.  0.
         23    2    4    4    0    0 -0.39067194742E+01  0.29944174109E+03 -0.10490018722E+04  0.10944490061E+04  0.87937934669E+02 0.  0.
         23    2    4    4    0    0 -0.39159576464E+03 -0.48457373774E+03 -0.93116852211E+03  0.11249601053E+04  0.10149616679E+03 0.  0.
          2    1    3    3  502    0  0.17043700321E+03  0.10660251906E+03 -0.19726669891E+03  0.28165052748E+03  0.00000000000E+00 0. -1.
         -1    1    3    3    0  502  0.22506548090E+03  0.78529477591E+02 -0.34242392212E+03  0.41722355157E+03  0.00000000000E+00 0.  1.
         11    1    5    5    0    0  0.22589520053E+02  0.25564364635E+03 -0.79701169006E+03  0.83731212486E+03  0.00000000000E+00 0. -1.
        -11    1    5    5    0    0 -0.26496239528E+02  0.43798094736E+02 -0.25199018214E+03  0.25713688127E+03  0.00000000000E+00 0.  1.
          2    1    6    6  503    0 -0.32986497616E+03 -0.41620661143E+03 -0.84957381378E+03  0.10019054401E+04  0.00000000000E+00 0. -1.
         -2    1    6    6    0  503 -0.61730788476E+02 -0.68367126311E+02 -0.81594708329E+02  0.12305466522E+03  0.00000000000E+00 0.  1.
<mgrwt>
<rscale>  0 0.14719637E+04</rscale>
<asrwt>0</asrwt>
<pdfrwt beam="1">  1        2 0.41831877E+00 0.14719637E+04</pdfrwt>
<pdfrwt beam="2">  1       -1 0.30647861E-01 0.14719637E+04</pdfrwt>
<totfact> 0.28165728E+01</totfact>
</mgrwt>
</event>
<event>
12    6  0.1611689E-007  0.1609262E+04  0.7818608E-02  0.8814878E-01
         -1   -1    0    0    0  501 -0.00000000000E+00  0.00000000000E+00  0.12100770142E+04  0.12100770142E+04  0.00000000000E+00 0.  1.
          2   -1    0    0  501    0  0.00000000000E+00 -0.00000000000E+00 -0.53503306245E+03  0.53503306245E+03  0.00000000000E+00 0. -1.
         24    2    1    2    0    0 -0.40114375502E+03 -0.22503866859E+03 -0.10251736908E+03  0.47748407542E+03  0.76957889546E+02 0.  0.
        254    2    1    2    0    0  0.40114375502E+03  0.22503866859E+03  0.77756132079E+03  0.12676260012E+04  0.88922177028E+03 0.  0.
         23    2    4    4    0    0  0.46081907442E+03  0.46296160431E+03  0.75848979503E+03  0.10050541365E+04  0.90218522418E+02 0.  0.
         23    2    4    4    0    0 -0.59675319402E+02 -0.23792293572E+03  0.19071525761E+02  0.26257186465E+03  0.91715832460E+02 0.  0.
          4    1    3    3  502    0 -0.23876499141E+03 -0.13602825850E+03 -0.99593133663E+02  0.29228616201E+03  0.00000000000E+00 0. -1.
         -3    1    3    3    0  502 -0.16237876362E+03 -0.89010410083E+02 -0.29242354188E+01  0.18519791340E+03  0.00000000000E+00 0.  1.
         11    1    5    5    0    0  0.20464902348E+03  0.22290450931E+03  0.28561699423E+03  0.41610660951E+03  0.00000000000E+00 0.  1.
        -11    1    5    5    0    0  0.25617005095E+03  0.24005709500E+03  0.47287280079E+03  0.58894752703E+03  0.00000000000E+00 0. -1.
          1    1    6    6  503    0  0.63641862007E+01 -0.14708964285E+03 -0.65896081921E+01  0.14737465466E+03  0.00000000000E+00 0. -1.
         -1    1    6    6    0  503 -0.66039505603E+02 -0.90833292867E+02  0.25661133953E+02  0.11519720999E+03  0.00000000000E+00 0.  1.
<mgrwt>
<rscale>  0 0.16092622E+04</rscale>
<asrwt>0</asrwt>
<pdfrwt beam="1">  1        2 0.82312779E-01 0.16092622E+04</pdfrwt>
<pdfrwt beam="2">  1       -1 0.18616569E+00 0.16092622E+04</pdfrwt>
<totfact> 0.11712785E+01</totfact>
</mgrwt>
</event>
<event>
12    6  0.1611689E-007  0.2136837E+04  0.7818608E-02  0.8545188E-01
          2   -1    0    0  501    0  0.00000000000E+00  0.00000000000E+00  0.77194134644E+03  0.77194134644E+03  0.00000000000E+00 0. -1.
         -1   -1    0    0    0  501 -0.00000000000E+00 -0.00000000000E+00 -0.14787623399E+04  0.14787623399E+04  0.00000000000E+00 0.  1.
         24    2    1    2    0    0 -0.15718166682E+03  0.61985873591E+03 -0.91969022451E+03  0.11230425824E+04  0.80396542328E+02 0.  0.
        254    2    1    2    0    0  0.15718166682E+03 -0.61985873591E+03  0.21286923108E+03  0.11276611039E+04  0.90408811892E+03 0.  0.
         23    2    4    4    0    0 -0.35823834020E+03 -0.33139609679E+03  0.10224993895E+02  0.49706315278E+03  0.93857050865E+02 0.  0.
         23    2    4    4    0    0  0.51542000703E+03 -0.28846263913E+03  0.20264423718E+03  0.63059795109E+03  0.87867008841E+02 0.  0.
          2    1    3    3  502    0 -0.82503840610E+02  0.44264017498E+03 -0.60346625476E+03  0.75293341595E+03  0.00000000000E+00 0. -1.
         -1    1    3    3    0  502 -0.74677826214E+02  0.17721856093E+03 -0.31622396975E+03  0.37010916647E+03  0.00000000000E+00 0.  1.
         11    1    5    5    0    0 -0.29779239904E+02 -0.62861314538E+02 -0.18050795037E+02  0.71862223707E+02  0.00000000000E+00 0.  1.
        -11    1    5    5    0    0 -0.32845910030E+03 -0.26853478225E+03  0.28275788932E+02  0.42520092908E+03  0.00000000000E+00 0. -1.
          4    1    6    6  503    0  0.34754132462E+03 -0.21206237194E+03  0.98873231969E+02  0.41896460222E+03  0.00000000000E+00 0. -1.
         -4    1    6    6    0  503  0.16787868240E+03 -0.76400267188E+02  0.10377100521E+03  0.21163334887E+03  0.00000000000E+00 0.  1.
<mgrwt>
<rscale>  0 0.21368367E+04</rscale>
<asrwt>0</asrwt>
<pdfrwt beam="1">  1        2 0.11876021E+00 0.21368367E+04</pdfrwt>
<pdfrwt beam="2">  1       -1 0.22750190E+00 0.21368367E+04</pdfrwt>
<totfact> 0.37128218E+00</totfact>
</mgrwt>
</event>
<event>
12    6  0.1611689E-007  0.1956410E+04  0.7818608E-02  0.8627276E-01
          2   -1    0    0  501    0  0.00000000000E+00  0.00000000000E+00  0.43199408918E+04  0.43199408918E+04  0.00000000000E+00 0. -1.
         -1   -1    0    0    0  501 -0.00000000000E+00 -0.00000000000E+00 -0.22150416887E+03  0.22150416887E+03  0.00000000000E+00 0.  1.
         24    2    1    2    0    0 -0.71256499002E+02  0.76324573168E+03  0.16271289060E+04  0.18004495813E+04  0.80303689666E+02 0.  0.
        254    2    1    2    0    0  0.71256499002E+02 -0.76324573168E+03  0.24713078169E+04  0.27409954793E+04  0.90447352432E+03 0.  0.
         23    2    4    4    0    0 -0.22536697459E+03 -0.97085858009E+02  0.14171273485E+03  0.29825627854E+03  0.93050370253E+02 0.  0.
         23    2    4    4    0    0  0.29662347360E+03 -0.66615987367E+03  0.23295950821E+04  0.24427392008E+04  0.90593014874E+02 0.  0.
          4    1    3    3  502    0 -0.86478432015E+02  0.68836858803E+03  0.14854868757E+04  0.16395124550E+04  0.00000000000E+00 0. -1.
         -3    1    3    3    0  502  0.15221933013E+02  0.74877143650E+02  0.14164203035E+03  0.16093712638E+03  0.00000000000E+00 0.  1.
         11    1    5    5    0    0 -0.19756880724E+03 -0.10884494814E+03  0.14459884488E+03  0.26793559351E+03  0.00000000000E+00 0. -1.
        -11    1    5    5    0    0 -0.27798167357E+02  0.11759090135E+02 -0.28861100305E+01  0.30320685024E+02  0.00000000000E+00 0.  1.
          3    1    6    6  503    0  0.26590208796E+03 -0.50499690874E+03  0.17999042088E+04  0.18882216393E+04  0.00000000000E+00 0. -1.
         -3    1    6    6    0  503  0.30721385639E+02 -0.16116296492E+03  0.52969087323E+03  0.55451756147E+03  0.00000000000E+00 0.  1.
<mgrwt>
<rscale>  0 0.19564099E+04</rscale>
<asrwt>0</asrwt>
<pdfrwt beam="1">  1        2 0.66460623E+00 0.19564099E+04</pdfrwt>
<pdfrwt beam="2">  1       -1 0.34077568E-01 0.19564099E+04</pdfrwt>
<totfact> 0.15961305E+00</totfact>
</mgrwt>
</event>
<event>
12    6  0.1611689E-007  0.1957919E+04  0.7818608E-02  0.8626552E-01
         -1   -1    0    0    0  501 -0.00000000000E+00  0.00000000000E+00  0.37350366737E+03  0.37350366737E+03  0.00000000000E+00 0.  1.
          2   -1    0    0  501    0  0.00000000000E+00 -0.00000000000E+00 -0.25658682972E+04  0.25658682972E+04  0.00000000000E+00 0. -1.
         24    2    1    2    0    0 -0.12725623981E+03  0.14300740017E+03  0.25140652274E+03  0.32519491541E+03  0.76819439305E+02 0.  0.
        254    2    1    2    0    0  0.12725623981E+03 -0.14300740017E+03 -0.24437711526E+04  0.26141770492E+04  0.90843763193E+03 0.  0.
         23    2    4    4    0    0  0.21219389329E+03 -0.42285186675E+03 -0.73933846347E+03  0.88233850227E+03  0.89832730463E+02 0.  0.
         23    2    4    4    0    0 -0.84937653487E+02  0.27984446658E+03 -0.17044326891E+04  0.17318385469E+04  0.92987258933E+02 0.  0.
          4    1    3    3  502    0 -0.28989783268E+02  0.97896049553E-01  0.17012736885E+02  0.33613246405E+02  0.00000000000E+00 0. -1.
         -3    1    3    3    0  502 -0.98266456538E+02  0.14290950412E+03  0.23439378586E+03  0.29158166900E+03  0.00000000000E+00 0.  1.
         11    1    5    5    0    0  0.56098967181E+00 -0.43306160307E+02 -0.39851262417E+02  0.58854577954E+02  0.00000000000E+00 0.  1.
        -11    1    5    5    0    0  0.21163290362E+03 -0.37954570644E+03 -0.69948720105E+03  0.82348392432E+03  0.00000000000E+00 0. -1.
          4    1    6    6  503    0 -0.84087859453E+02  0.25576543206E+03 -0.16560044016E+04  0.16777476873E+04  0.00000000000E+00 0. -1.
         -4    1    6    6    0  503 -0.84979403396E+00  0.24079034522E+02 -0.48428287588E+02  0.54090859599E+02  0.00000000000E+00 0.  1.
<mgrwt>
<rscale>  0 0.19579185E+04</rscale>
<asrwt>0</asrwt>
<pdfrwt beam="1">  1        2 0.39474898E+00 0.19579185E+04</pdfrwt>
<pdfrwt beam="2">  1       -1 0.57462102E-01 0.19579185E+04</pdfrwt>
<totfact> 0.10381691E+01</totfact>
</mgrwt>
</event>
<event>
12    6  0.1611689E-007  0.1407040E+04  0.7818608E-02  0.8948738E-01
         -1   -1    0    0    0  501 -0.00000000000E+00  0.00000000000E+00  0.37484096542E+03  0.37484096542E+03  0.00000000000E+00 0.  1.
          2   -1    0    0  501    0  0.00000000000E+00 -0.00000000000E+00 -0.13204007861E+04  0.13204007861E+04  0.00000000000E+00 0. -1.
         24    2    1    2    0    0 -0.53111923959E+02  0.24040104903E+02 -0.72152481357E+03  0.72821282374E+03  0.79353997735E+02 0.  0.
        254    2    1    2    0    0  0.53111923959E+02 -0.24040104903E+02 -0.22403500712E+03  0.96702892778E+03  0.93891131618E+03 0.  0.
         23    2    4    4    0    0 -0.31821713815E+03  0.25070201438E+03  0.56190024172E+02  0.41893883718E+03  0.90767744603E+02 0.  0.
         23    2    4    4    0    0  0.37132906211E+03 -0.27474211928E+03 -0.28022503129E+03  0.54809009060E+03  0.92239767874E+02 0.  0.
          4    1    3    3  502    0  0.16375777237E+02  0.21441378406E+02 -0.27298388225E+03  0.27431386906E+03  0.00000000000E+00 0. -1.
         -3    1    3    3    0  502 -0.69487701197E+02  0.25987264974E+01 -0.44854093132E+03  0.45389895468E+03  0.00000000000E+00 0.  1.
         11    1    5    5    0    0 -0.54942983337E+02  0.87718993799E+02 -0.36509852639E+01  0.10356970109E+03  0.00000000000E+00 0.  1.
        -11    1    5    5    0    0 -0.26327415481E+03  0.16298302058E+03  0.59841009436E+02  0.31536913609E+03  0.00000000000E+00 0. -1.
          2    1    6    6  503    0  0.22935475803E+03 -0.12700823402E+03 -0.19224673181E+03  0.32510537127E+03  0.00000000000E+00 0. -1.
         -2    1    6    6    0  503  0.14197430408E+03 -0.14773388526E+03 -0.87978299486E+02  0.22298471933E+03  0.00000000000E+00 0.  1.
<mgrwt>
<rscale>  0 0.14070399E+04</rscale>
<asrwt>0</asrwt>
<pdfrwt beam="1">  1        2 0.20313858E+00 0.14070399E+04</pdfrwt>
<pdfrwt beam="2">  1       -1 0.57667841E-01 0.14070399E+04</pdfrwt>
<totfact> 0.54322077E+01</totfact>
</mgrwt>
</event>
<event>
12    6  0.1611689E-007  0.1396262E+04  0.7818608E-02  0.8956529E-01
          2   -1    0    0  501    0  0.00000000000E+00  0.00000000000E+00  0.11240189300E+04  0.11240189300E+04  0.00000000000E+00 0. -1.
         -1   -1    0    0    0  501 -0.00000000000E+00 -0.00000000000E+00 -0.43361063123E+03  0.43361063123E+03  0.00000000000E+00 0.  1.
         24    2    1    2    0    0  0.72877933270E+02 -0.22463267732E+03  0.56585783484E+03  0.61868932494E+03  0.82524897260E+02 0.  0.
        254    2    1    2    0    0 -0.72877933270E+02  0.22463267732E+03  0.12455046393E+03  0.93894023629E+03  0.90018049100E+03 0.  0.
         23    2    4    4    0    0  0.17086152957E+03 -0.79164271140E+02 -0.29337795852E+03  0.36023184093E+03  0.90750804721E+02 0.  0.
         23    2    4    4    0    0 -0.24373946284E+03  0.30379694846E+03  0.41792842245E+03  0.57870839536E+03  0.92399831844E+02 0.  0.
          2    1    3    3  502    0  0.39391850975E+02 -0.11080876237E+03  0.38353816716E+03  0.40116309079E+03  0.00000000000E+00 0. -1.
         -1    1    3    3    0  502  0.33486082295E+02 -0.11382391495E+03  0.18231966768E+03  0.21752623415E+03  0.00000000000E+00 0.  1.
         11    1    5    5    0    0  0.15779542362E+03 -0.89015328225E+02 -0.29222297393E+03  0.34382755978E+03  0.00000000000E+00 0.  1.
        -11    1    5    5    0    0  0.13066105955E+02  0.98510570842E+01 -0.11549845948E+01  0.16404281146E+02  0.00000000000E+00 0. -1.
          1    1    6    6  503    0  0.30277573957E+01  0.26439654812E+02  0.46399046403E+02  0.53489196746E+02  0.00000000000E+00 0. -1.
         -1    1    6    6    0  503 -0.24676722024E+03  0.27735729365E+03  0.37152937605E+03  0.52521919861E+03  0.00000000000E+00 0.  1.
<mgrwt>
<rscale>  0 0.13962615E+04</rscale>
<asrwt>0</asrwt>
<pdfrwt beam="1">  1        2 0.17292599E+00 0.13962615E+04</pdfrwt>
<pdfrwt beam="2">  1       -1 0.66709328E-01 0.13962615E+04</pdfrwt>
<totfact> 0.53233710E+01</totfact>
</mgrwt>
</event>
<event>
12    6  0.1611689E-007  0.2224729E+04  0.7818608E-02  0.8508205E-01
         -1   -1    0    0    0  501 -0.00000000000E+00  0.00000000000E+00  0.73153357697E+03  0.73153357697E+03  0.00000000000E+00 0.  1.
          2   -1    0    0  501    0  0.00000000000E+00 -0.00000000000E+00 -0.16914529620E+04  0.16914529620E+04  0.00000000000E+00 0. -1.
         24    2    1    2    0    0 -0.54495842960E+02 -0.63349921042E+03 -0.11450927581E+04  0.13122275409E+04  0.80079010679E+02 0.  0.
        254    2    1    2    0    0  0.54495842960E+02  0.63349921042E+03  0.18517337313E+03  0.11107589980E+04  0.89174285926E+03 0.  0.
         23    2    4    4    0    0  0.30693470564E+03  0.14694226569E+03  0.38429876232E+03  0.52049827199E+03  0.86208871042E+02 0.  0.
         23    2    4    4    0    0 -0.25243886268E+03  0.48655694473E+03 -0.19912538919E+03  0.59026072602E+03  0.91070106002E+02 0.  0.
          2    1    3    3  502    0 -0.70512663863E+02 -0.54972463864E+03 -0.10195356978E+04  0.11604405427E+04  0.00000000000E+00 0. -1.
         -1    1    3    3    0  502  0.16016820903E+02 -0.83774571779E+02 -0.12555706039E+03  0.15178699826E+03  0.00000000000E+00 0.  1.
         11    1    5    5    0    0  0.10237254283E+03  0.60256676517E+01  0.11782983515E+03  0.15620600580E+03  0.00000000000E+00 0.  1.
        -11    1    5    5    0    0  0.20456216281E+03  0.14091659804E+03  0.26646892717E+03  0.36429226619E+03  0.00000000000E+00 0. -1.
          1    1    6    6  503    0 -0.12581735129E+03  0.29035397684E+03 -0.15597384067E+03  0.35279353271E+03  0.00000000000E+00 0. -1.
         -1    1    6    6    0  503 -0.12662151140E+03  0.19620296789E+03 -0.43151548510E+02  0.23746719331E+03  0.00000000000E+00 0.  1.
<mgrwt>
<rscale>  0 0.22247289E+04</rscale>
<asrwt>0</asrwt>
<pdfrwt beam="1">  1        2 0.26022353E+00 0.22247289E+04</pdfrwt>
<pdfrwt beam="2">  1       -1 0.11254363E+00 0.22247289E+04</pdfrwt>
<totfact> 0.74443871E+00</totfact>
</mgrwt>
</event>
<event>
12    6  0.1611689E-007  0.1244032E+04  0.7818608E-02  0.9075165E-01
         -1   -1    0    0    0  501 -0.00000000000E+00  0.00000000000E+00  0.14639112616E+04  0.14639112616E+04  0.00000000000E+00 0.  1.
          2   -1    0    0  501    0  0.00000000000E+00 -0.00000000000E+00 -0.26429466396E+03  0.26429466396E+03  0.00000000000E+00 0. -1.
         24    2    1    2    0    0 -0.10386764563E+03  0.26089194664E+03  0.19965998824E+03  0.35372651619E+03  0.80032754048E+02 0.  0.
        254    2    1    2    0    0  0.10386764563E+03 -0.26089194664E+03  0.99995660942E+03  0.13744794094E+04  0.90023737455E+03 0.  0.
         23    2    4    4    0    0  0.31800670485E+03  0.54233212392E+02  0.39483753220E+02  0.33716100906E+03  0.89716629500E+02 0.  0.
         23    2    4    4    0    0 -0.21413905922E+03 -0.31512515903E+03  0.96047285620E+03  0.10373184003E+04  0.91443718507E+02 0.  0.
          2    1    3    3  502    0 -0.29010511336E+02  0.96184355570E+02  0.27915469956E+02  0.10427038643E+03  0.00000000000E+00 0. -1.
         -1    1    3    3    0  502 -0.74857134290E+02  0.16470759107E+03  0.17174451829E+03  0.24945612975E+03  0.00000000000E+00 0.  1.
         11    1    5    5    0    0  0.17724963672E+02  0.49149356253E-02  0.26327894538E+02  0.31738500156E+02  0.00000000000E+00 0.  1.
        -11    1    5    5    0    0  0.30028174118E+03  0.54228297456E+02  0.13155858682E+02  0.30542250891E+03  0.00000000000E+00 0. -1.
          2    1    6    6  503    0 -0.14018213263E+03 -0.22154635382E+03  0.76112145206E+03  0.80500911919E+03  0.00000000000E+00 0. -1.
         -2    1    6    6    0  503 -0.73956926594E+02 -0.93578805204E+02  0.19935140414E+03  0.23230928115E+03  0.00000000000E+00 0.  1.
<mgrwt>
<rscale>  0 0.12440320E+04</rscale>
<asrwt>0</asrwt>
<pdfrwt beam="1">  1        2 0.40660719E-01 0.12440320E+04</pdfrwt>
<pdfrwt beam="2">  1       -1 0.22521711E+00 0.12440320E+04</pdfrwt>
<totfact> 0.14498376E+01</totfact>
</mgrwt>
</event>
<event>
12    6  0.1611689E-007  0.1962796E+04  0.7818608E-02  0.8624215E-01
          2   -1    0    0  501    0  0.00000000000E+00  0.00000000000E+00  0.21218406137E+04  0.21218406137E+04  0.00000000000E+00 0. -1.
         -1   -1    0    0    0  501 -0.00000000000E+00 -0.00000000000E+00 -0.45391809806E+03  0.45391809806E+03  0.00000000000E+00 0.  1.
         24    2    1    2    0    0 -0.16772855713E+03 -0.45857634577E+03  0.13951926877E+04  0.14802751413E+04  0.78909596964E+02 0.  0.
        254    2    1    2    0    0  0.16772855713E+03  0.45857634577E+03  0.27272982801E+03  0.10954835705E+04  0.94195411796E+03 0.  0.
         23    2    4    4    0    0 -0.23256168549E+02 -0.21221218780E+03  0.31445509007E+03  0.39097565288E+03  0.91679307612E+02 0.  0.
         23    2    4    4    0    0  0.19098472568E+03  0.67078853357E+03 -0.41725262065E+02  0.70450791761E+03  0.90321571452E+02 0.  0.
          4    1    3    3  502    0 -0.17609723002E+03 -0.43334549370E+03  0.13307457592E+04  0.14105611745E+04  0.00000000000E+00 0. -1.
         -3    1    3    3    0  502  0.83686728926E+01 -0.25230852075E+02  0.64446928443E+02  0.69713966809E+02  0.00000000000E+00 0.  1.
         11    1    5    5    0    0  0.35101946879E+02 -0.68917600636E+02  0.11383246931E+03  0.13762126806E+03  0.00000000000E+00 0.  1.
        -11    1    5    5    0    0 -0.58358115428E+02 -0.14329458716E+03  0.20062262076E+03  0.25335438482E+03  0.00000000000E+00 0. -1.
          3    1    6    6  503    0  0.12158374730E+03  0.50461206781E+03  0.25479627660E+01  0.51905918612E+03  0.00000000000E+00 0. -1.
         -3    1    6    6    0  503  0.69400978379E+02  0.16617646576E+03 -0.44273224831E+02  0.18544873149E+03  0.00000000000E+00 0.  1.
<mgrwt>
<rscale>  0 0.19627958E+04</rscale>
<asrwt>0</asrwt>
<pdfrwt beam="1">  1        2 0.32643701E+00 0.19627958E+04</pdfrwt>
<pdfrwt beam="2">  1       -1 0.69833555E-01 0.19627958E+04</pdfrwt>
<totfact> 0.12566832E+01</totfact>
</mgrwt>
</event>
<event>
12    6  0.1611689E-007  0.1197957E+04  0.7818608E-02  0.9114647E-01
          2   -1    0    0  501    0  0.00000000000E+00  0.00000000000E+00  0.60024555290E+03  0.60024555290E+03  0.00000000000E+00 0. -1.
         -1   -1    0    0    0  501 -0.00000000000E+00 -0.00000000000E+00 -0.59771421448E+03  0.59771421448E+03  0.00000000000E+00 0.  1.
         24    2    1    2    0    0 -0.30086154623E+02 -0.25780137514E+03  0.14605351034E+02  0.27258212007E+03  0.81981523413E+02 0.  0.
        254    2    1    2    0    0  0.30086154623E+02  0.25780137514E+03 -0.12074012608E+02  0.92537764731E+03  0.88815048423E+03 0.  0.
         23    2    4    4    0    0 -0.39771436371E+03  0.17478807171E+03  0.12235966426E+03  0.46023111244E+03  0.90073327418E+02 0.  0.
         23    2    4    4    0    0  0.42780051833E+03  0.83013303422E+02 -0.13443367687E+03  0.46514653486E+03  0.91566333291E+02 0.  0.
          4    1    3    3  502    0 -0.89753804896E+01 -0.14156149590E+03  0.48108763432E+02  0.14978206734E+03  0.00000000000E+00 0. -1.
         -3    1    3    3    0  502 -0.21110774133E+02 -0.11623987923E+03 -0.33503412398E+02  0.12280005273E+03  0.00000000000E+00 0.  1.
         11    1    5    5    0    0 -0.12065178035E+03  0.63828915323E+02 -0.29729739798E+01  0.13652773018E+03  0.00000000000E+00 0. -1.
        -11    1    5    5    0    0 -0.27706258335E+03  0.11095915639E+03  0.12533263824E+03  0.32370338226E+03  0.00000000000E+00 0.  1.
          2    1    6    6  503    0  0.68505113429E+02 -0.20169816895E+02 -0.24507283472E+02  0.75500854450E+02  0.00000000000E+00 0. -1.
         -2    1    6    6    0  503  0.35929540490E+03  0.10318312032E+03 -0.10992639340E+03  0.38964568041E+03  0.00000000000E+00 0.  1.
<mgrwt>
<rscale>  0 0.11979571E+04</rscale>
<asrwt>0</asrwt>
<pdfrwt beam="1">  1        2 0.92345470E-01 0.11979571E+04</pdfrwt>
<pdfrwt beam="2">  1       -1 0.91956033E-01 0.11979571E+04</pdfrwt>
<totfact> 0.64425911E+01</totfact>
</mgrwt>
</event>
<event>
12    6  0.1611689E-007  0.2385565E+04  0.7818608E-02  0.8444928E-01
          2   -1    0    0  501    0  0.00000000000E+00  0.00000000000E+00  0.14047504274E+04  0.14047504274E+04  0.00000000000E+00 0. -1.
         -1   -1    0    0    0  501 -0.00000000000E+00 -0.00000000000E+00 -0.10127991032E+04  0.10127991032E+04  0.00000000000E+00 0.  1.
         24    2    1    2    0    0 -0.94666954331E+03  0.93097831155E+02 -0.21581319934E+03  0.97862838448E+03  0.79295318301E+02 0.  0.
        254    2    1    2    0    0  0.94666954331E+03 -0.93097831155E+02  0.60776452358E+03  0.14389211461E+04  0.89233733436E+03 0.  0.
         23    2    4    4    0    0  0.63184582447E+02  0.25221876788E+03 -0.51107878928E+02  0.28023092022E+03  0.91163342568E+02 0.  0.
         23    2    4    4    0    0  0.88348496086E+03 -0.34531659904E+03  0.65887240251E+03  0.11586902259E+04  0.93064317625E+02 0.  0.
          4    1    3    3  502    0 -0.67138435202E+02  0.19325373706E+02 -0.33039732952E+02  0.77283009153E+02  0.00000000000E+00 0. -1.
         -3    1    3    3    0  502 -0.87953110811E+03  0.73772457448E+02 -0.18277346639E+03  0.90134537533E+03  0.00000000000E+00 0.  1.
         11    1    5    5    0    0 -0.22125283473E+01 -0.28737521468E+01  0.93581162796E+01  0.10036337648E+02  0.00000000000E+00 0.  1.
        -11    1    5    5    0    0  0.65397110794E+02  0.25509252003E+03 -0.60465995208E+02  0.27019458257E+03  0.00000000000E+00 0. -1.
          1    1    6    6  503    0  0.70749953905E+03 -0.29680519878E+03  0.49253147506E+03  0.91172154614E+03  0.00000000000E+00 0. -1.
         -1    1    6    6    0  503  0.17598542182E+03 -0.48511400251E+02  0.16634092745E+03  0.24696867978E+03  0.00000000000E+00 0.  1.
<mgrwt>
<rscale>  0 0.23855649E+04</rscale>
<asrwt>0</asrwt>
<pdfrwt beam="1">  1        2 0.21611545E+00 0.23855649E+04</pdfrwt>
<pdfrwt beam="2">  1       -1 0.15581525E+00 0.23855649E+04</pdfrwt>
<totfact> 0.46398952E+00</totfact>
</mgrwt>
</event>
<event>
12    6  0.1611689E-007  0.1937730E+04  0.7818608E-02  0.8636300E-01
         -1   -1    0    0    0  501 -0.00000000000E+00  0.00000000000E+00  0.22665702779E+03  0.22665702779E+03  0.00000000000E+00 0.  1.
          2   -1    0    0  501    0  0.00000000000E+00 -0.00000000000E+00 -0.41414960086E+04  0.41414960086E+04  0.00000000000E+00 0. -1.
         24    2    1    2    0    0 -0.26604816864E+03  0.14789308932E+03  0.24247600164E+02  0.31712495283E+03  0.85593783000E+02 0.  0.
        254    2    1    2    0    0  0.26604816864E+03 -0.14789308932E+03 -0.39390865810E+04  0.40510280836E+04  0.89541691266E+03 0.  0.
         23    2    4    4    0    0  0.55434214458E+03 -0.15285503039E+03 -0.32006347944E+04  0.32531699246E+04  0.91605662987E+02 0.  0.
         23    2    4    4    0    0 -0.28829397594E+03  0.49619410711E+01 -0.73845178661E+03  0.79785815901E+03  0.90158545530E+02 0.  0.
          2    1    3    3  502    0 -0.10105112278E+03  0.53417573153E+02 -0.32275085168E+02  0.11877056731E+03  0.00000000000E+00 0. -1.
         -1    1    3    3    0  502 -0.16499704586E+03  0.94475516163E+02  0.56522685332E+02  0.19835438552E+03  0.00000000000E+00 0.  1.
         11    1    5    5    0    0  0.24795727112E+03 -0.23523296411E+02 -0.14469892230E+04  0.14682690371E+04  0.00000000000E+00 0.  1.
        -11    1    5    5    0    0  0.30638487346E+03 -0.12933173398E+03 -0.17536455714E+04  0.17849008875E+04  0.00000000000E+00 0. -1.
          1    1    6    6  503    0 -0.21619871476E+03 -0.35040624272E+02 -0.51274593929E+03  0.55756446073E+03  0.00000000000E+00 0. -1.
         -1    1    6    6    0  503 -0.72095261185E+02  0.40002565344E+02 -0.22570584732E+03  0.24029369828E+03  0.00000000000E+00 0.  1.
<mgrwt>
<rscale>  0 0.19377298E+04</rscale>
<asrwt>0</asrwt>
<pdfrwt beam="1">  1        2 0.63715322E+00 0.19377298E+04</pdfrwt>
<pdfrwt beam="2">  1       -1 0.34870312E-01 0.19377298E+04</pdfrwt>
<totfact> 0.21969231E+00</totfact>
</mgrwt>
</event>
<event>
12    6  0.1611689E-007  0.2473102E+04  0.7818608E-02  0.8412631E-01
          2   -1    0    0  501    0  0.00000000000E+00  0.00000000000E+00  0.13871692521E+04  0.13871692521E+04  0.00000000000E+00 0. -1.
         -1   -1    0    0    0  501 -0.00000000000E+00 -0.00000000000E+00 -0.11022865236E+04  0.11022865236E+04  0.00000000000E+00 0.  1.
         24    2    1    2    0    0  0.18695505189E+03 -0.68078754781E+03 -0.68265537849E+03  0.98541561333E+03  0.81250775518E+02 0.  0.
        254    2    1    2    0    0 -0.18695505189E+03  0.68078754781E+03  0.96753810690E+03  0.15040401624E+04  0.90971585952E+03 0.  0.
         23    2    4    4    0    0 -0.22796902320E+03  0.83461995867E+03  0.50456867139E+03  0.10051170915E+04  0.84323617844E+02 0.  0.
         23    2    4    4    0    0  0.41013971312E+02 -0.15383241085E+03  0.46296943551E+03  0.49892307088E+03  0.96109187762E+02 0.  0.
          2    1    3    3  502    0  0.13500634909E+02 -0.13678678946E+03 -0.10294573307E+03  0.17172861401E+03  0.00000000000E+00 0. -1.
         -1    1    3    3    0  502  0.17345441698E+03 -0.54400075836E+03 -0.57970964542E+03  0.81368699931E+03  0.00000000000E+00 0.  1.
         11    1    5    5    0    0 -0.48576617833E+02  0.27690869562E+03  0.19832521708E+03  0.34405087594E+03  0.00000000000E+00 0.  1.
        -11    1    5    5    0    0 -0.17939240537E+03  0.55771126305E+03  0.30624345431E+03  0.66106621555E+03  0.00000000000E+00 0. -1.
          4    1    6    6  503    0  0.44131371350E+01 -0.14203811915E+03  0.30718263458E+03  0.33846044681E+03  0.00000000000E+00 0. -1.
         -4    1    6    6    0  503  0.36600834177E+02 -0.11794291705E+02  0.15578680093E+03  0.16046262407E+03  0.00000000000E+00 0.  1.
<mgrwt>
<rscale>  0 0.24731017E+04</rscale>
<asrwt>0</asrwt>
<pdfrwt beam="1">  1        2 0.21341065E+00 0.24731017E+04</pdfrwt>
<pdfrwt beam="2">  1       -1 0.16958254E+00 0.24731017E+04</pdfrwt>
<totfact> 0.37143981E+00</totfact>
</mgrwt>
</event>
<event>
12    6  0.1611689E-007  0.1058146E+04  0.7818608E-02  0.9246974E-01
          2   -1    0    0  501    0  0.00000000000E+00  0.00000000000E+00  0.49111110349E+03  0.49111110349E+03  0.00000000000E+00 0. -1.
         -1   -1    0    0    0  501 -0.00000000000E+00 -0.00000000000E+00 -0.56996932436E+03  0.56996932436E+03  0.00000000000E+00 0.  1.
         24    2    1    2    0    0 -0.40962906126E+02 -0.40702382227E+02 -0.11804472383E+03  0.16219673139E+03  0.95071442891E+02 0.  0.
        254    2    1    2    0    0  0.40962906126E+02  0.40702382227E+02  0.39186502957E+02  0.89888369646E+03  0.89617056086E+03 0.  0.
         23    2    4    4    0    0 -0.25678105996E+02  0.14930093618E+03  0.43714112106E+03  0.47113369625E+03  0.89019466100E+02 0.  0.
         23    2    4    4    0    0  0.66641012122E+02 -0.10859855395E+03 -0.39795461811E+03  0.42775000021E+03  0.91474117609E+02 0.  0.
          2    1    3    3  502    0  0.25558224147E+02  0.82350285923E-01 -0.59153026297E+02  0.64438421172E+02  0.00000000000E+00 0. -1.
         -1    1    3    3    0  502 -0.66521130273E+02 -0.40784732513E+02 -0.58891697534E+02  0.97758310221E+02  0.00000000000E+00 0.  1.
         11    1    5    5    0    0 -0.40708051832E+02  0.13445448586E+03  0.28725951520E+03  0.31977051666E+03  0.00000000000E+00 0.  1.
        -11    1    5    5    0    0  0.15029945836E+02  0.14846450316E+02  0.14988160586E+03  0.15136317959E+03  0.00000000000E+00 0. -1.
          3    1    6    6  503    0  0.71790694967E+01  0.13617796606E+01 -0.14893795430E+03  0.14911709396E+03  0.00000000000E+00 0. -1.
         -3    1    6    6    0  503  0.59461942626E+02 -0.10996033361E+03 -0.24901666381E+03  0.27863290625E+03  0.00000000000E+00 0.  1.
<mgrwt>
<rscale>  0 0.10581460E+04</rscale>
<asrwt>0</asrwt>
<pdfrwt beam="1">  1        2 0.75555555E-01 0.10581460E+04</pdfrwt>
<pdfrwt beam="2">  1       -1 0.87687588E-01 0.10581460E+04</pdfrwt>
<totfact> 0.91609453E+01</totfact>
</mgrwt>
</event>
<event>
12    6  0.1611689E-007  0.1521213E+04  0.7818608E-02  0.8870468E-01
         -3   -1    0    0    0  501 -0.00000000000E+00  0.00000000000E+00  0.75014566234E+03  0.75014566234E+03  0.00000000000E+00 0.  1.
          2   -1    0    0  501    0  0.00000000000E+00 -0.00000000000E+00 -0.77121306011E+03  0.77121306011E+03  0.00000000000E+00 0. -1.
         24    2    1    2    0    0  0.11635962799E+03  0.46471323543E+03 -0.12488390910E+03  0.50134158935E+03  0.79053426524E+02 0.  0.
        254    2    1    2    0    0 -0.11635962799E+03 -0.46471323543E+03  0.10381651133E+03  0.10200171331E+04  0.89451614272E+03 0.  0.
         23    2    4    4    0    0 -0.29572573752E+03 -0.13008615695E+02  0.35070795569E+03  0.46718150405E+03  0.87404528630E+02 0.  0.
         23    2    4    4    0    0  0.17936610953E+03 -0.45170461974E+03 -0.24689144436E+03  0.55283562906E+03  0.91992297038E+02 0.  0.
          4    1    3    3  502    0  0.73576017896E+02  0.34916342007E+03 -0.59190916506E+02  0.36170718671E+03  0.00000000000E+00 0. -1.
         -3    1    3    3    0  502  0.42783610097E+02  0.11554981537E+03 -0.65692992589E+02  0.13963440264E+03  0.00000000000E+00 0.  1.
         11    1    5    5    0    0 -0.14238538600E+02 -0.21984756325E+02  0.40186202619E+02  0.47968702016E+02  0.00000000000E+00 0. -1.
        -11    1    5    5    0    0 -0.28148719892E+03  0.89761406298E+01  0.31052175307E+03  0.41921280203E+03  0.00000000000E+00 0.  1.
          2    1    6    6  503    0  0.87188979113E+01 -0.73646515559E+02 -0.90883129081E+01  0.74715633346E+02  0.00000000000E+00 0. -1.
         -2    1    6    6    0  503  0.17064721162E+03 -0.37805810418E+03 -0.23780313146E+03  0.47811999571E+03  0.00000000000E+00 0.  1.
<mgrwt>
<rscale>  0 0.15212128E+04</rscale>
<asrwt>0</asrwt>
<pdfrwt beam="1">  1        2 0.11864816E+00 0.15212128E+04</pdfrwt>
<pdfrwt beam="2">  1       -3 0.11540703E+00 0.15212128E+04</pdfrwt>
<totfact> 0.13691100E+01</totfact>
</mgrwt>
</event>
<event>
12    6  0.1611689E-007  0.3360673E+04  0.7818608E-02  0.8147627E-01
          2   -1    0    0  501    0  0.00000000000E+00  0.00000000000E+00  0.15176240651E+04  0.15176240651E+04  0.00000000000E+00 0. -1.
         -1   -1    0    0    0  501 -0.00000000000E+00 -0.00000000000E+00 -0.18604939195E+04  0.18604939195E+04  0.00000000000E+00 0.  1.
         24    2    1    2    0    0 -0.14343280703E+04  0.61168516972E+03 -0.10233130410E+03  0.15647259859E+04  0.80249330715E+02 0.  0.
        254    2    1    2    0    0  0.14343280703E+04 -0.61168516972E+03 -0.24053855028E+03  0.18133919987E+04  0.89391050257E+03 0.  0.
         23    2    4    4    0    0  0.71983095629E+03  0.11882113195E+03 -0.28079492352E+03  0.78682786684E+03  0.89315373378E+02 0.  0.
         23    2    4    4    0    0  0.71449711403E+03 -0.73050630167E+03  0.40256373247E+02  0.10265641319E+04  0.89820701974E+02 0.  0.
          4    1    3    3  502    0 -0.42984569031E+03  0.20908479116E+03 -0.29200591760E+01  0.47800867577E+03  0.00000000000E+00 0. -1.
         -3    1    3    3    0  502 -0.10044823800E+04  0.40260037856E+03 -0.99411244924E+02  0.10867173102E+04  0.00000000000E+00 0.  1.
         11    1    5    5    0    0  0.16999265502E+03  0.52324230696E+01 -0.33551693044E+02  0.17335108052E+03  0.00000000000E+00 0.  1.
        -11    1    5    5    0    0  0.54983830127E+03  0.11358870888E+03 -0.24724323048E+03  0.61347678632E+03  0.00000000000E+00 0. -1.
          3    1    6    6  503    0  0.66391077253E+03 -0.68027139927E+03  0.60439856352E+02  0.95247029706E+03  0.00000000000E+00 0. -1.
         -3    1    6    6    0  503  0.50586341498E+02 -0.50234902402E+02 -0.20183483105E+02  0.74093834802E+02  0.00000000000E+00 0.  1.
<mgrwt>
<rscale>  0 0.33606728E+04</rscale>
<asrwt>0</asrwt>
<pdfrwt beam="1">  1        2 0.23348063E+00 0.33606728E+04</pdfrwt>
<pdfrwt beam="2">  1       -1 0.28622983E+00 0.33606728E+04</pdfrwt>
<totfact> 0.47606757E-01</totfact>
</mgrwt>
</event>
<event>
12    6  0.1611689E-007  0.2581557E+04  0.7818608E-02  0.8374493E-01
         -1   -1    0    0    0  501 -0.00000000000E+00  0.00000000000E+00  0.61363564496E+03  0.61363564496E+03  0.00000000000E+00 0.  1.
          2   -1    0    0  501    0  0.00000000000E+00 -0.00000000000E+00 -0.27151438089E+04  0.27151438089E+04  0.00000000000E+00 0. -1.
         24    2    1    2    0    0  0.64328590255E+03 -0.31860603835E+02 -0.21260445242E+04  0.22229811665E+04  0.82146802246E+02 0.  0.
        254    2    1    2    0    0 -0.64328590255E+03  0.31860603835E+02  0.24536360321E+02  0.11057982873E+04  0.89852989310E+03 0.  0.
         23    2    4    4    0    0 -0.59461098877E+02  0.10591436818E+03  0.38179723359E+03  0.41085656244E+03  0.90997316719E+02 0.  0.
         23    2    4    4    0    0 -0.58382480367E+03 -0.74053764348E+02 -0.35726087327E+03  0.69494172490E+03  0.94727546351E+02 0.  0.
          4    1    3    3  502    0  0.51802263919E+03 -0.12357032883E+01 -0.16226620649E+04  0.17033441105E+04  0.00000000000E+00 0. -1.
         -3    1    3    3    0  502  0.12526326336E+03 -0.30624900547E+02 -0.50338245930E+03  0.51963705604E+03  0.00000000000E+00 0.  1.
         11    1    5    5    0    0 -0.33282983290E+02  0.11664279696E+03  0.27878954591E+03  0.30403438945E+03  0.00000000000E+00 0. -1.
        -11    1    5    5    0    0 -0.26178115587E+02 -0.10728428777E+02  0.10300768768E+03  0.10682217299E+03  0.00000000000E+00 0.  1.
          1    1    6    6  503    0 -0.26108631926E+03 -0.73385099433E+02 -0.13396995814E+03  0.30248865864E+03  0.00000000000E+00 0. -1.
         -1    1    6    6    0  503 -0.32273848442E+03 -0.66866491478E+00 -0.22329091513E+03  0.39245306626E+03  0.00000000000E+00 0.  1.
<mgrwt>
<rscale>  0 0.25815569E+04</rscale>
<asrwt>0</asrwt>
<pdfrwt beam="1">  1        2 0.41771443E+00 0.25815569E+04</pdfrwt>
<pdfrwt beam="2">  1       -1 0.94405484E-01 0.25815569E+04</pdfrwt>
<totfact> 0.28446572E+00</totfact>
</mgrwt>
</event>
<event>
12    6  0.1611689E-007  0.2415174E+04  0.7818608E-02  0.8433845E-01
         -1   -1    0    0    0  501 -0.00000000000E+00  0.00000000000E+00  0.33820020696E+03  0.33820020696E+03  0.00000000000E+00 0.  1.
          2   -1    0    0  501    0  0.00000000000E+00 -0.00000000000E+00 -0.43118426493E+04  0.43118426493E+04  0.00000000000E+00 0. -1.
         24    2    1    2    0    0 -0.54173960098E+02 -0.28574081233E+03  0.18266093094E+03  0.35238631804E+03  0.78920666913E+02 0.  0.
        254    2    1    2    0    0  0.54173960098E+02  0.28574081233E+03 -0.41563033733E+04  0.42976565382E+04  0.10537605800E+04 0.  0.
         23    2    4    4    0    0 -0.38700736130E+03  0.39497355930E+03 -0.14987162821E+04  0.15999275505E+04  0.88537349356E+02 0.  0.
         23    2    4    4    0    0  0.44118132140E+03 -0.10923274697E+03 -0.26575870912E+04  0.26977289878E+04  0.91650384078E+02 0.  0.
          2    1    3    3  502    0  0.20454944864E+02 -0.48459334749E+02  0.32891015770E+02  0.62036528047E+02  0.00000000000E+00 0. -1.
         -1    1    3    3    0  502 -0.74628904963E+02 -0.23728147758E+03  0.14976991517E+03  0.29034978999E+03  0.00000000000E+00 0.  1.
         11    1    5    5    0    0 -0.32254952163E+03  0.29878714850E+03 -0.10961474453E+04  0.11810381771E+04  0.00000000000E+00 0. -1.
        -11    1    5    5    0    0 -0.64457839667E+02  0.96186410802E+02 -0.40256883685E+03  0.41888937337E+03  0.00000000000E+00 0.  1.
          4    1    6    6  503    0  0.13646108322E+03 -0.46623447315E+02 -0.62125533543E+03  0.63777234564E+03  0.00000000000E+00 0.  1.
         -4    1    6    6    0  503  0.30472023818E+03 -0.62609299652E+02 -0.20363317557E+04  0.20599566421E+04  0.00000000000E+00 0. -1.
<mgrwt>
<rscale>  0 0.24151738E+04</rscale>
<asrwt>0</asrwt>
<pdfrwt beam="1">  1        2 0.66336036E+00 0.24151738E+04</pdfrwt>
<pdfrwt beam="2">  1       -1 0.52030805E-01 0.24151738E+04</pdfrwt>
<totfact> 0.70756283E-01</totfact>
</mgrwt>
</event>
<event>
12    6  0.1611689E-007  0.1072777E+04  0.7818608E-02  0.9232139E-01
         -1   -1    0    0    0  501 -0.00000000000E+00  0.00000000000E+00  0.25452768966E+03  0.25452768966E+03  0.00000000000E+00 0.  1.
          2   -1    0    0  501    0  0.00000000000E+00 -0.00000000000E+00 -0.11303785657E+04  0.11303785657E+04  0.00000000000E+00 0. -1.
         24    2    1    2    0    0  0.90554304501E+02  0.12409947388E+03 -0.17216272229E+03  0.24363490041E+03  0.78212532697E+02 0.  0.
        254    2    1    2    0    0 -0.90554304501E+02 -0.12409947388E+03 -0.70368815373E+03  0.11412713549E+04  0.88528104375E+03 0.  0.
         23    2    4    4    0    0  0.36940768092E+03  0.21375064872E+02 -0.44660785048E+03  0.58712467027E+03  0.91311982822E+02 0.  0.
         23    2    4    4    0    0 -0.45996198542E+03 -0.14547453875E+03 -0.25708030325E+03  0.55414668466E+03  0.90886722621E+02 0.  0.
          4    1    3    3  502    0  0.26721571980E+02  0.82019772773E+02 -0.50540683424E+02  0.99978228709E+02  0.00000000000E+00 0. -1.
         -3    1    3    3    0  502  0.63832732521E+02  0.42079701103E+02 -0.12162203886E+03  0.14365667170E+03  0.00000000000E+00 0.  1.
         11    1    5    5    0    0  0.32372678491E+03 -0.96008628540E+01 -0.40150872183E+03  0.51584926242E+03  0.00000000000E+00 0. -1.
        -11    1    5    5    0    0  0.45680896010E+02  0.30975927726E+02 -0.45099128651E+02  0.71275407848E+02  0.00000000000E+00 0.  1.
          2    1    6    6  503    0 -0.11682615584E+03 -0.79274343610E+02 -0.65888032271E+02  0.15580117150E+03  0.00000000000E+00 0.  1.
         -2    1    6    6    0  503 -0.34313582958E+03 -0.66200195138E+02 -0.19119227098E+03  0.39834551317E+03  0.00000000000E+00 0. -1.
<mgrwt>
<rscale>  0 0.10727770E+04</rscale>
<asrwt>0</asrwt>
<pdfrwt beam="1">  1        2 0.17390440E+00 0.10727770E+04</pdfrwt>
<pdfrwt beam="2">  1       -1 0.39158106E-01 0.10727770E+04</pdfrwt>
<totfact> 0.14968573E+02</totfact>
</mgrwt>
</event>
<event>
12    6  0.1611689E-007  0.2807415E+04  0.7818608E-02  0.8300970E-01
          2   -1    0    0  501    0  0.00000000000E+00  0.00000000000E+00  0.19308196889E+04  0.19308196889E+04  0.00000000000E+00 0. -1.
         -1   -1    0    0    0  501 -0.00000000000E+00 -0.00000000000E+00 -0.10204968560E+04  0.10204968560E+04  0.00000000000E+00 0.  1.
         24    2    1    2    0    0  0.21051456174E+03 -0.11569100433E+04  0.87995523164E+03  0.14708325643E+04  0.79183291428E+02 0.  0.
        254    2    1    2    0    0 -0.21051456174E+03  0.11569100433E+04  0.30367601227E+02  0.14804839806E+04  0.89897352386E+03 0.  0.
         23    2    4    4    0    0  0.32156411335E+03  0.34628371234E+03  0.13493477708E+03  0.50023629140E+03  0.93343798628E+02 0.  0.
         23    2    4    4    0    0 -0.53207867509E+03  0.81062633097E+03 -0.10456717586E+03  0.98024768920E+03  0.98633021719E+02 0.  0.
          2    1    3    3  502    0  0.21407330308E+03 -0.11442535101E+04  0.86169023613E+03  0.14483278419E+04  0.00000000000E+00 0. -1.
         -1    1    3    3    0  502 -0.35587413457E+01 -0.12656533180E+02  0.18264995515E+02  0.22504722466E+02  0.00000000000E+00 0.  1.
         11    1    5    5    0    0  0.35760131114E+02  0.61377156860E+02  0.52548077238E+02  0.88358603333E+02  0.00000000000E+00 0. -1.
        -11    1    5    5    0    0  0.28580398224E+03  0.28490655548E+03  0.82386699844E+02  0.41187768807E+03  0.00000000000E+00 0.  1.
          1    1    6    6  503    0 -0.95541652151E+01  0.53016405392E+02 -0.12686256472E+02  0.55344036869E+02  0.00000000000E+00 0. -1.
         -1    1    6    6    0  503 -0.52252450987E+03  0.75760992558E+03 -0.91880919384E+02  0.92490365233E+03  0.00000000000E+00 0.  1.
<mgrwt>
<rscale>  0 0.28074155E+04</rscale>
<asrwt>0</asrwt>
<pdfrwt beam="1">  1        2 0.29704918E+00 0.28074155E+04</pdfrwt>
<pdfrwt beam="2">  1       -1 0.15699952E+00 0.28074155E+04</pdfrwt>
<totfact> 0.22249582E+00</totfact>
</mgrwt>
</event>
<event>
12    6  0.1611689E-007  0.1988727E+04  0.7818608E-02  0.8611909E-01
          2   -1    0    0  501    0  0.00000000000E+00  0.00000000000E+00  0.14547787701E+04  0.14547787701E+04  0.00000000000E+00 0. -1.
         -1   -1    0    0    0  501 -0.00000000000E+00 -0.00000000000E+00 -0.67966292905E+03  0.67966292905E+03  0.00000000000E+00 0.  1.
         24    2    1    2    0    0 -0.46220311771E+03  0.63405313868E+03  0.22480392583E+03  0.81979679686E+03  0.76647755244E+02 0.  0.
        254    2    1    2    0    0  0.46220311771E+03 -0.63405313868E+03  0.55031191518E+03  0.13146449023E+04  0.89988494284E+03 0.  0.
         23    2    4    4    0    0 -0.80430660910E+02 -0.20301594264E+03 -0.18461819132E+03  0.30039657412E+03  0.92030761157E+02 0.  0.
         23    2    4    4    0    0  0.54263377862E+03 -0.43103719604E+03  0.73493010650E+03  0.10142483281E+04  0.91284870630E+02 0.  0.
          4    1    3    3  502    0 -0.12558037803E+02  0.43701072801E+02  0.44705205585E+01  0.45688878641E+02  0.00000000000E+00 0. -1.
         -3    1    3    3    0  502 -0.44964507991E+03  0.59035206588E+03  0.22033340527E+03  0.77410791822E+03  0.00000000000E+00 0.  1.
         11    1    5    5    0    0  0.32535431944E+00 -0.81642478430E+01 -0.48908281297E+02  0.49586094600E+02  0.00000000000E+00 0.  1.
        -11    1    5    5    0    0 -0.80756015229E+02 -0.19485169479E+03 -0.13570991002E+03  0.25081047952E+03  0.00000000000E+00 0. -1.
          2    1    6    6  503    0  0.47616197707E+03 -0.33506352515E+03  0.61111996349E+03  0.84407665770E+03  0.00000000000E+00 0. -1.
         -2    1    6    6    0  503  0.66471801547E+02 -0.95973670897E+02  0.12381014301E+03  0.17017167043E+03  0.00000000000E+00 0.  1.
<mgrwt>
<rscale>  0 0.19887274E+04</rscale>
<asrwt>0</asrwt>
<pdfrwt beam="1">  1        2 0.22381212E+00 0.19887274E+04</pdfrwt>
<pdfrwt beam="2">  1       -1 0.10456353E+00 0.19887274E+04</pdfrwt>
<totfact> 0.12266452E+01</totfact>
</mgrwt>
</event>
<event>
12    6  0.1611689E-007  0.1793339E+04  0.7818608E-02  0.8709850E-01
          2   -1    0    0  501    0  0.00000000000E+00  0.00000000000E+00  0.66535874884E+03  0.66535874884E+03  0.00000000000E+00 0. -1.
         -1   -1    0    0    0  501 -0.00000000000E+00 -0.00000000000E+00 -0.12083952106E+04  0.12083952106E+04  0.00000000000E+00 0.  1.
         24    2    1    2    0    0  0.65561932746E+03 -0.32306827694E+02 -0.74563392310E+02  0.66563929661E+03  0.81458824325E+02 0.  0.
        254    2    1    2    0    0 -0.65561932746E+03  0.32306827694E+02 -0.46847306941E+03  0.12081146628E+04  0.89955188178E+03 0.  0.
         23    2    4    4    0    0 -0.56545606020E+03  0.41476947758E+03 -0.34227800781E+03  0.78579595929E+03  0.92448793722E+02 0.  0.
         23    2    4    4    0    0 -0.90163267257E+02 -0.38246264989E+03 -0.12619506160E+03  0.42231870349E+03  0.89558921511E+02 0.  0.
          4    1    3    3  502    0  0.55291325857E+03 -0.12019240530E+02 -0.88309543572E+02  0.56005009520E+03  0.00000000000E+00 0. -1.
         -3    1    3    3    0  502  0.10270606889E+03 -0.20287587164E+02  0.13746151261E+02  0.10558920141E+03  0.00000000000E+00 0.  1.
         11    1    5    5    0    0 -0.10777395813E+03  0.70217907238E+02 -0.10369841064E+03  0.16522451670E+03  0.00000000000E+00 0. -1.
        -11    1    5    5    0    0 -0.45768210207E+03  0.34455157034E+03 -0.23857959717E+03  0.62057144260E+03  0.00000000000E+00 0.  1.
          1    1    6    6  503    0 -0.84825796373E+02 -0.16558921261E+03 -0.60944869796E+02  0.19577916186E+03  0.00000000000E+00 0. -1.
         -1    1    6    6    0  503 -0.53374708845E+01 -0.21687343728E+03 -0.65250191801E+02  0.22653954163E+03  0.00000000000E+00 0.  1.
<mgrwt>
<rscale>  0 0.17933391E+04</rscale>
<asrwt>0</asrwt>
<pdfrwt beam="1">  1        2 0.10236288E+00 0.17933391E+04</pdfrwt>
<pdfrwt beam="2">  1       -1 0.18590696E+00 0.17933391E+04</pdfrwt>
<totfact> 0.88960661E+00</totfact>
</mgrwt>
</event>
<event>
12    6  0.1611689E-007  0.1525216E+04  0.7818608E-02  0.8867856E-01
          2   -1    0    0  501    0  0.00000000000E+00  0.00000000000E+00  0.10961380253E+04  0.10961380253E+04  0.00000000000E+00 0. -1.
         -1   -1    0    0    0  501 -0.00000000000E+00 -0.00000000000E+00 -0.53056355481E+03  0.53056355481E+03  0.00000000000E+00 0.  1.
         24    2    1    2    0    0 -0.35183515934E+03  0.14431117657E+03 -0.14818885849E+03  0.41505402071E+03  0.75473222362E+02 0.  0.
        254    2    1    2    0    0  0.35183515934E+03 -0.14431117657E+03  0.71376332893E+03  0.12116475594E+04  0.90222947377E+03 0.  0.
         23    2    4    4    0    0  0.59176109530E+03  0.10757520266E+03  0.35919331674E+03  0.70658447401E+03  0.92131221479E+02 0.  0.
         23    2    4    4    0    0 -0.23992593596E+03 -0.25188637924E+03  0.35457001219E+03  0.50506308535E+03  0.91420040747E+02 0.  0.
          2    1    3    3  502    0 -0.10898391118E+03  0.35803153336E+02 -0.81835172984E+02  0.14091257652E+03  0.00000000000E+00 0. -1.
         -1    1    3    3    0  502 -0.24285124816E+03  0.10850802324E+03 -0.66353685502E+02  0.27414144419E+03  0.00000000000E+00 0.  1.
         11    1    5    5    0    0  0.28906423245E+03  0.64053106126E+02  0.22860082080E+03  0.37405783798E+03  0.00000000000E+00 0.  1.
        -11    1    5    5    0    0  0.30269686285E+03  0.43522096536E+02  0.13059249594E+03  0.33252663602E+03  0.00000000000E+00 0. -1.
          4    1    6    6  503    0 -0.17611963485E+03 -0.15852475477E+03  0.29122741811E+03  0.37544857533E+03  0.00000000000E+00 0. -1.
         -4    1    6    6    0  503 -0.63806301108E+02 -0.93361624467E+02  0.63342594072E+02  0.12961451002E+03  0.00000000000E+00 0.  1.
<mgrwt>
<rscale>  0 0.15252159E+04</rscale>
<asrwt>0</asrwt>
<pdfrwt beam="1">  1        2 0.16863662E+00 0.15252159E+04</pdfrwt>
<pdfrwt beam="2">  1       -1 0.81625163E-01 0.15252159E+04</pdfrwt>
<totfact> 0.36010379E+01</totfact>
</mgrwt>
</event>
<event>
12    6  0.1611689E-007  0.1745628E+04  0.7818608E-02  0.8735760E-01
          2   -1    0    0  501    0  0.00000000000E+00  0.00000000000E+00  0.85269577056E+03  0.85269577056E+03  0.00000000000E+00 0. -1.
         -1   -1    0    0    0  501 -0.00000000000E+00 -0.00000000000E+00 -0.89340738517E+03  0.89340738517E+03  0.00000000000E+00 0.  1.
         24    2    1    2    0    0  0.52556911742E+03  0.24754656224E+03 -0.25560114594E+03  0.63943694510E+03  0.77752577335E+02 0.  0.
        254    2    1    2    0    0 -0.52556911742E+03 -0.24754656224E+03  0.21488953133E+03  0.11066662106E+04  0.91707709241E+03 0.  0.
         23    2    4    4    0    0 -0.34439284990E+03 -0.10639628402E+03  0.56662806376E+03  0.67691206865E+03  0.84946934801E+02 0.  0.
         23    2    4    4    0    0 -0.18117626752E+03 -0.14115027821E+03 -0.35173853243E+03  0.42975414199E+03  0.90666346596E+02 0.  0.
          2    1    3    3  502    0  0.76935288337E+02  0.48734066338E+02 -0.12882764593E+02  0.91978331344E+02  0.00000000000E+00 0. -1.
         -1    1    3    3    0  502  0.44863382909E+03  0.19881249590E+03 -0.24271838135E+03  0.54745861375E+03  0.00000000000E+00 0.  1.
         11    1    5    5    0    0 -0.73280724852E+02  0.59906641838E+01  0.80173672245E+02  0.10878313478E+03  0.00000000000E+00 0. -1.
        -11    1    5    5    0    0 -0.27111212505E+03 -0.11238694821E+03  0.48645439151E+03  0.56812893387E+03  0.00000000000E+00 0.  1.
          1    1    6    6  503    0 -0.73492507834E+02 -0.86710286133E+02 -0.10342824781E+03  0.15367896692E+03  0.00000000000E+00 0. -1.
         -1    1    6    6    0  503 -0.10768375969E+03 -0.54439992080E+02 -0.24831028462E+03  0.27607517507E+03  0.00000000000E+00 0.  1.
<mgrwt>
<rscale>  0 0.17456285E+04</rscale>
<asrwt>0</asrwt>
<pdfrwt beam="1">  1        2 0.13118396E+00 0.17456285E+04</pdfrwt>
<pdfrwt beam="2">  1       -1 0.13744729E+00 0.17456285E+04</pdfrwt>
<totfact> 0.15041533E+01</totfact>
</mgrwt>
</event>
<event>
12    6  0.1611689E-007  0.1871238E+04  0.7818608E-02  0.8669307E-01
         -1   -1    0    0    0  501 -0.00000000000E+00  0.00000000000E+00  0.93724796163E+03  0.93724796163E+03  0.00000000000E+00 0.  1.
          2   -1    0    0  501    0  0.00000000000E+00 -0.00000000000E+00 -0.93399336547E+03  0.93399336547E+03  0.00000000000E+00 0. -1.
         24    2    1    2    0    0 -0.34299355726E+02  0.27643978874E+03  0.66150350425E+03  0.72229020488E+03  0.80751788382E+02 0.  0.
        254    2    1    2    0    0  0.34299355726E+02 -0.27643978874E+03 -0.65824890809E+03  0.11489511222E+04  0.89955636491E+03 0.  0.
         23    2    4    4    0    0 -0.18835253674E+03 -0.29340765408E+02 -0.76021206534E+03  0.78910275897E+03  0.91778109101E+02 0.  0.
         23    2    4    4    0    0  0.22265189246E+03 -0.24709902334E+03  0.10196315726E+03  0.35984836325E+03  0.91992209136E+02 0.  0.
          2    1    3    3  502    0  0.17756825842E+02  0.13896014020E+03  0.27173037783E+03  0.30571657408E+03  0.00000000000E+00 0. -1.
         -1    1    3    3    0  502 -0.52056181568E+02  0.13747964854E+03  0.38977312642E+03  0.41657363081E+03  0.00000000000E+00 0.  1.
         11    1    5    5    0    0 -0.10027043961E+03  0.29545927632E+02 -0.41740503209E+03  0.43029534475E+03  0.00000000000E+00 0.  1.
        -11    1    5    5    0    0 -0.88082097123E+02 -0.58886693040E+02 -0.34280703326E+03  0.35880741422E+03  0.00000000000E+00 0. -1.
          1    1    6    6  503    0  0.19711990582E+03 -0.21475550182E+03  0.11951992938E+03  0.31505744929E+03  0.00000000000E+00 0. -1.
         -1    1    6    6    0  503  0.25531986640E+02 -0.32343521511E+02 -0.17556772121E+02  0.44790913954E+02  0.00000000000E+00 0.  1.
<mgrwt>
<rscale>  0 0.18712385E+04</rscale>
<asrwt>0</asrwt>
<pdfrwt beam="1">  1        2 0.14369129E+00 0.18712385E+04</pdfrwt>
<pdfrwt beam="2">  1       -1 0.14419200E+00 0.18712385E+04</pdfrwt>
<totfact> 0.11556515E+01</totfact>
</mgrwt>
</event>
<event>
12    6  0.1611689E-007  0.2236518E+04  0.7818608E-02  0.8503380E-01
          2   -1    0    0  501    0  0.00000000000E+00  0.00000000000E+00  0.24060434678E+04  0.24060434678E+04  0.00000000000E+00 0. -1.
         -1   -1    0    0    0  501 -0.00000000000E+00 -0.00000000000E+00 -0.51973438055E+03  0.51973438055E+03  0.00000000000E+00 0.  1.
         24    2    1    2    0    0  0.84473083883E+02  0.11700042065E+03  0.19851845278E+04  0.19920573104E+04  0.80684065192E+02 0.  0.
        254    2    1    2    0    0 -0.84473083883E+02 -0.11700042065E+03 -0.98875440503E+02  0.93372053795E+03  0.91718748897E+03 0.  0.
         23    2    4    4    0    0  0.18397864968E+03 -0.22650046404E+03  0.30465788196E+03  0.42984177248E+03  0.82443438686E+02 0.  0.
         23    2    4    4    0    0 -0.26845173357E+03  0.10950004339E+03 -0.40353332246E+03  0.50387876547E+03  0.83654498958E+02 0.  0.
          4    1    3    3  502    0  0.47087870417E+02  0.57158592264E+02  0.14935820520E+04  0.14954169045E+04  0.00000000000E+00 0. -1.
         -3    1    3    3    0  502  0.37385213466E+02  0.59841828384E+02  0.49160247574E+03  0.49664040589E+03  0.00000000000E+00 0.  1.
         11    1    5    5    0    0  0.16172909811E+03 -0.15065818589E+03  0.19557108088E+03  0.29513088254E+03  0.00000000000E+00 0. -1.
        -11    1    5    5    0    0  0.22249551574E+02 -0.75842278146E+02  0.10908680108E+03  0.13471088995E+03  0.00000000000E+00 0.  1.
          3    1    6    6  503    0 -0.17727713327E+03  0.40460408636E+02 -0.19916139224E+03  0.26968404996E+03  0.00000000000E+00 0. -1.
         -3    1    6    6    0  503 -0.91174600296E+02  0.69039634753E+02 -0.20437193023E+03  0.23419471551E+03  0.00000000000E+00 0.  1.
<mgrwt>
<rscale>  0 0.22365183E+04</rscale>
<asrwt>0</asrwt>
<pdfrwt beam="1">  1        2 0.37016053E+00 0.22365183E+04</pdfrwt>
<pdfrwt beam="2">  1       -1 0.79959137E-01 0.22365183E+04</pdfrwt>
<totfact> 0.63864444E+00</totfact>
</mgrwt>
</event>
<event>
12    6  0.1611689E-007  0.1147731E+04  0.7818608E-02  0.9159879E-01
          2   -1    0    0  501    0  0.00000000000E+00  0.00000000000E+00  0.31510573979E+04  0.31510573979E+04  0.00000000000E+00 0. -1.
         -1   -1    0    0    0  501 -0.00000000000E+00 -0.00000000000E+00 -0.10451146562E+03  0.10451146562E+03  0.00000000000E+00 0.  1.
         24    2    1    2    0    0  0.10788386974E+03  0.14097782589E+03  0.27026874182E+03  0.33302131657E+03  0.79651288363E+02 0.  0.
        254    2    1    2    0    0 -0.10788386974E+03 -0.14097782589E+03  0.27762771905E+04  0.29225475470E+04  0.89557548497E+03 0.  0.
         23    2    4    4    0    0 -0.46210059212E+03  0.70353145235E+02  0.17373503860E+04  0.18012301977E+04  0.86932957254E+02 0.  0.
         23    2    4    4    0    0  0.35421672238E+03 -0.21133097113E+03  0.10389268045E+04  0.11213173493E+04  0.88619563256E+02 0.  0.
          2    1    3    3  502    0 -0.10620808447E+02  0.24579338652E+01  0.26296288092E+02  0.28466432484E+02  0.00000000000E+00 0. -1.
         -1    1    3    3    0  502  0.11850467819E+03  0.13851989203E+03  0.24397245373E+03  0.30455488408E+03  0.00000000000E+00 0.  1.
         11    1    5    5    0    0 -0.40679150913E+02 -0.83543215281E+01  0.24612680123E+03  0.24960566959E+03  0.00000000000E+00 0.  1.
        -11    1    5    5    0    0 -0.42142144121E+03  0.78707466763E+02  0.14912235847E+04  0.15516245281E+04  0.00000000000E+00 0. -1.
          4    1    6    6  503    0  0.21756692703E+03 -0.15883616736E+03  0.75970658531E+03  0.80605110977E+03  0.00000000000E+00 0. -1.
         -4    1    6    6    0  503  0.13664979535E+03 -0.52494803764E+02  0.27922021922E+03  0.31526623957E+03  0.00000000000E+00 0.  1.
<mgrwt>
<rscale>  0 0.11477310E+04</rscale>
<asrwt>0</asrwt>
<pdfrwt beam="1">  1        2 0.48477799E+00 0.11477310E+04</pdfrwt>
<pdfrwt beam="2">  1       -1 0.16078689E-01 0.11477310E+04</pdfrwt>
<totfact> 0.47142648E+01</totfact>
</mgrwt>
</event>
<event>
12    6  0.1611689E-007  0.1793307E+04  0.7818608E-02  0.8709867E-01
         -1   -1    0    0    0  501 -0.00000000000E+00  0.00000000000E+00  0.74240507432E+03  0.74240507432E+03  0.00000000000E+00 0.  1.
          2   -1    0    0  501    0  0.00000000000E+00 -0.00000000000E+00 -0.10829503518E+04  0.10829503518E+04  0.00000000000E+00 0. -1.
         24    2    1    2    0    0 -0.52666025401E+03 -0.37908297690E+03  0.40862664689E+02  0.65431563508E+03  0.73377560702E+02 0.  0.
        254    2    1    2    0    0  0.52666025401E+03  0.37908297690E+03 -0.38140794216E+03  0.11710397910E+04  0.89709935198E+03 0.  0.
         23    2    4    4    0    0  0.17209403095E+03  0.44674686319E+03 -0.57284232653E+03  0.75242325857E+03  0.93772670405E+02 0.  0.
         23    2    4    4    0    0  0.35456622306E+03 -0.67663886298E+02  0.19143438437E+03  0.41861653247E+03  0.91088252213E+02 0.  0.
          2    1    3    3  502    0 -0.46300548124E+03 -0.31262864841E+03  0.15590890153E+02  0.55888623469E+03  0.00000000000E+00 0. -1.
         -1    1    3    3    0  502 -0.63654772771E+02 -0.66454328487E+02  0.25271774536E+02  0.95429400393E+02  0.00000000000E+00 0.  1.
         11    1    5    5    0    0  0.59513485873E+02  0.65305496461E+02 -0.13029299249E+03  0.15742594056E+03  0.00000000000E+00 0. -1.
        -11    1    5    5    0    0  0.11258054508E+03  0.38144136673E+03 -0.44254933404E+03  0.59499731801E+03  0.00000000000E+00 0.  1.
          1    1    6    6  503    0  0.40586390684E+02 -0.25613031146E+02  0.56932359330E+02  0.74461909807E+02  0.00000000000E+00 0. -1.
         -1    1    6    6    0  503  0.31397983238E+03 -0.42050855152E+02  0.13450202504E+03  0.34415462266E+03  0.00000000000E+00 0.  1.
<mgrwt>
<rscale>  0 0.17933074E+04</rscale>
<asrwt>0</asrwt>
<pdfrwt beam="1">  1        2 0.16660775E+00 0.17933074E+04</pdfrwt>
<pdfrwt beam="2">  1       -1 0.11421617E+00 0.17933074E+04</pdfrwt>
<totfact> 0.16783733E+01</totfact>
</mgrwt>
</event>
<event>
12    6  0.1611689E-007  0.2104769E+04  0.7818608E-02  0.8559145E-01
          2   -1    0    0  501    0  0.00000000000E+00  0.00000000000E+00  0.24475057810E+04  0.24475057810E+04  0.00000000000E+00 0. -1.
         -1   -1    0    0    0  501 -0.00000000000E+00 -0.00000000000E+00 -0.45250686061E+03  0.45250686061E+03  0.00000000000E+00 0.  1.
         24    2    1    2    0    0 -0.50999356045E+01  0.54847065906E+03  0.17041032735E+04  0.17917366024E+04  0.74202509128E+02 0.  0.
        254    2    1    2    0    0  0.50999356045E+01 -0.54847065906E+03  0.29089564685E+03  0.11082760392E+04  0.91804652850E+03 0.  0.
         23    2    4    4    0    0  0.35833007018E+02 -0.72394172408E+03  0.44522615952E+03  0.85530946012E+03  0.89175754520E+02 0.  0.
         23    2    4    4    0    0 -0.30733071413E+02  0.17547106502E+03 -0.15433051267E+03  0.25296657907E+03  0.91867114075E+02 0.  0.
          4    1    3    3  502    0 -0.11184302735E+02  0.21521989998E+03  0.78576664001E+03  0.81478457676E+03  0.00000000000E+00 0. -1.
         -3    1    3    3    0  502  0.60843671308E+01  0.33325075908E+03  0.91833663350E+03  0.97695202563E+03  0.00000000000E+00 0.  1.
         11    1    5    5    0    0  0.27470926582E+02 -0.22902694507E+03  0.97690305683E+02  0.25050227385E+03  0.00000000000E+00 0. -1.
        -11    1    5    5    0    0  0.83620804352E+01 -0.49491477900E+03  0.34753585383E+03  0.60480718627E+03  0.00000000000E+00 0.  1.
          1    1    6    6  503    0 -0.47213291617E+02  0.36693799327E+02 -0.35620340078E+02  0.69601281897E+02  0.00000000000E+00 0. -1.
         -1    1    6    6    0  503  0.16480220204E+02  0.13877726569E+03 -0.11871017259E+03  0.18336529717E+03  0.00000000000E+00 0.  1.
<mgrwt>
<rscale>  0 0.21047690E+04</rscale>
<asrwt>0</asrwt>
<pdfrwt beam="1">  1        2 0.37653934E+00 0.21047690E+04</pdfrwt>
<pdfrwt beam="2">  1       -1 0.69616441E-01 0.21047690E+04</pdfrwt>
<totfact> 0.81691274E+00</totfact>
</mgrwt>
</event>
<event>
12    6  0.1611689E-007  0.2538724E+04  0.7818608E-02  0.8389318E-01
         -1   -1    0    0    0  501 -0.00000000000E+00  0.00000000000E+00  0.26408340366E+04  0.26408340366E+04  0.00000000000E+00 0.  1.
          2   -1    0    0  501    0  0.00000000000E+00 -0.00000000000E+00 -0.61014052554E+03  0.61014052554E+03  0.00000000000E+00 0. -1.
         24    2    1    2    0    0  0.19155083555E+03 -0.10226018440E+04  0.39982514042E+03  0.11177353304E+04  0.84058741401E+02 0.  0.
        254    2    1    2    0    0 -0.19155083555E+03  0.10226018440E+04  0.16308683706E+04  0.21332392317E+04  0.89920616288E+03 0.  0.
         23    2    4    4    0    0  0.79155772312E+02  0.12135801260E+03  0.95702056249E+03  0.97229308127E+03  0.92043877256E+02 0.  0.
         23    2    4    4    0    0 -0.27070660787E+03  0.90124383142E+03  0.67384780812E+03  0.11609461504E+04  0.90568120508E+02 0.  0.
          2    1    3    3  502    0  0.18975569031E+03 -0.84043806282E+03  0.32803138740E+03  0.92192621752E+03  0.00000000000E+00 0. -1.
         -1    1    3    3    0  502  0.17951452464E+01 -0.18216378119E+03  0.71793753027E+02  0.19580911291E+03  0.00000000000E+00 0.  1.
         11    1    5    5    0    0  0.29434609532E-02 -0.12116949249E+02  0.29675310074E+02  0.32053775062E+02  0.00000000000E+00 0. -1.
        -11    1    5    5    0    0  0.79152828851E+02  0.13347496184E+03  0.92734525241E+03  0.94023930620E+03  0.00000000000E+00 0.  1.
          3    1    6    6  503    0 -0.35943353693E+02  0.45762283067E+02  0.44945307748E+02  0.73526810857E+02  0.00000000000E+00 0. -1.
         -3    1    6    6    0  503 -0.23476325417E+03  0.85548154835E+03  0.62890250037E+03  0.10874193396E+04  0.00000000000E+00 0.  1.
<mgrwt>
<rscale>  0 0.25387240E+04</rscale>
<asrwt>0</asrwt>
<pdfrwt beam="1">  1        2 0.93867774E-01 0.25387240E+04</pdfrwt>
<pdfrwt beam="2">  1       -1 0.40628215E+00 0.25387240E+04</pdfrwt>
<totfact> 0.31934342E-01</totfact>
</mgrwt>
</event>
<event>
12    6  0.1611689E-007  0.1604640E+04  0.7818608E-02  0.8817703E-01
          2   -1    0    0  501    0  0.00000000000E+00  0.00000000000E+00  0.57383169122E+03  0.57383169122E+03  0.00000000000E+00 0. -1.
         -1   -1    0    0    0  501 -0.00000000000E+00 -0.00000000000E+00 -0.11217872363E+04  0.11217872363E+04  0.00000000000E+00 0.  1.
         24    2    1    2    0    0 -0.77084299120E+02 -0.15530745539E+03  0.35766477731E+03  0.40442490682E+03  0.74652645310E+02 0.  0.
        254    2    1    2    0    0  0.77084299120E+02  0.15530745539E+03 -0.90562032243E+03  0.12911940207E+04  0.90386472213E+03 0.  0.
         23    2    4    4    0    0  0.29515428809E+03  0.20199517247E+03 -0.97004527186E+03  0.10378942927E+04  0.91206523587E+02 0.  0.
         23    2    4    4    0    0 -0.21806998897E+03 -0.46687717080E+02  0.64424949429E+02  0.25329972800E+03  0.10137018834E+03 0.  0.
          4    1    3    3  502    0 -0.69363988977E+02 -0.82667034329E+02  0.26706891974E+03  0.28804688754E+03  0.00000000000E+00 0. -1.
         -3    1    3    3    0  502 -0.77203101439E+01 -0.72640421065E+02  0.90595857579E+02  0.11637801928E+03  0.00000000000E+00 0.  1.
         11    1    5    5    0    0  0.63838536006E+02  0.83462038808E+02 -0.21373385830E+03  0.23816681714E+03  0.00000000000E+00 0. -1.
        -11    1    5    5    0    0  0.23131575208E+03  0.11853313367E+03 -0.75631141356E+03  0.79972747559E+03  0.00000000000E+00 0.  1.
          1    1    6    6  503    0 -0.10769456397E+03 -0.71179236006E+02  0.53411117977E+02  0.13970451056E+03  0.00000000000E+00 0. -1.
         -1    1    6    6    0  503 -0.11037542500E+03  0.24491518926E+02  0.11013831452E+02  0.11359521745E+03  0.00000000000E+00 0.  1.
<mgrwt>
<rscale>  0 0.16046396E+04</rscale>
<asrwt>0</asrwt>
<pdfrwt beam="1">  1        2 0.88281799E-01 0.16046396E+04</pdfrwt>
<pdfrwt beam="2">  1       -1 0.17258265E+00 0.16046396E+04</pdfrwt>
<totfact> 0.13502718E+01</totfact>
</mgrwt>
</event>
<event>
12    6  0.1611689E-007  0.2913235E+04  0.7818608E-02  0.8268950E-01
          2   -1    0    0  501    0  0.00000000000E+00  0.00000000000E+00  0.22645186450E+04  0.22645186450E+04  0.00000000000E+00 0. -1.
         -1   -1    0    0    0  501 -0.00000000000E+00 -0.00000000000E+00 -0.93694737546E+03  0.93694737546E+03  0.00000000000E+00 0.  1.
         24    2    1    2    0    0  0.34174511882E+02 -0.40975796843E+02  0.20457225839E+04  0.20480080857E+04  0.80680329841E+02 0.  0.
        254    2    1    2    0    0 -0.34174511882E+02  0.40975796843E+02 -0.71815131441E+03  0.11534579347E+04  0.90104216526E+03 0.  0.
         23    2    4    4    0    0  0.14994392459E+03  0.29521711780E+03  0.22239532501E+02  0.34404546347E+03  0.90754377090E+02 0.  0.
         23    2    4    4    0    0 -0.18411843647E+03 -0.25424132096E+03 -0.74039084691E+03  0.80941247124E+03  0.91824258724E+02 0.  0.
          4    1    3    3  502    0  0.56847935568E+02 -0.13011048745E+02  0.14739205912E+04  0.14750738573E+04  0.00000000000E+00 0. -1.
         -3    1    3    3    0  502 -0.22673423686E+02 -0.27964748098E+02  0.57180199268E+03  0.57293422843E+03  0.00000000000E+00 0.  1.
         11    1    5    5    0    0  0.11899025550E+03  0.27772956543E+03  0.39157970893E+02  0.30467316767E+03  0.00000000000E+00 0.  1.
        -11    1    5    5    0    0  0.30953669093E+02  0.17487552375E+02 -0.16918438392E+02  0.39372295793E+02  0.00000000000E+00 0. -1.
          3    1    6    6  503    0 -0.72425776883E+02 -0.61805271115E+02 -0.14174112461E+03  0.17075107936E+03  0.00000000000E+00 0. -1.
         -3    1    6    6    0  503 -0.11169265959E+03 -0.19243604984E+03 -0.59864972229E+03  0.63866139189E+03  0.00000000000E+00 0.  1.
<mgrwt>
<rscale>  0 0.29132352E+04</rscale>
<asrwt>0</asrwt>
<pdfrwt beam="1">  1        2 0.34838748E+00 0.29132352E+04</pdfrwt>
<pdfrwt beam="2">  1       -1 0.14414575E+00 0.29132352E+04</pdfrwt>
<totfact> 0.18064719E+00</totfact>
</mgrwt>
</event>
<event>
12    6  0.1611689E-007  0.2009380E+04  0.7818608E-02  0.8602248E-01
         -1   -1    0    0    0  501 -0.00000000000E+00  0.00000000000E+00  0.52391138313E+03  0.52391138313E+03  0.00000000000E+00 0.  1.
          2   -1    0    0  501    0  0.00000000000E+00 -0.00000000000E+00 -0.19266648332E+04  0.19266648332E+04  0.00000000000E+00 0. -1.
         24    2    1    2    0    0 -0.10087365448E+03 -0.77161999907E+03 -0.79878563803E+03  0.11181220351E+04  0.81027604605E+02 0.  0.
        254    2    1    2    0    0  0.10087365448E+03  0.77161999907E+03 -0.60396781204E+03  0.13324541812E+04  0.89726479366E+03 0.  0.
         23    2    4    4    0    0 -0.82264889783E+02  0.28524931611E+03  0.20097234546E+03  0.36984505594E+03  0.90888928548E+02 0.  0.
         23    2    4    4    0    0  0.18313854426E+03  0.48637068297E+03 -0.80494015749E+03  0.96260912529E+03  0.92690362469E+02 0.  0.
          4    1    3    3  502    0 -0.53997251512E+02 -0.55841961840E+03 -0.61817901141E+03  0.83480145156E+03  0.00000000000E+00 0. -1.
         -3    1    3    3    0  502 -0.46876402966E+02 -0.21320038067E+03 -0.18060662662E+03  0.28332058353E+03  0.00000000000E+00 0.  1.
         11    1    5    5    0    0 -0.34470089922E+02  0.15472155662E+03  0.53774901353E+02  0.16738783468E+03  0.00000000000E+00 0.  1.
        -11    1    5    5    0    0 -0.47794799862E+02  0.13052775949E+03  0.14719744410E+03  0.20245722126E+03  0.00000000000E+00 0. -1.
          1    1    6    6  503    0  0.12234955472E+03  0.41412348968E+03 -0.68831169943E+03  0.81255195145E+03  0.00000000000E+00 0. -1.
         -1    1    6    6    0  503  0.60788989542E+02  0.72247193289E+02 -0.11662845807E+03  0.15005717383E+03  0.00000000000E+00 0.  1.
<mgrwt>
<rscale>  0 0.20093796E+04</rscale>
<asrwt>0</asrwt>
<pdfrwt beam="1">  1        2 0.29640997E+00 0.20093796E+04</pdfrwt>
<pdfrwt beam="2">  1       -1 0.80601751E-01 0.20093796E+04</pdfrwt>
<totfact> 0.11908150E+01</totfact>
</mgrwt>
</event>
<event>
12    6  0.1611689E-007  0.1933936E+04  0.7818608E-02  0.8638146E-01
          2   -1    0    0  501    0  0.00000000000E+00  0.00000000000E+00  0.16085653961E+04  0.16085653961E+04  0.00000000000E+00 0. -1.
         -1   -1    0    0    0  501 -0.00000000000E+00 -0.00000000000E+00 -0.58128042773E+03  0.58128042773E+03  0.00000000000E+00 0.  1.
         24    2    1    2    0    0 -0.39270307106E+03 -0.62758303576E+03  0.15218710809E+03  0.76021676506E+03  0.81807366546E+02 0.  0.
        254    2    1    2    0    0  0.39270307106E+03  0.62758303576E+03  0.87509786024E+03  0.14296290587E+04  0.85438095237E+03 0.  0.
         23    2    4    4    0    0  0.30855323664E+03  0.80611901353E+03  0.84252675150E+03  0.12095208349E+04  0.89757224278E+02 0.  0.
         23    2    4    4    0    0  0.84149834412E+02 -0.17853597778E+03  0.32571108733E+02  0.22010822380E+03  0.91817553150E+02 0.  0.
          4    1    3    3  502    0 -0.72909687261E+00  0.81595677921E+00 -0.32716136575E+01  0.34497570406E+01  0.00000000000E+00 0. -1.
         -3    1    3    3    0  502 -0.39197397418E+03 -0.62839899254E+03  0.15545872175E+03  0.75676700802E+03  0.00000000000E+00 0.  1.
         11    1    5    5    0    0  0.25180514137E+03  0.54784219331E+03  0.60301729073E+03  0.85274072900E+03  0.00000000000E+00 0.  1.
        -11    1    5    5    0    0  0.56748095275E+02  0.25827682023E+03  0.23950946078E+03  0.35678010593E+03  0.00000000000E+00 0. -1.
          1    1    6    6  503    0  0.87594584793E+02 -0.80340831890E+02  0.98965448887E+01  0.11927029033E+03  0.00000000000E+00 0. -1.
         -1    1    6    6    0  503 -0.34447503811E+01 -0.98195145886E+02  0.22674563845E+02  0.10083793347E+03  0.00000000000E+00 0.  1.
<mgrwt>
<rscale>  0 0.19339365E+04</rscale>
<asrwt>0</asrwt>
<pdfrwt beam="1">  1        2 0.24747160E+00 0.19339365E+04</pdfrwt>
<pdfrwt beam="2">  1       -1 0.89427759E-01 0.19339365E+04</pdfrwt>
<totfact> 0.14376581E+01</totfact>
</mgrwt>
</event>
<event>
12    6  0.1611689E-007  0.2263450E+04  0.7818608E-02  0.8492473E-01
          2   -1    0    0  501    0  0.00000000000E+00  0.00000000000E+00  0.19107748751E+04  0.19107748751E+04  0.00000000000E+00 0. -1.
         -1   -1    0    0    0  501 -0.00000000000E+00 -0.00000000000E+00 -0.67030487949E+03  0.67030487949E+03  0.00000000000E+00 0.  1.
         24    2    1    2    0    0  0.35077031195E+02 -0.46089934691E+03 -0.42275468779E+03  0.63130373258E+03  0.78512869135E+02 0.  0.
        254    2    1    2    0    0 -0.35077031195E+02  0.46089934691E+03  0.16632246834E+04  0.19497760220E+04  0.90644998892E+03 0.  0.
         23    2    4    4    0    0  0.23120878632E+03 -0.18171693182E+03  0.39976183950E+03  0.50475849517E+03  0.92157820858E+02 0.  0.
         23    2    4    4    0    0 -0.26628581751E+03  0.64261627873E+03  0.12634628439E+04  0.14450175268E+04  0.88732613194E+02 0.  0.
          4    1    3    3  502    0 -0.16455248502E+02 -0.25546471626E+02 -0.24715547229E+02  0.39169576084E+02  0.00000000000E+00 0. -1.
         -3    1    3    3    0  502  0.51532279696E+02 -0.43535287528E+03 -0.39803914056E+03  0.59213415649E+03  0.00000000000E+00 0.  1.
         11    1    5    5    0    0  0.14981674374E+03 -0.16671664708E+03  0.31154052173E+03  0.38379290483E+03  0.00000000000E+00 0. -1.
        -11    1    5    5    0    0  0.81392042576E+02 -0.15000284740E+02  0.88221317774E+02  0.12096559034E+03  0.00000000000E+00 0.  1.
          1    1    6    6  503    0 -0.14022792304E+02  0.11757738698E+03  0.19716867961E+03  0.22999254086E+03  0.00000000000E+00 0. -1.
         -1    1    6    6    0  503 -0.25226302521E+03  0.52503889175E+03  0.10662941643E+04  0.12150249859E+04  0.00000000000E+00 0.  1.
<mgrwt>
<rscale>  0 0.22634502E+04</rscale>
<asrwt>0</asrwt>
<pdfrwt beam="1">  1        2 0.29396536E+00 0.22634502E+04</pdfrwt>
<pdfrwt beam="2">  1       -1 0.10312383E+00 0.22634502E+04</pdfrwt>
<totfact> 0.68822238E+00</totfact>
</mgrwt>
</event>
<event>
12    6  0.1611689E-007  0.1442719E+04  0.7818608E-02  0.8923464E-01
          2   -1    0    0  501    0  0.00000000000E+00  0.00000000000E+00  0.33324446516E+04  0.33324446516E+04  0.00000000000E+00 0. -1.
         -1   -1    0    0    0  501 -0.00000000000E+00 -0.00000000000E+00 -0.15614953605E+03  0.15614953605E+03  0.00000000000E+00 0.  1.
         24    2    1    2    0    0  0.33324190650E+03 -0.12263953045E+03  0.15748959223E+04  0.16164510118E+04  0.80784186066E+02 0.  0.
        254    2    1    2    0    0 -0.33324190650E+03  0.12263953045E+03  0.16013991932E+04  0.18721431759E+04  0.90241347071E+03 0.  0.
         23    2    4    4    0    0  0.91214990247E+02  0.40823528449E+03  0.92440100365E+03  0.10185517716E+04  0.89186736781E+02 0.  0.
         23    2    4    4    0    0 -0.42445689675E+03 -0.28559575404E+03  0.67699818959E+03  0.85359140422E+03  0.92537261266E+02 0.  0.
          4    1    3    3  502    0  0.31827917927E+03 -0.10629238514E+03  0.15302281152E+04  0.15665879457E+04  0.00000000000E+00 0. -1.
         -3    1    3    3    0  502  0.14962727234E+02 -0.16347145311E+02  0.44667807053E+02  0.49863066022E+02  0.00000000000E+00 0.  1.
         11    1    5    5    0    0  0.51593234857E+02  0.36391625489E+03  0.81482084811E+03  0.89388473360E+03  0.00000000000E+00 0.  1.
        -11    1    5    5    0    0  0.39621755390E+02  0.44319029592E+02  0.10958015555E+03  0.12466703804E+03  0.00000000000E+00 0. -1.
          2    1    6    6  503    0 -0.56965638423E+01  0.22756258584E+00  0.35362419744E+02  0.35819036202E+02  0.00000000000E+00 0. -1.
         -2    1    6    6    0  503 -0.41876033291E+03 -0.28582331662E+03  0.64163576985E+03  0.81777236802E+03  0.00000000000E+00 0.  1.
<mgrwt>
<rscale>  0 0.14427192E+04</rscale>
<asrwt>0</asrwt>
<pdfrwt beam="1">  1        2 0.51268374E+00 0.14427192E+04</pdfrwt>
<pdfrwt beam="2">  1       -1 0.24023008E-01 0.14427192E+04</pdfrwt>
<totfact> 0.17787824E+01</totfact>
</mgrwt>
</event>
<event>
12    6  0.1611689E-007  0.1852723E+04  0.7818608E-02  0.8678754E-01
         -1   -1    0    0    0  501 -0.00000000000E+00  0.00000000000E+00  0.16916238195E+04  0.16916238195E+04  0.00000000000E+00 0.  1.
          2   -1    0    0  501    0  0.00000000000E+00 -0.00000000000E+00 -0.50729115663E+03  0.50729115663E+03  0.00000000000E+00 0. -1.
         24    2    1    2    0    0 -0.55322924709E+03  0.68286859713E+02  0.93733803109E+03  0.10935429469E+04  0.80671539031E+02 0.  0.
        254    2    1    2    0    0  0.55322924709E+03 -0.68286859713E+02  0.24699463175E+03  0.11053720292E+04  0.92201696281E+03 0.  0.
         23    2    4    4    0    0 -0.81778256255E+02  0.13330125551E+03  0.37784728681E+03  0.42038116953E+03  0.97441508761E+02 0.  0.
         23    2    4    4    0    0  0.63500750334E+03 -0.20158811522E+03 -0.13085265506E+03  0.68499085964E+03  0.90651877794E+02 0.  0.
          4    1    3    3  502    0 -0.77437375582E+02 -0.10139009209E+02  0.95389246179E+02  0.12328201382E+03  0.00000000000E+00 0. -1.
         -3    1    3    3    0  502 -0.47579187151E+03  0.78425868922E+02  0.84194878491E+03  0.97026093311E+03  0.00000000000E+00 0.  1.
         11    1    5    5    0    0 -0.20830579701E+02  0.20424488932E+02  0.10051141612E+02  0.30856089294E+02  0.00000000000E+00 0. -1.
        -11    1    5    5    0    0 -0.60947676554E+02  0.11287676658E+03  0.36779614520E+03  0.38952508024E+03  0.00000000000E+00 0.  1.
          4    1    6    6  503    0  0.63646487991E+03 -0.20497208712E+03 -0.12960574368E+03  0.68110112953E+03  0.00000000000E+00 0.  1.
         -4    1    6    6    0  503 -0.14573765679E+01  0.33839718975E+01 -0.12469113875E+01  0.38897301027E+01  0.00000000000E+00 0. -1.
<mgrwt>
<rscale>  0 0.18527232E+04</rscale>
<asrwt>0</asrwt>
<pdfrwt beam="1">  1        2 0.78044794E-01 0.18527232E+04</pdfrwt>
<pdfrwt beam="2">  1       -1 0.26024981E+00 0.18527232E+04</pdfrwt>
<totfact> 0.38887537E+00</totfact>
</mgrwt>
</event>
<event>
12    6  0.1611689E-007  0.2092657E+04  0.7818608E-02  0.8564485E-01
          2   -1    0    0  501    0  0.00000000000E+00  0.00000000000E+00  0.21716731937E+04  0.21716731937E+04  0.00000000000E+00 0. -1.
         -1   -1    0    0    0  501 -0.00000000000E+00 -0.00000000000E+00 -0.50412876279E+03  0.50412876279E+03  0.00000000000E+00 0.  1.
         24    2    1    2    0    0  0.47891531941E+03 -0.44726345257E+03  0.13675394510E+04  0.15185012413E+04  0.79229984809E+02 0.  0.
        254    2    1    2    0    0 -0.47891531941E+03  0.44726345257E+03  0.30000497992E+03  0.11573007152E+04  0.90550399136E+03 0.  0.
         23    2    4    4    0    0  0.11446543316E+03  0.21061614038E+03  0.42841602898E+03  0.49961234007E+03  0.92793870946E+02 0.  0.
         23    2    4    4    0    0 -0.59338075256E+03  0.23664731219E+03 -0.12841104907E+03  0.65768837517E+03  0.89229666766E+02 0.  0.
          4    1    3    3  502    0  0.13720551506E+03 -0.13041699022E+03  0.31654405711E+03  0.36882798808E+03  0.00000000000E+00 0. -1.
         -3    1    3    3    0  502  0.34170980435E+03 -0.31684646235E+03  0.10509953939E+04  0.11496732532E+04  0.00000000000E+00 0.  1.
         11    1    5    5    0    0  0.96240934872E+02  0.18358201723E+03  0.28421202899E+03  0.35176860579E+03  0.00000000000E+00 0. -1.
        -11    1    5    5    0    0  0.18224498287E+02  0.27034123144E+02  0.14420400000E+03  0.14784373428E+03  0.00000000000E+00 0.  1.
          3    1    6    6  503    0 -0.55015870242E+03  0.19332197009E+03 -0.12507659911E+03  0.59639931054E+03  0.00000000000E+00 0. -1.
         -3    1    6    6    0  503 -0.43222050143E+02  0.43325342098E+02 -0.33344499577E+01  0.61289064628E+02  0.00000000000E+00 0.  1.
<mgrwt>
<rscale>  0 0.20926566E+04</rscale>
<asrwt>0</asrwt>
<pdfrwt beam="1">  1        2 0.33410356E+00 0.20926566E+04</pdfrwt>
<pdfrwt beam="2">  1       -1 0.77558273E-01 0.20926566E+04</pdfrwt>
<totfact> 0.93670472E+00</totfact>
</mgrwt>
</event>
<event>
12    6  0.1611689E-007  0.1717109E+04  0.7818608E-02  0.8751666E-01
         -1   -1    0    0    0  501 -0.00000000000E+00  0.00000000000E+00  0.28990548671E+03  0.28990548671E+03  0.00000000000E+00 0.  1.
          2   -1    0    0  501    0  0.00000000000E+00 -0.00000000000E+00 -0.25426081328E+04  0.25426081328E+04  0.00000000000E+00 0. -1.
         24    2    1    2    0    0 -0.58593254362E+03  0.95989875818E+02 -0.54133310935E+03  0.80742167943E+03  0.79732246919E+02 0.  0.
        254    2    1    2    0    0  0.58593254362E+03 -0.95989875818E+02 -0.17113695367E+04  0.20250919400E+04  0.90536217755E+03 0.  0.
         23    2    4    4    0    0  0.34830321456E+03 -0.13080470952E+03 -0.10371093785E+03  0.39702386219E+03  0.91907492709E+02 0.  0.
         23    2    4    4    0    0  0.23762932906E+03  0.34814833699E+02 -0.16076585989E+04  0.16280680778E+04  0.91431531511E+02 0.  0.
          4    1    3    3  502    0 -0.50639161364E+03  0.88901115485E+02 -0.50135458169E+03  0.71811718492E+03  0.00000000000E+00 0. -1.
         -3    1    3    3    0  502 -0.79540929981E+02  0.70887603329E+01 -0.39978527665E+02  0.89304494509E+02  0.00000000000E+00 0.  1.
         11    1    5    5    0    0  0.28670169193E+02  0.13056825408E+02 -0.58631739169E-01  0.31503376469E+02  0.00000000000E+00 0.  1.
        -11    1    5    5    0    0  0.31963304537E+03 -0.14386153492E+03 -0.10365230611E+03  0.36552048572E+03  0.00000000000E+00 0. -1.
          1    1    6    6  503    0  0.46247992123E+02  0.31338300970E+02 -0.58409648559E+03  0.58676202192E+03  0.00000000000E+00 0. -1.
         -1    1    6    6    0  503  0.19138133694E+03  0.34765327285E+01 -0.10235621133E+04  0.10413060559E+04  0.00000000000E+00 0.  1.
<mgrwt>
<rscale>  0 0.17171093E+04</rscale>
<asrwt>0</asrwt>
<pdfrwt beam="1">  1        2 0.39117051E+00 0.17171093E+04</pdfrwt>
<pdfrwt beam="2">  1       -1 0.44600841E-01 0.17171093E+04</pdfrwt>
<totfact> 0.17747871E+01</totfact>
</mgrwt>
</event>
<event>
12    6  0.1611689E-007  0.1438875E+04  0.7818608E-02  0.8926150E-01
         -1   -1    0    0    0  501 -0.00000000000E+00  0.00000000000E+00  0.59514647143E+03  0.59514647143E+03  0.00000000000E+00 0.  1.
          2   -1    0    0  501    0  0.00000000000E+00 -0.00000000000E+00 -0.86968585271E+03  0.86968585271E+03  0.00000000000E+00 0. -1.
         24    2    1    2    0    0  0.28622072165E+03 -0.21090235314E+03 -0.34677836169E+03  0.50303860136E+03  0.79940592054E+02 0.  0.
        254    2    1    2    0    0 -0.28622072165E+03  0.21090235314E+03  0.72238980414E+02  0.96179372277E+03  0.89074496395E+03 0.  0.
         23    2    4    4    0    0  0.23066426945E+03  0.26020166418E+03 -0.14962545178E+03  0.38970157380E+03  0.92566892338E+02 0.  0.
         23    2    4    4    0    0 -0.51688499110E+03 -0.49299311039E+02  0.22186443220E+03  0.57209214897E+03  0.92005894108E+02 0.  0.
          4    1    3    3  502    0  0.21646540043E+01 -0.20888752627E+02 -0.10096938618E+02  0.23301799989E+02  0.00000000000E+00 0. -1.
         -3    1    3    3    0  502  0.28405606764E+03 -0.19001360052E+03 -0.33668142308E+03  0.47973680137E+03  0.00000000000E+00 0.  1.
         11    1    5    5    0    0  0.19243515068E+03  0.20809380331E+03 -0.79572705850E+02  0.29439112369E+03  0.00000000000E+00 0.  1.
        -11    1    5    5    0    0  0.38229118768E+02  0.52107860872E+02 -0.70052745934E+02  0.95310450106E+02  0.00000000000E+00 0. -1.
          3    1    6    6  503    0 -0.37321188937E+03 -0.26015018990E+02  0.20207971122E+03  0.42520595629E+03  0.00000000000E+00 0. -1.
         -3    1    6    6    0  503 -0.14367310173E+03 -0.23284292049E+02  0.19784720982E+02  0.14688619268E+03  0.00000000000E+00 0.  1.
<mgrwt>
<rscale>  0 0.14388752E+04</rscale>
<asrwt>0</asrwt>
<pdfrwt beam="1">  1        2 0.13379782E+00 0.14388752E+04</pdfrwt>
<pdfrwt beam="2">  1       -1 0.91560996E-01 0.14388752E+04</pdfrwt>
<totfact> 0.39631185E+01</totfact>
</mgrwt>
</event>
<event>
12    6  0.1611689E-007  0.1894096E+04  0.7818608E-02  0.8657801E-01
          2   -1    0    0  501    0  0.00000000000E+00  0.00000000000E+00  0.24671130492E+04  0.24671130492E+04  0.00000000000E+00 0. -1.
         -1   -1    0    0    0  501 -0.00000000000E+00 -0.00000000000E+00 -0.36354231768E+03  0.36354231768E+03  0.00000000000E+00 0.  1.
         24    2    1    2    0    0 -0.18860467578E+03 -0.17622564701E+03 -0.20977462715E+03  0.34200129824E+03  0.79575696118E+02 0.  0.
        254    2    1    2    0    0  0.18860467578E+03  0.17622564701E+03  0.23133453586E+04  0.24886540686E+04  0.88045733709E+03 0.  0.
         23    2    4    4    0    0 -0.93070086004E+02  0.34172327811E+03  0.38829004042E+03  0.53421726328E+03  0.95823218393E+02 0.  0.
         23    2    4    4    0    0  0.28167476178E+03 -0.16549763110E+03  0.19250553182E+04  0.19544368053E+04  0.85176936329E+02 0.  0.
          4    1    3    3  502    0 -0.22322792296E+02 -0.41492437730E+02 -0.78552350871E+01  0.47766454368E+02  0.00000000000E+00 0. -1.
         -3    1    3    3    0  502 -0.16628188348E+03 -0.13473320928E+03 -0.20191939206E+03  0.29423484387E+03  0.00000000000E+00 0.  1.
         11    1    5    5    0    0 -0.22219749472E+02  0.14683264875E+03  0.22809489838E+03  0.27217793200E+03  0.00000000000E+00 0.  1.
        -11    1    5    5    0    0 -0.70850336532E+02  0.19489062936E+03  0.16019514204E+03  0.26203933127E+03  0.00000000000E+00 0. -1.
          1    1    6    6  503    0  0.13142358360E+03 -0.28979356549E+02  0.77963199767E+03  0.79116244427E+03  0.00000000000E+00 0. -1.
         -1    1    6    6    0  503  0.15025117818E+03 -0.13651827455E+03  0.11454233205E+04  0.11632743611E+04  0.00000000000E+00 0.  1.
<mgrwt>
<rscale>  0 0.18940961E+04</rscale>
<asrwt>0</asrwt>
<pdfrwt beam="1">  1        2 0.37955584E+00 0.18940961E+04</pdfrwt>
<pdfrwt beam="2">  1       -1 0.55929589E-01 0.18940961E+04</pdfrwt>
<totfact> 0.12556566E+01</totfact>
</mgrwt>
</event>
<event>
12    6  0.1611689E-007  0.1300641E+04  0.7818608E-02  0.9029057E-01
          2   -1    0    0  501    0  0.00000000000E+00  0.00000000000E+00  0.20139047668E+04  0.20139047668E+04  0.00000000000E+00 0. -1.
         -1   -1    0    0    0  501 -0.00000000000E+00 -0.00000000000E+00 -0.20999844732E+03  0.20999844732E+03  0.00000000000E+00 0.  1.
         24    2    1    2    0    0  0.80904352687E+02  0.80666962570E+02 -0.61331538504E+02  0.15032287802E+03  0.76044308848E+02 0.  0.
        254    2    1    2    0    0 -0.80904352687E+02 -0.80666962570E+02  0.18652378580E+04  0.20735803361E+04  0.89864924763E+03 0.  0.
         23    2    4    4    0    0  0.16606932143E+03  0.29979879521E+03  0.12761640175E+04  0.13246197057E+04  0.92544196040E+02 0.  0.
         23    2    4    4    0    0 -0.24697367411E+03 -0.38046575778E+03  0.58907384052E+03  0.74896063037E+03  0.90464621270E+02 0.  0.
          4    1    3    3  502    0 -0.13861693839E+02  0.13982225810E+02 -0.17789863093E+02  0.26535418285E+02  0.00000000000E+00 0. -1.
         -3    1    3    3    0  502  0.94766046526E+02  0.66684736760E+02 -0.43541675411E+02  0.12378745974E+03  0.00000000000E+00 0.  1.
         11    1    5    5    0    0  0.16196613034E+02  0.11841657228E+01  0.26665932540E+02  0.31221859017E+02  0.00000000000E+00 0.  1.
        -11    1    5    5    0    0  0.14987270839E+03  0.29861462949E+03  0.12494980849E+04  0.12933978467E+04  0.00000000000E+00 0. -1.
          3    1    6    6  503    0 -0.23702327161E+03 -0.38065822349E+03  0.55529362429E+03  0.71374485887E+03  0.00000000000E+00 0. -1.
         -3    1    6    6    0  503 -0.99504025045E+01  0.19246570420E+00  0.33780216237E+02  0.35215771496E+02  0.00000000000E+00 0.  1.
<mgrwt>
<rscale>  0 0.13006412E+04</rscale>
<asrwt>0</asrwt>
<pdfrwt beam="1">  1        2 0.30983149E+00 0.13006412E+04</pdfrwt>
<pdfrwt beam="2">  1       -1 0.32307455E-01 0.13006412E+04</pdfrwt>
<totfact> 0.65660067E+01</totfact>
</mgrwt>
</event>
<event>
12    6  0.1611689E-007  0.3758920E+04  0.7818608E-02  0.8055028E-01
         -1   -1    0    0    0  501 -0.00000000000E+00  0.00000000000E+00  0.14269400909E+04  0.14269400909E+04  0.00000000000E+00 0.  1.
          2   -1    0    0  501    0  0.00000000000E+00 -0.00000000000E+00 -0.24754863674E+04  0.24754863674E+04  0.00000000000E+00 0. -1.
         24    2    1    2    0    0  0.37015167868E+03 -0.10256113631E+04 -0.19452898005E+04  0.22314741034E+04  0.80208058590E+02 0.  0.
        254    2    1    2    0    0 -0.37015167868E+03  0.10256113631E+04  0.89674352405E+03  0.16709523549E+04  0.89389143132E+03 0.  0.
         23    2    4    4    0    0 -0.28977858259E+03  0.10303834329E+04  0.10318657739E+04  0.14895130981E+04  0.90778016058E+02 0.  0.
         23    2    4    4    0    0 -0.80373096091E+02 -0.47720697857E+01 -0.13512224989E+03  0.18143925680E+03  0.90440998813E+02 0.  0.
          2    1    3    3  502    0  0.24802426754E+03 -0.60567817569E+03 -0.12225219420E+04  0.13866946270E+04  0.00000000000E+00 0. -1.
         -1    1    3    3    0  502  0.12212741115E+03 -0.41993318742E+03 -0.72276785853E+03  0.84477947642E+03  0.00000000000E+00 0.  1.
         11    1    5    5    0    0 -0.80137818454E+02  0.17369219896E+03  0.20837121648E+03  0.28285970690E+03  0.00000000000E+00 0. -1.
        -11    1    5    5    0    0 -0.20964076414E+03  0.85669123393E+03  0.82349455747E+03  0.12066533912E+04  0.00000000000E+00 0.  1.
          4    1    6    6  503    0 -0.39376919023E+02  0.28783252859E+02 -0.11473847815E+03  0.12467532140E+03  0.00000000000E+00 0. -1.
         -4    1    6    6    0  503 -0.40996177068E+02 -0.33555322645E+02 -0.20383771744E+02  0.56763935404E+02  0.00000000000E+00 0.  1.
<mgrwt>
<rscale>  0 0.37589205E+04</rscale>
<asrwt>0</asrwt>
<pdfrwt beam="1">  1        2 0.38084405E+00 0.37589205E+04</pdfrwt>
<pdfrwt beam="2">  1       -1 0.21952925E+00 0.37589205E+04</pdfrwt>
<totfact> 0.36455594E-01</totfact>
</mgrwt>
</event>
<event>
12    6  0.1611689E-007  0.1600742E+04  0.7818608E-02  0.8820092E-01
         -1   -1    0    0    0  501 -0.00000000000E+00  0.00000000000E+00  0.10532184631E+04  0.10532184631E+04  0.00000000000E+00 0.  1.
          2   -1    0    0  501    0  0.00000000000E+00 -0.00000000000E+00 -0.60822520369E+03  0.60822520369E+03  0.00000000000E+00 0. -1.
         24    2    1    2    0    0  0.49833677593E+03  0.11826001197E+03  0.13116096940E+02  0.51802986737E+03  0.76537172789E+02 0.  0.
        254    2    1    2    0    0 -0.49833677593E+03 -0.11826001197E+03  0.43187716251E+03  0.11434137994E+04  0.92658095199E+03 0.  0.
         23    2    4    4    0    0 -0.18322114253E+03  0.14033522019E+03  0.63353232883E+03  0.68067279213E+03  0.93210928398E+02 0.  0.
         23    2    4    4    0    0 -0.31511563340E+03 -0.25859523216E+03 -0.20165516632E+03  0.46274100732E+03  0.85411224345E+02 0.  0.
          2    1    3    3  502    0  0.41732655165E+03  0.10610439127E+03  0.38366008330E+02  0.43230954553E+03  0.00000000000E+00 0. -1.
         -1    1    3    3    0  502  0.81010224277E+02  0.12155620700E+02 -0.25249911390E+02  0.85720321845E+02  0.00000000000E+00 0.  1.
         11    1    5    5    0    0 -0.99742542484E+02  0.33470735257E+02  0.19392669558E+03  0.22062735134E+03  0.00000000000E+00 0. -1.
        -11    1    5    5    0    0 -0.83478600048E+02  0.10686448493E+03  0.43960563325E+03  0.46004544079E+03  0.00000000000E+00 0.  1.
          3    1    6    6  503    0 -0.33882894765E+02 -0.70275856914E+02 -0.36423949304E+02  0.86101397814E+02  0.00000000000E+00 0. -1.
         -3    1    6    6    0  503 -0.28123273863E+03 -0.18831937525E+03 -0.16523121702E+03  0.37663960951E+03  0.00000000000E+00 0.  1.
<mgrwt>
<rscale>  0 0.16007423E+04</rscale>
<asrwt>0</asrwt>
<pdfrwt beam="1">  1        2 0.93573108E-01 0.16007423E+04</pdfrwt>
<pdfrwt beam="2">  1       -1 0.16203361E+00 0.16007423E+04</pdfrwt>
<totfact> 0.15074707E+01</totfact>
</mgrwt>
</event>
<event>
12    6  0.1611689E-007  0.1193607E+04  0.7818608E-02  0.9118471E-01
         -1   -1    0    0    0  501 -0.00000000000E+00  0.00000000000E+00  0.18207754366E+03  0.18207754366E+03  0.00000000000E+00 0.  1.
          2   -1    0    0  501    0  0.00000000000E+00 -0.00000000000E+00 -0.19561685278E+04  0.19561685278E+04  0.00000000000E+00 0. -1.
         24    2    1    2    0    0  0.12147314524E+03  0.20917697598E+03 -0.37859359670E+03  0.45625202414E+03  0.79511419138E+02 0.  0.
        254    2    1    2    0    0 -0.12147314524E+03 -0.20917697598E+03 -0.13954973875E+04  0.16819940474E+04  0.90729283289E+03 0.  0.
         23    2    4    4    0    0  0.11217823165E+03 -0.10794858298E+03  0.68492107865E+02  0.19308241265E+03  0.91393637701E+02 0.  0.
         23    2    4    4    0    0 -0.23365137689E+03 -0.10122839301E+03 -0.14639894953E+04  0.14889116347E+04  0.93554583305E+02 0.  0.
          2    1    3    3  502    0  0.38659243214E+02  0.65602921734E+02 -0.19269075038E+03  0.20719074716E+03  0.00000000000E+00 0. -1.
         -1    1    3    3    0  502  0.82813902025E+02  0.14357405425E+03 -0.18590284633E+03  0.24906127699E+03  0.00000000000E+00 0.  1.
         11    1    5    5    0    0  0.46068748399E+02 -0.85924569925E+02  0.75130784321E+02  0.12308532020E+03  0.00000000000E+00 0. -1.
        -11    1    5    5    0    0  0.66109483248E+02 -0.22024013051E+02 -0.66386764558E+01  0.69997092449E+02  0.00000000000E+00 0.  1.
          4    1    6    6  503    0  0.59159625793E+00  0.52358801600E+01 -0.45426699286E+01  0.69570307792E+01  0.00000000000E+00 0.  1.
         -4    1    6    6    0  503 -0.23424297314E+03 -0.10646427317E+03 -0.14594468254E+04  0.14819546039E+04  0.00000000000E+00 0. -1.
<mgrwt>
<rscale>  0 0.11936069E+04</rscale>
<asrwt>0</asrwt>
<pdfrwt beam="1">  1        2 0.30094901E+00 0.11936069E+04</pdfrwt>
<pdfrwt beam="2">  1       -1 0.28011929E-01 0.11936069E+04</pdfrwt>
<totfact> 0.91531389E+01</totfact>
</mgrwt>
</event>
<event>
12    6  0.1611689E-007  0.2437578E+04  0.7818608E-02  0.8425567E-01
         -1   -1    0    0    0  501 -0.00000000000E+00  0.00000000000E+00  0.15775440457E+04  0.15775440457E+04  0.00000000000E+00 0.  1.
          2   -1    0    0  501    0  0.00000000000E+00 -0.00000000000E+00 -0.94161984284E+03  0.94161984284E+03  0.00000000000E+00 0. -1.
         24    2    1    2    0    0  0.96921165928E+03 -0.37779669687E+03  0.12882156880E+03  0.10512318068E+04  0.79948298788E+02 0.  0.
        254    2    1    2    0    0 -0.96921165928E+03  0.37779669687E+03  0.50710263408E+03  0.14679320817E+04  0.90308910436E+03 0.  0.
         23    2    4    4    0    0 -0.54358662857E+03  0.62300407736E+03  0.49563983243E+03  0.96834438441E+03  0.91714230900E+02 0.  0.
         23    2    4    4    0    0 -0.42562503071E+03 -0.24520738049E+03  0.11462801650E+02  0.49958769731E+03  0.90405449355E+02 0.  0.
          4    1    3    3  502    0  0.57208675301E+03 -0.19965734099E+03  0.41780396460E+02  0.60736472429E+03  0.00000000000E+00 0. -1.
         -3    1    3    3    0  502  0.39712490627E+03 -0.17813935588E+03  0.87041172337E+02  0.44386708255E+03  0.00000000000E+00 0.  1.
         11    1    5    5    0    0 -0.53004922638E+03  0.60386780482E+03  0.46050078827E+03  0.92610446716E+03  0.00000000000E+00 0. -1.
        -11    1    5    5    0    0 -0.13537402182E+02  0.19136272543E+02  0.35139044161E+02  0.42239917249E+02  0.00000000000E+00 0.  1.
          3    1    6    6  503    0 -0.35295959483E+03 -0.23811680246E+03  0.57917171159E+00  0.42577038722E+03  0.00000000000E+00 0. -1.
         -3    1    6    6    0  503 -0.72665435882E+02 -0.70905780288E+01  0.10883629938E+02  0.73817310093E+02  0.00000000000E+00 0.  1.
<mgrwt>
<rscale>  0 0.24375781E+04</rscale>
<asrwt>0</asrwt>
<pdfrwt beam="1">  1        2 0.14486459E+00 0.24375781E+04</pdfrwt>
<pdfrwt beam="2">  1       -1 0.24269908E+00 0.24375781E+04</pdfrwt>
<totfact> 0.21877314E+00</totfact>
</mgrwt>
</event>
<event>
12    6  0.1611689E-007  0.1308189E+04  0.7818608E-02  0.9023096E-01
         -1   -1    0    0    0  501 -0.00000000000E+00  0.00000000000E+00  0.24057978340E+03  0.24057978340E+03  0.00000000000E+00 0.  1.
          2   -1    0    0  501    0  0.00000000000E+00 -0.00000000000E+00 -0.17783701200E+04  0.17783701200E+04  0.00000000000E+00 0. -1.
         24    2    1    2    0    0  0.13274093481E+03  0.15881679861E+03 -0.12632606045E+03  0.25572217169E+03  0.81194976734E+02 0.  0.
        254    2    1    2    0    0 -0.13274093481E+03 -0.15881679861E+03 -0.14114642762E+04  0.17632277317E+04  0.10362903550E+04 0.  0.
         23    2    4    4    0    0 -0.15613199298E+03 -0.25271979116E+03  0.32975376203E+02  0.31273565790E+03  0.92041969829E+02 0.  0.
         23    2    4    4    0    0  0.23391058168E+02  0.93902992548E+02 -0.14444396524E+04  0.14504920738E+04  0.90312974316E+02 0.  0.
          4    1    3    3  502    0  0.30170523170E+02  0.18079047851E+02 -0.59646019211E+02  0.69244205875E+02  0.00000000000E+00 0. -1.
         -3    1    3    3    0  502  0.10257041164E+03  0.14073775076E+03 -0.66680041243E+02  0.18647796581E+03  0.00000000000E+00 0.  1.
         11    1    5    5    0    0  0.80235267403E+01 -0.13016021342E+02 -0.11088528037E+02  0.18887806833E+02  0.00000000000E+00 0.  1.
        -11    1    5    5    0    0 -0.16415551972E+03 -0.23970376981E+03  0.44063904240E+02  0.29384785106E+03  0.00000000000E+00 0. -1.
          2    1    6    6  503    0  0.53610006893E+02  0.75557283175E+02 -0.11911380880E+04  0.11947354856E+04  0.00000000000E+00 0. -1.
         -2    1    6    6    0  503 -0.30218948725E+02  0.18345709372E+02 -0.25330156433E+03  0.25575658820E+03  0.00000000000E+00 0.  1.
<mgrwt>
<rscale>  0 0.13081894E+04</rscale>
<asrwt>0</asrwt>
<pdfrwt beam="1">  1        2 0.27359539E+00 0.13081894E+04</pdfrwt>
<pdfrwt beam="2">  1       -1 0.37012276E-01 0.13081894E+04</pdfrwt>
<totfact> 0.69462061E+01</totfact>
</mgrwt>
</event>
<event>
12    6  0.1611689E-007  0.2315872E+04  0.7818608E-02  0.8471689E-01
         -1   -1    0    0    0  501 -0.00000000000E+00  0.00000000000E+00  0.13011885083E+04  0.13011885083E+04  0.00000000000E+00 0.  1.
          2   -1    0    0  501    0  0.00000000000E+00 -0.00000000000E+00 -0.10304544617E+04  0.10304544617E+04  0.00000000000E+00 0. -1.
         24    2    1    2    0    0  0.54100440487E+03  0.25459718927E+03 -0.70832257660E+03  0.93028713327E+03  0.78789484913E+02 0.  0.
        254    2    1    2    0    0 -0.54100440487E+03 -0.25459718927E+03  0.97905662320E+03  0.14013558367E+04  0.80482346812E+03 0.  0.
         23    2    4    4    0    0 -0.43728857240E+03  0.80641350475E+02  0.12118426125E+03  0.46999293129E+03  0.92105414223E+02 0.  0.
         23    2    4    4    0    0 -0.10371583247E+03 -0.33523853975E+03  0.85787236195E+03  0.93136290544E+03  0.91378442716E+02 0.  0.
          4    1    3    3  502    0  0.45680693420E+03  0.18284394730E+03 -0.56453085950E+03  0.74886552567E+03  0.00000000000E+00 0. -1.
         -3    1    3    3    0  502  0.84197470668E+02  0.71753241969E+02 -0.14379171709E+03  0.18142160760E+03  0.00000000000E+00 0.  1.
         11    1    5    5    0    0 -0.21280629113E+03  0.66219702437E+02  0.99280437035E+02  0.24398395790E+03  0.00000000000E+00 0. -1.
        -11    1    5    5    0    0 -0.22448228127E+03  0.14421648038E+02  0.21903824214E+02  0.22600897339E+03  0.00000000000E+00 0.  1.
          2    1    6    6  503    0 -0.54629531490E+02 -0.25931197675E+03  0.55041414663E+03  0.61088691246E+03  0.00000000000E+00 0. -1.
         -2    1    6    6    0  503 -0.49086300976E+02 -0.75926562999E+02  0.30745821532E+03  0.32047599298E+03  0.00000000000E+00 0.  1.
<mgrwt>
<rscale>  0 0.23158718E+04</rscale>
<asrwt>0</asrwt>
<pdfrwt beam="1">  1        2 0.15853145E+00 0.23158718E+04</pdfrwt>
<pdfrwt beam="2">  1       -1 0.20018285E+00 0.23158718E+04</pdfrwt>
<totfact> 0.37313738E+00</totfact>
</mgrwt>
</event>
<event>
12    6  0.1611689E-007  0.1436455E+04  0.7818608E-02  0.8927845E-01
         -1   -1    0    0    0  501 -0.00000000000E+00  0.00000000000E+00  0.18037199578E+03  0.18037199578E+03  0.00000000000E+00 0.  1.
          2   -1    0    0  501    0  0.00000000000E+00 -0.00000000000E+00 -0.28599259118E+04  0.28599259118E+04  0.00000000000E+00 0. -1.
         24    2    1    2    0    0  0.33707047125E+02 -0.58610437253E+02 -0.17143911038E+04  0.17187624030E+04  0.10215670766E+03 0.  0.
        254    2    1    2    0    0 -0.33707047125E+02  0.58610437253E+02 -0.96516281231E+03  0.13215355046E+04  0.90019191697E+03 0.  0.
         23    2    4    4    0    0  0.65782317701E+02 -0.17294632507E+03 -0.10263769942E+04  0.10468785128E+04  0.90923824211E+02 0.  0.
         23    2    4    4    0    0 -0.99489364825E+02  0.23155676232E+03  0.61214181871E+02  0.27465699179E+03  0.90402539718E+02 0.  0.
          2    1    3    3  502    0  0.42328079162E+02 -0.80020434421E+02 -0.10264256773E+04  0.10304099220E+04  0.00000000000E+00 0. -1.
         -1    1    3    3    0  502 -0.86210320374E+01  0.21409997168E+02 -0.68796542642E+03  0.68835248101E+03  0.00000000000E+00 0.  1.
         11    1    5    5    0    0  0.74677125005E+02 -0.10160401623E+03 -0.78357467410E+03  0.79365566779E+03  0.00000000000E+00 0. -1.
        -11    1    5    5    0    0 -0.88948073045E+01 -0.71342308843E+02 -0.24280232007E+03  0.25322284506E+03  0.00000000000E+00 0.  1.
          4    1    6    6  503    0 -0.92357522213E+02  0.15034366678E+03  0.75445030310E+02  0.19189862597E+03  0.00000000000E+00 0. -1.
         -4    1    6    6    0  503 -0.71318426120E+01  0.81213095537E+02 -0.14230848439E+02  0.82758365819E+02  0.00000000000E+00 0.  1.
<mgrwt>
<rscale>  0 0.14364547E+04</rscale>
<asrwt>0</asrwt>
<pdfrwt beam="1">  1        2 0.43998858E+00 0.14364547E+04</pdfrwt>
<pdfrwt beam="2">  1       -1 0.27749539E-01 0.14364547E+04</pdfrwt>
<totfact> 0.27675709E+01</totfact>
</mgrwt>
</event>
<event>
12    6  0.1611689E-007  0.1212099E+04  0.7818608E-02  0.9102332E-01
         -1   -1    0    0    0  501 -0.00000000000E+00  0.00000000000E+00  0.11391114671E+04  0.11391114671E+04  0.00000000000E+00 0.  1.
          2   -1    0    0  501    0  0.00000000000E+00 -0.00000000000E+00 -0.32244087178E+03  0.32244087178E+03  0.00000000000E+00 0. -1.
         24    2    1    2    0    0 -0.10915943251E+03  0.21241276531E+03  0.48386524172E+02  0.25660456195E+03  0.80434326746E+02 0.  0.
        254    2    1    2    0    0  0.10915943251E+03 -0.21241276531E+03  0.76828407110E+03  0.12049477769E+04  0.89699708278E+03 0.  0.
         23    2    4    4    0    0 -0.25722445657E+03 -0.36475706696E+03  0.62287495950E+03  0.77175365047E+03  0.91751528042E+02 0.  0.
         23    2    4    4    0    0  0.36638388908E+03  0.15234430164E+03  0.14540911161E+03  0.43319412640E+03  0.95222901595E+02 0.  0.
          4    1    3    3  502    0 -0.51305955481E+02  0.15448927886E+03  0.60864907266E+02  0.17379233379E+03  0.00000000000E+00 0. -1.
         -3    1    3    3    0  502 -0.57853477030E+02  0.57923486456E+02 -0.12478383093E+02  0.82812228157E+02  0.00000000000E+00 0.  1.
         11    1    5    5    0    0 -0.16250566687E+03 -0.16979064476E+03  0.27359194787E+03  0.36067923249E+03  0.00000000000E+00 0. -1.
        -11    1    5    5    0    0 -0.94718789703E+02 -0.19496642219E+03  0.34928301163E+03  0.41107441798E+03  0.00000000000E+00 0.  1.
          1    1    6    6  503    0  0.11683345553E+03  0.44957516240E+02  0.94360430499E+02  0.15676455416E+03  0.00000000000E+00 0. -1.
         -1    1    6    6    0  503  0.24955043356E+03  0.10738678541E+03  0.51048681109E+02  0.27642957224E+03  0.00000000000E+00 0.  1.
<mgrwt>
<rscale>  0 0.12120992E+04</rscale>
<asrwt>0</asrwt>
<pdfrwt beam="1">  1        2 0.49606288E-01 0.12120992E+04</pdfrwt>
<pdfrwt beam="2">  1       -1 0.17524792E+00 0.12120992E+04</pdfrwt>
<totfact> 0.25768326E+01</totfact>
</mgrwt>
</event>
<event>
12    6  0.1611689E-007  0.4137955E+04  0.7818608E-02  0.7977280E-01
          2   -1    0    0  501    0  0.00000000000E+00  0.00000000000E+00  0.28007320173E+04  0.28007320173E+04  0.00000000000E+00 0. -1.
         -1   -1    0    0    0  501 -0.00000000000E+00 -0.00000000000E+00 -0.15284106687E+04  0.15284106687E+04  0.00000000000E+00 0.  1.
         24    2    1    2    0    0 -0.12291382235E+04  0.93416454769E+03  0.18876287075E+04  0.24399505764E+04  0.82295221093E+02 0.  0.
        254    2    1    2    0    0  0.12291382235E+04 -0.93416454769E+03 -0.61530735884E+03  0.18891921095E+04  0.89833151232E+03 0.  0.
         23    2    4    4    0    0  0.36419755197E+03  0.13884420956E+03 -0.19941438857E+03  0.44668499436E+03  0.88565311639E+02 0.  0.
         23    2    4    4    0    0  0.86494067157E+03 -0.10730087572E+04 -0.41589297028E+03  0.14425071151E+04  0.91595065700E+02 0.  0.
          4    1    3    3  502    0 -0.80224849334E+03  0.61879644324E+03  0.11772844893E+04  0.15532258213E+04  0.00000000000E+00 0. -1.
         -3    1    3    3    0  502 -0.42688973020E+03  0.31536810445E+03  0.71034421815E+03  0.88672475510E+03  0.00000000000E+00 0.  1.
         11    1    5    5    0    0  0.11539250875E+03  0.51022175580E+02 -0.20322785265E+02  0.12779557535E+03  0.00000000000E+00 0. -1.
        -11    1    5    5    0    0  0.24880504322E+03  0.87822033976E+02 -0.17909160330E+03  0.31888941901E+03  0.00000000000E+00 0.  1.
          1    1    6    6  503    0  0.95625516828E+02 -0.15504298368E+03 -0.77081936316E+02  0.19779835986E+03  0.00000000000E+00 0. -1.
         -1    1    6    6    0  503  0.76931515474E+03 -0.91796577357E+03 -0.33881103396E+03  0.12447087553E+04  0.00000000000E+00 0.  1.
<mgrwt>
<rscale>  0 0.41379554E+04</rscale>
<asrwt>0</asrwt>
<pdfrwt beam="1">  1        2 0.43088185E+00 0.41379554E+04</pdfrwt>
<pdfrwt beam="2">  1       -1 0.23514010E+00 0.41379554E+04</pdfrwt>
<totfact> 0.17865665E-01</totfact>
</mgrwt>
</event>
<event>
12    6  0.1611689E-007  0.1295892E+04  0.7818608E-02  0.9032829E-01
          2   -1    0    0  501    0  0.00000000000E+00  0.00000000000E+00  0.18104667161E+04  0.18104667161E+04  0.00000000000E+00 0. -1.
         -1   -1    0    0    0  501 -0.00000000000E+00 -0.00000000000E+00 -0.23189265051E+03  0.23189265051E+03  0.00000000000E+00 0.  1.
         24    2    1    2    0    0 -0.31042448604E+03  0.10369461693E+03  0.38017036697E+03  0.50801992736E+03  0.80242155759E+02 0.  0.
        254    2    1    2    0    0  0.31042448604E+03 -0.10369461693E+03  0.11984036986E+04  0.15343394393E+04  0.90050549964E+03 0.  0.
         23    2    4    4    0    0  0.35379342587E+03 -0.40966086945E+03  0.41714353896E+03  0.68949456563E+03  0.91663557653E+02 0.  0.
         23    2    4    4    0    0 -0.43368939829E+02  0.30596625251E+03  0.78126015969E+03  0.84484487364E+03  0.88877504389E+02 0.  0.
          2    1    3    3  502    0 -0.10251875837E+03  0.16629755094E+02  0.17351770701E+03  0.20222521905E+03  0.00000000000E+00 0. -1.
         -1    1    3    3    0  502 -0.20790572767E+03  0.87064861840E+02  0.20665265995E+03  0.30579470831E+03  0.00000000000E+00 0.  1.
         11    1    5    5    0    0  0.22413061284E+03 -0.22641234336E+03  0.19417252996E+03  0.37309523211E+03  0.00000000000E+00 0. -1.
        -11    1    5    5    0    0  0.12966281302E+03 -0.18324852609E+03  0.22297100900E+03  0.31639933352E+03  0.00000000000E+00 0.  1.
          1    1    6    6  503    0 -0.17863048159E+02  0.28054836541E+03  0.72950658146E+03  0.78179685739E+03  0.00000000000E+00 0. -1.
         -1    1    6    6    0  503 -0.25505891670E+02  0.25417887097E+02  0.51753578226E+02  0.63048016254E+02  0.00000000000E+00 0.  1.
<mgrwt>
<rscale>  0 0.12958919E+04</rscale>
<asrwt>0</asrwt>
<pdfrwt beam="1">  1        2 0.27853333E+00 0.12958919E+04</pdfrwt>
<pdfrwt beam="2">  1       -1 0.35675794E-01 0.12958919E+04</pdfrwt>
<totfact> 0.71311347E+01</totfact>
</mgrwt>
</event>
<event>
12    6  0.1611689E-007  0.2027841E+04  0.7818608E-02  0.8593713E-01
         -1   -1    0    0    0  501 -0.00000000000E+00  0.00000000000E+00  0.16244273891E+04  0.16244273891E+04  0.00000000000E+00 0.  1.
          2   -1    0    0  501    0  0.00000000000E+00 -0.00000000000E+00 -0.63286000437E+03  0.63286000437E+03  0.00000000000E+00 0. -1.
         24    2    1    2    0    0  0.21880166996E+03  0.62993118159E+03  0.92314734850E+03  0.11412378667E+04  0.74400113747E+02 0.  0.
        254    2    1    2    0    0 -0.21880166996E+03 -0.62993118159E+03  0.68420036255E+02  0.11160495268E+04  0.89229915426E+03 0.  0.
         23    2    4    4    0    0  0.17838817368E+03 -0.42330957440E+03 -0.27577532567E+03  0.54360942149E+03  0.91901232838E+02 0.  0.
         23    2    4    4    0    0 -0.39718984365E+03 -0.20662160718E+03  0.34419536192E+03  0.57244010535E+03  0.93621400309E+02 0.  0.
          4    1    3    3  502    0  0.42519488692E+01  0.81914297851E+02  0.99782057112E+02  0.12916845661E+03  0.00000000000E+00 0. -1.
         -3    1    3    3    0  502  0.21454972110E+03  0.54801688374E+03  0.82336529138E+03  0.10120694100E+04  0.00000000000E+00 0.  1.
         11    1    5    5    0    0  0.12010776331E+03 -0.25393262973E+03 -0.11718250232E+03  0.30436720273E+03  0.00000000000E+00 0. -1.
        -11    1    5    5    0    0  0.58280410375E+02 -0.16937694468E+03 -0.15859282335E+03  0.23924221876E+03  0.00000000000E+00 0.  1.
          4    1    6    6  503    0 -0.20630577182E+03 -0.86499921795E+02  0.11759292006E+03  0.25272990089E+03  0.00000000000E+00 0. -1.
         -4    1    6    6    0  503 -0.19088407182E+03 -0.12012168539E+03  0.22660244186E+03  0.31971020446E+03  0.00000000000E+00 0.  1.
<mgrwt>
<rscale>  0 0.20278413E+04</rscale>
<asrwt>0</asrwt>
<pdfrwt beam="1">  1        2 0.97363078E-01 0.20278413E+04</pdfrwt>
<pdfrwt beam="2">  1       -1 0.24991190E+00 0.20278413E+04</pdfrwt>
<totfact> 0.34335905E+00</totfact>
</mgrwt>
</event>
<event>
12    6  0.1611689E-007  0.1233558E+04  0.7818608E-02  0.9083980E-01
         -1   -1    0    0    0  501 -0.00000000000E+00  0.00000000000E+00  0.34768890279E+03  0.34768890279E+03  0.00000000000E+00 0.  1.
          2   -1    0    0  501    0  0.00000000000E+00 -0.00000000000E+00 -0.10941287724E+04  0.10941287724E+04  0.00000000000E+00 0. -1.
         24    2    1    2    0    0  0.84468458412E+02 -0.11460668567E+03 -0.44763295005E+03  0.47645579110E+03  0.79782517094E+02 0.  0.
        254    2    1    2    0    0 -0.84468458412E+02  0.11460668567E+03 -0.29880691959E+03  0.96536188412E+03  0.90684528959E+03 0.  0.
         23    2    4    4    0    0 -0.26866254145E+03  0.43460338590E+03 -0.75901904619E+02  0.52437567393E+03  0.90272277423E+02 0.  0.
         23    2    4    4    0    0  0.18419408304E+03 -0.31999670023E+03 -0.22290501497E+03  0.44098621019E+03  0.91961097711E+02 0.  0.
          2    1    3    3  502    0 -0.12361667573E+02 -0.46412258544E+00 -0.21575958961E+02  0.24870630070E+02  0.00000000000E+00 0. -1.
         -1    1    3    3    0  502  0.96830125985E+02 -0.11414256309E+03 -0.42605699109E+03  0.45158516103E+03  0.00000000000E+00 0.  1.
         11    1    5    5    0    0 -0.51238651125E+02  0.13300390046E+03 -0.52308647321E+02  0.15182763744E+03  0.00000000000E+00 0.  1.
        -11    1    5    5    0    0 -0.21742389032E+03  0.30159948544E+03 -0.23593257298E+02  0.37254803649E+03  0.00000000000E+00 0. -1.
          3    1    6    6  503    0  0.92180936959E+00 -0.67500746581E+02 -0.52250485764E+02  0.85365764708E+02  0.00000000000E+00 0.  1.
         -3    1    6    6    0  503  0.18327227367E+03 -0.25249595365E+03 -0.17065452921E+03  0.35562044548E+03  0.00000000000E+00 0. -1.
<mgrwt>
<rscale>  0 0.12335582E+04</rscale>
<asrwt>0</asrwt>
<pdfrwt beam="1">  1        2 0.16832750E+00 0.12335582E+04</pdfrwt>
<pdfrwt beam="2">  1       -1 0.53490600E-01 0.12335582E+04</pdfrwt>
<totfact> 0.86964737E+01</totfact>
</mgrwt>
</event>
<event>
12    6  0.1611689E-007  0.1816569E+04  0.7818608E-02  0.8697537E-01
          2   -1    0    0  501    0  0.00000000000E+00  0.00000000000E+00  0.12878131273E+04  0.12878131273E+04  0.00000000000E+00 0. -1.
         -1   -1    0    0    0  501 -0.00000000000E+00 -0.00000000000E+00 -0.64060608407E+03  0.64060608407E+03  0.00000000000E+00 0.  1.
         24    2    1    2    0    0  0.52737465523E+03 -0.30570754748E+03 -0.82309458353E+02  0.62221660920E+03  0.93795150531E+02 0.  0.
        254    2    1    2    0    0 -0.52737465523E+03  0.30570754748E+03  0.72951650163E+03  0.13062026022E+04  0.89576212261E+03 0.  0.
         23    2    4    4    0    0 -0.20473288374E+03 -0.11016856483E+03 -0.13971089098E+03  0.28594534040E+03  0.90514851149E+02 0.  0.
         23    2    4    4    0    0 -0.32264177149E+03  0.41587611231E+03  0.86922739260E+03  0.10202572618E+04  0.91202887708E+02 0.  0.
          4    1    3    3  502    0  0.10565761764E+03 -0.93546064290E+02  0.89365581518E+01  0.14140106217E+03  0.00000000000E+00 0. -1.
         -3    1    3    3    0  502  0.42171703758E+03 -0.21216148319E+03 -0.91246016504E+02  0.48081554703E+03  0.00000000000E+00 0.  1.
         11    1    5    5    0    0 -0.54197465620E+02 -0.11409838506E+02  0.40758250592E+01  0.55535232459E+02  0.00000000000E+00 0. -1.
        -11    1    5    5    0    0 -0.15053541812E+03 -0.98758726321E+02 -0.14378671603E+03  0.23041010794E+03  0.00000000000E+00 0.  1.
          3    1    6    6  503    0 -0.11724787667E+01 -0.41434938543E+01  0.27764313478E+01  0.51236528774E+01  0.00000000000E+00 0. -1.
         -3    1    6    6    0  503 -0.32146929272E+03  0.42001960616E+03  0.86645096126E+03  0.10151336089E+04  0.00000000000E+00 0.  1.
<mgrwt>
<rscale>  0 0.18165692E+04</rscale>
<asrwt>0</asrwt>
<pdfrwt beam="1">  1        2 0.19812510E+00 0.18165692E+04</pdfrwt>
<pdfrwt beam="2">  1       -1 0.98554782E-01 0.18165692E+04</pdfrwt>
<totfact> 0.17798708E+01</totfact>
</mgrwt>
</event>
<event>
12    6  0.1611689E-007  0.1823846E+04  0.7818608E-02  0.8693720E-01
          2   -1    0    0  501    0  0.00000000000E+00  0.00000000000E+00  0.27537756287E+04  0.27537756287E+04  0.00000000000E+00 0. -1.
         -1   -1    0    0    0  501 -0.00000000000E+00 -0.00000000000E+00 -0.30198669099E+03  0.30198669099E+03  0.00000000000E+00 0.  1.
         24    2    1    2    0    0 -0.27113275808E+03  0.64795909881E+03  0.11725060972E+04  0.13691715064E+04  0.80598385485E+02 0.  0.
        254    2    1    2    0    0  0.27113275808E+03 -0.64795909881E+03  0.12792828405E+04  0.16865908133E+04  0.84537566749E+03 0.  0.
         23    2    4    4    0    0 -0.94556175980E+02 -0.13235589403E+03 -0.66199112358E+02  0.19751589338E+03  0.90394980826E+02 0.  0.
         23    2    4    4    0    0  0.36568893406E+03 -0.51560320478E+03  0.13454819529E+04  0.14890749199E+04  0.86298147824E+02 0.  0.
          4    1    3    3  502    0 -0.20803385774E+03  0.43588191482E+03  0.74626992134E+03  0.88892627654E+03  0.00000000000E+00 0. -1.
         -3    1    3    3    0  502 -0.63098900338E+02  0.21207718400E+03  0.42623617581E+03  0.48024522982E+03  0.00000000000E+00 0.  1.
         11    1    5    5    0    0 -0.75009510146E+02 -0.32237392824E+02 -0.45367721448E+02  0.93401853610E+02  0.00000000000E+00 0. -1.
        -11    1    5    5    0    0 -0.19546665834E+02 -0.10011850121E+03 -0.20831390911E+02  0.10411403977E+03  0.00000000000E+00 0.  1.
          4    1    6    6  503    0  0.13800447472E+03 -0.26704519711E+03  0.61116594037E+03  0.68108896556E+03  0.00000000000E+00 0. -1.
         -4    1    6    6    0  503  0.22768445934E+03 -0.24855800767E+03  0.73431601250E+03  0.80798595434E+03  0.00000000000E+00 0.  1.
<mgrwt>
<rscale>  0 0.18238460E+04</rscale>
<asrwt>0</asrwt>
<pdfrwt beam="1">  1        2 0.42365777E+00 0.18238460E+04</pdfrwt>
<pdfrwt beam="2">  1       -1 0.46459493E-01 0.18238460E+04</pdfrwt>
<totfact> 0.12228855E+01</totfact>
</mgrwt>
</event>
<event>
12    6  0.1611689E-007  0.2710544E+04  0.7818608E-02  0.8331592E-01
         -1   -1    0    0    0  501 -0.00000000000E+00  0.00000000000E+00  0.14012066998E+04  0.14012066998E+04  0.00000000000E+00 0.  1.
          2   -1    0    0  501    0  0.00000000000E+00 -0.00000000000E+00 -0.13108435907E+04  0.13108435907E+04  0.00000000000E+00 0. -1.
         24    2    1    2    0    0 -0.99525707681E+03  0.11558812905E+03 -0.62843259658E+03  0.11854069883E+04  0.79780541816E+02 0.  0.
        254    2    1    2    0    0  0.99525707681E+03 -0.11558812905E+03  0.71879570563E+03  0.15266433023E+04  0.90004179984E+03 0.  0.
         23    2    4    4    0    0 -0.11226899295E+02  0.90517537173E+02  0.43958847219E+03  0.45815963428E+03  0.91393423172E+02 0.  0.
         23    2    4    4    0    0  0.10064839761E+04 -0.20610566622E+03  0.27920723344E+03  0.10684836680E+04  0.90615284439E+02 0.  0.
          2    1    3    3  502    0 -0.71497166503E+03  0.95692957103E+02 -0.49109940689E+03  0.87265127702E+03  0.00000000000E+00 0. -1.
         -1    1    3    3    0  502 -0.28028541178E+03  0.19895171948E+02 -0.13733318969E+03  0.31275571124E+03  0.00000000000E+00 0.  1.
         11    1    5    5    0    0 -0.17969814180E+02 -0.14975837309E+02  0.82818169464E+02  0.86058347173E+02  0.00000000000E+00 0. -1.
        -11    1    5    5    0    0  0.67429148856E+01  0.10549337448E+03  0.35677030273E+03  0.37210128711E+03  0.00000000000E+00 0.  1.
          1    1    6    6  503    0  0.15323139757E+03  0.13035474437E+01  0.43989200728E+02  0.15942587688E+03  0.00000000000E+00 0. -1.
         -1    1    6    6    0  503  0.85325257853E+03 -0.20740921367E+03  0.23521803271E+03  0.90905779112E+03  0.00000000000E+00 0.  1.
<mgrwt>
<rscale>  0 0.27105445E+04</rscale>
<asrwt>0</asrwt>
<pdfrwt beam="1">  1        2 0.20166824E+00 0.27105445E+04</pdfrwt>
<pdfrwt beam="2">  1       -1 0.21557026E+00 0.27105445E+04</pdfrwt>
<totfact> 0.19176287E+00</totfact>
</mgrwt>
</event>
<event>
12    6  0.1611689E-007  0.3327776E+04  0.7818608E-02  0.8155864E-01
         -1   -1    0    0    0  501 -0.00000000000E+00  0.00000000000E+00  0.12969234912E+04  0.12969234912E+04  0.00000000000E+00 0.  1.
          2   -1    0    0  501    0  0.00000000000E+00 -0.00000000000E+00 -0.21346846596E+04  0.21346846596E+04  0.00000000000E+00 0. -1.
         24    2    1    2    0    0 -0.41124605334E+02 -0.10413311442E+04  0.81927191947E+03  0.13280114816E+04  0.79663242426E+02 0.  0.
        254    2    1    2    0    0  0.41124605334E+02  0.10413311442E+04 -0.16570330879E+04  0.21035966693E+04  0.77025872785E+03 0.  0.
         23    2    4    4    0    0  0.33755739574E+03  0.29717218755E+03 -0.39019937515E+03  0.60182636638E+03  0.87653399431E+02 0.  0.
         23    2    4    4    0    0 -0.29643279041E+03  0.74415895662E+03 -0.12668337127E+04  0.15017703029E+04  0.93815964050E+02 0.  0.
          2    1    3    3  502    0 -0.29329764629E+01 -0.18027894969E+03  0.10526562787E+03  0.20878207409E+03  0.00000000000E+00 0. -1.
         -1    1    3    3    0  502 -0.38191628871E+02 -0.86105219448E+03  0.71400629161E+03  0.11192294075E+04  0.00000000000E+00 0.  1.
         11    1    5    5    0    0 -0.29115342049E+01  0.15091522412E+02 -0.76815310274E+01  0.17182461961E+02  0.00000000000E+00 0.  1.
        -11    1    5    5    0    0  0.34046892995E+03  0.28208066514E+03 -0.38251784412E+03  0.58464390442E+03  0.00000000000E+00 0. -1.
          1    1    6    6  503    0 -0.21922076953E+03  0.61487358302E+03 -0.97457922607E+03  0.11730012518E+04  0.00000000000E+00 0. -1.
         -1    1    6    6    0  503 -0.77212020878E+02  0.12928537360E+03 -0.29225448665E+03  0.32876905110E+03  0.00000000000E+00 0.  1.
<mgrwt>
<rscale>  0 0.33277756E+04</rscale>
<asrwt>0</asrwt>
<pdfrwt beam="1">  1        2 0.32841302E+00 0.33277756E+04</pdfrwt>
<pdfrwt beam="2">  1       -1 0.19952669E+00 0.33277756E+04</pdfrwt>
<totfact> 0.80742842E-01</totfact>
</mgrwt>
</event>
<event>
12    6  0.1611689E-007  0.2263292E+04  0.7818608E-02  0.8492537E-01
         -1   -1    0    0    0  501 -0.00000000000E+00  0.00000000000E+00  0.62976607132E+03  0.62976607132E+03  0.00000000000E+00 0.  1.
          2   -1    0    0  501    0  0.00000000000E+00 -0.00000000000E+00 -0.20334894382E+04  0.20334894382E+04  0.00000000000E+00 0. -1.
         24    2    1    2    0    0 -0.28341788783E+02  0.58202293689E+03  0.28778462357E+03  0.65483258089E+03  0.80198275412E+02 0.  0.
        254    2    1    2    0    0  0.28341788783E+02 -0.58202293689E+03 -0.16915079904E+04  0.20084229286E+04  0.91269349862E+03 0.  0.
         23    2    4    4    0    0 -0.24574173071E+03  0.65517180343E+02 -0.14268694263E+03  0.30499625780E+03  0.89340106010E+02 0.  0.
         23    2    4    4    0    0  0.27408351949E+03 -0.64754011723E+03 -0.15488210478E+04  0.17034266708E+04  0.91574044626E+02 0.  0.
          2    1    3    3  502    0 -0.23938381694E+02  0.63539518451E+02  0.17529598652E+02  0.70125625501E+02  0.00000000000E+00 0. -1.
         -1    1    3    3    0  502 -0.44034070896E+01  0.51848341844E+03  0.27025502492E+03  0.58470695539E+03  0.00000000000E+00 0.  1.
         11    1    5    5    0    0 -0.51547942664E+02  0.36591033500E+02 -0.73220013143E+02  0.96732954313E+02  0.00000000000E+00 0.  1.
        -11    1    5    5    0    0 -0.19419378805E+03  0.28926146843E+02 -0.69466929492E+02  0.20826330349E+03  0.00000000000E+00 0. -1.
          3    1    6    6  503    0  0.16993103532E+03 -0.31001961086E+03 -0.84377933710E+03  0.91485096360E+03  0.00000000000E+00 0. -1.
         -3    1    6    6    0  503  0.10415248417E+03 -0.33752050637E+03 -0.70504171068E+03  0.78857570719E+03  0.00000000000E+00 0.  1.
<mgrwt>
<rscale>  0 0.22632920E+04</rscale>
<asrwt>0</asrwt>
<pdfrwt beam="1">  1        2 0.31284453E+00 0.22632920E+04</pdfrwt>
<pdfrwt beam="2">  1       -1 0.96887089E-01 0.22632920E+04</pdfrwt>
<totfact> 0.67840948E+00</totfact>
</mgrwt>
</event>
<event>
12    6  0.1611689E-007  0.1597785E+04  0.7818608E-02  0.8821910E-01
         -1   -1    0    0    0  501 -0.00000000000E+00  0.00000000000E+00  0.32090566351E+03  0.32090566351E+03  0.00000000000E+00 0.  1.
          2   -1    0    0  501    0  0.00000000000E+00 -0.00000000000E+00 -0.19888382608E+04  0.19888382608E+04  0.00000000000E+00 0. -1.
         24    2    1    2    0    0  0.14090242344E+03  0.40241828160E+03 -0.10698129276E+04  0.11544470125E+04  0.80338274691E+02 0.  0.
        254    2    1    2    0    0 -0.14090242344E+03 -0.40241828160E+03 -0.59811966972E+03  0.11552969118E+04  0.89172296643E+03 0.  0.
         23    2    4    4    0    0 -0.35165260448E+03  0.91220008175E+01 -0.57856469052E+03  0.68321581711E+03  0.91126211963E+02 0.  0.
         23    2    4    4    0    0  0.21075018104E+03 -0.41154028242E+03 -0.19554979207E+02  0.47208109471E+03  0.93258350307E+02 0.  0.
          4    1    3    3  502    0  0.77722555620E+02  0.31566272714E+03 -0.84343403272E+03  0.90391632384E+03  0.00000000000E+00 0. -1.
         -3    1    3    3    0  502  0.63179867817E+02  0.86755554461E+02 -0.22637889489E+03  0.25053068870E+03  0.00000000000E+00 0.  1.
         11    1    5    5    0    0 -0.54038127768E+02 -0.20851088309E+02 -0.14814239395E+03  0.15906305674E+03  0.00000000000E+00 0.  1.
        -11    1    5    5    0    0 -0.29761447671E+03  0.29973089127E+02 -0.43042229657E+03  0.52415276037E+03  0.00000000000E+00 0. -1.
          1    1    6    6  503    0  0.12420267082E+03 -0.28383940372E+03 -0.52753427600E+02  0.31428336683E+03  0.00000000000E+00 0. -1.
         -1    1    6    6    0  503  0.86547510225E+02 -0.12770087870E+03  0.33198448393E+02  0.15779772788E+03  0.00000000000E+00 0.  1.
<mgrwt>
<rscale>  0 0.15977853E+04</rscale>
<asrwt>0</asrwt>
<pdfrwt beam="1">  1        2 0.30597512E+00 0.15977853E+04</pdfrwt>
<pdfrwt beam="2">  1       -1 0.49370101E-01 0.15977853E+04</pdfrwt>
<totfact> 0.30451557E+01</totfact>
</mgrwt>
</event>
<event>
12    6  0.1611689E-007  0.2706384E+04  0.7818608E-02  0.8332937E-01
          2   -1    0    0  501    0  0.00000000000E+00  0.00000000000E+00  0.21290311093E+04  0.21290311093E+04  0.00000000000E+00 0. -1.
         -1   -1    0    0    0  501 -0.00000000000E+00 -0.00000000000E+00 -0.86007595931E+03  0.86007595931E+03  0.00000000000E+00 0.  1.
         24    2    1    2    0    0 -0.61765697893E+03 -0.47556496292E+03 -0.44661813051E+03  0.90187124609E+03  0.79005141904E+02 0.  0.
        254    2    1    2    0    0  0.61765697893E+03  0.47556496292E+03  0.17155732805E+04  0.20872358225E+04  0.89760766509E+03 0.  0.
         23    2    4    4    0    0  0.13082758069E+03 -0.25796896449E+03  0.47029191499E+03  0.55956332799E+03  0.90954880126E+02 0.  0.
         23    2    4    4    0    0  0.48682939824E+03  0.73353392740E+03  0.12452813655E+04  0.15276724945E+04  0.89345876177E+02 0.  0.
          4    1    3    3  502    0 -0.11647601780E+03 -0.57980239811E+02 -0.92165796266E+02  0.15944561747E+03  0.00000000000E+00 0. -1.
         -3    1    3    3    0  502 -0.50118096113E+03 -0.41758472311E+03 -0.35445233425E+03  0.74242562862E+03  0.00000000000E+00 0.  1.
         11    1    5    5    0    0 -0.69745058911E+01 -0.14237549437E+02  0.51799187403E+01  0.16678822037E+02  0.00000000000E+00 0. -1.
        -11    1    5    5    0    0  0.13780208658E+03 -0.24373141505E+03  0.46511199625E+03  0.54288450595E+03  0.00000000000E+00 0.  1.
          3    1    6    6  503    0  0.13637326561E+02  0.60977898269E+02  0.82721376277E+02  0.10366825380E+03  0.00000000000E+00 0. -1.
         -3    1    6    6    0  503  0.47319207168E+03  0.67255602913E+03  0.11625599892E+04  0.14240042407E+04  0.00000000000E+00 0.  1.
<mgrwt>
<rscale>  0 0.27063839E+04</rscale>
<asrwt>0</asrwt>
<pdfrwt beam="1">  1        2 0.32754325E+00 0.27063839E+04</pdfrwt>
<pdfrwt beam="2">  1       -1 0.13231938E+00 0.27063839E+04</pdfrwt>
<totfact> 0.27370226E+00</totfact>
</mgrwt>
</event>
<event>
12    6  0.1611689E-007  0.1425919E+04  0.7818608E-02  0.8935268E-01
          2   -1    0    0  501    0  0.00000000000E+00  0.00000000000E+00  0.26875710556E+04  0.26875710556E+04  0.00000000000E+00 0. -1.
         -1   -1    0    0    0  501 -0.00000000000E+00 -0.00000000000E+00 -0.18913394205E+03  0.18913394205E+03  0.00000000000E+00 0.  1.
         24    2    1    2    0    0  0.18225561850E+03  0.33487250553E+03  0.39038605773E+03  0.55194397632E+03  0.82970919566E+02 0.  0.
        254    2    1    2    0    0 -0.18225561850E+03 -0.33487250553E+03  0.21080510558E+04  0.23247610213E+04  0.90292737634E+03 0.  0.
         23    2    4    4    0    0  0.27147967125E+03 -0.87847138966E+02  0.14661810306E+04  0.14959085209E+04  0.81468747765E+02 0.  0.
         23    2    4    4    0    0 -0.45373528975E+03 -0.24702536656E+03  0.64187002523E+03  0.82885250038E+03  0.90011628270E+02 0.  0.
          4    1    3    3  502    0  0.10487848175E+03  0.12411860953E+03  0.12973268185E+03  0.20793146444E+03  0.00000000000E+00 0. -1.
         -3    1    3    3    0  502  0.77377136748E+02  0.21075389600E+03  0.26065337589E+03  0.34401251188E+03  0.00000000000E+00 0.  1.
         11    1    5    5    0    0  0.18465778452E+03 -0.81762317055E+02  0.85291818467E+03  0.87650042990E+03  0.00000000000E+00 0.  1.
        -11    1    5    5    0    0  0.86821886732E+02 -0.60848219111E+01  0.61326284588E+03  0.61940809102E+03  0.00000000000E+00 0. -1.
          3    1    6    6  503    0 -0.44184881608E+02 -0.58604416046E+02  0.97871022359E+02  0.12233363544E+03  0.00000000000E+00 0. -1.
         -3    1    6    6    0  503 -0.40955040814E+03 -0.18842095052E+03  0.54399900287E+03  0.70651886494E+03  0.00000000000E+00 0.  1.
<mgrwt>
<rscale>  0 0.14259185E+04</rscale>
<asrwt>0</asrwt>
<pdfrwt beam="1">  1        2 0.41347244E+00 0.14259185E+04</pdfrwt>
<pdfrwt beam="2">  1       -1 0.29097531E-01 0.14259185E+04</pdfrwt>
<totfact> 0.32338031E+01</totfact>
</mgrwt>
</event>
<event>
12    6  0.1611689E-007  0.1911702E+04  0.7818608E-02  0.8649054E-01
         -1   -1    0    0    0  501 -0.00000000000E+00  0.00000000000E+00  0.65691130301E+03  0.65691130301E+03  0.00000000000E+00 0.  1.
          2   -1    0    0  501    0  0.00000000000E+00 -0.00000000000E+00 -0.13908282226E+04  0.13908282226E+04  0.00000000000E+00 0. -1.
         24    2    1    2    0    0  0.42151699054E+03  0.56555879423E+03 -0.52587546815E+03  0.88528032799E+03  0.98198411830E+02 0.  0.
        254    2    1    2    0    0 -0.42151699054E+03 -0.56555879423E+03 -0.20804145140E+03  0.11624591976E+04  0.90027596739E+03 0.  0.
         23    2    4    4    0    0 -0.18210073575E+03 -0.73090247145E+03 -0.33740246972E+03  0.83107642831E+03  0.97306229946E+02 0.  0.
         23    2    4    4    0    0 -0.23941625478E+03  0.16534367722E+03  0.12936101831E+03  0.33138276926E+03  0.91769232575E+02 0.  0.
          4    1    3    3  502    0  0.52036426919E+02  0.11764066234E+03 -0.12748175346E+03  0.18110414856E+03  0.00000000000E+00 0. -1.
         -3    1    3    3    0  502  0.36948056362E+03  0.44791813190E+03 -0.39839371468E+03  0.70417617943E+03  0.00000000000E+00 0.  1.
         11    1    5    5    0    0  0.10243247742E+02 -0.83367449442E+02 -0.35837167305E+02  0.91320087117E+02  0.00000000000E+00 0. -1.
        -11    1    5    5    0    0 -0.19234398350E+03 -0.64753502201E+03 -0.30156530241E+03  0.73975634120E+03  0.00000000000E+00 0.  1.
          3    1    6    6  503    0 -0.10085750591E+01 -0.84907532867E+01  0.98515824879E+01  0.13044684455E+02  0.00000000000E+00 0. -1.
         -3    1    6    6    0  503 -0.23840767973E+03  0.17383443051E+03  0.11950943583E+03  0.31833808480E+03  0.00000000000E+00 0.  1.
<mgrwt>
<rscale>  0 0.19117016E+04</rscale>
<asrwt>0</asrwt>
<pdfrwt beam="1">  1        2 0.21397357E+00 0.19117016E+04</pdfrwt>
<pdfrwt beam="2">  1       -1 0.10106328E+00 0.19117016E+04</pdfrwt>
<totfact> 0.14530240E+01</totfact>
</mgrwt>
</event>
<event>
12    6  0.1611689E-007  0.1152510E+04  0.7818608E-02  0.9155471E-01
          4   -1    0    0  501    0  0.00000000000E+00  0.00000000000E+00  0.13589724389E+03  0.13589724389E+03  0.00000000000E+00 0. -1.
         -3   -1    0    0    0  501 -0.00000000000E+00 -0.00000000000E+00 -0.24435369225E+04  0.24435369225E+04  0.00000000000E+00 0.  1.
         24    2    1    2    0    0  0.15098825898E+03 -0.64608103477E+02 -0.70907443514E+03  0.73214148173E+03  0.79201851698E+02 0.  0.
        254    2    1    2    0    0 -0.15098825898E+03  0.64608103477E+02 -0.15985652435E+04  0.18472926846E+04  0.91110249904E+03 0.  0.
         23    2    4    4    0    0 -0.46463359958E+03 -0.37131437014E+02 -0.47076688827E+03  0.66864930049E+03  0.90594141519E+02 0.  0.
         23    2    4    4    0    0  0.31364534060E+03  0.10173954049E+03 -0.11277983552E+04  0.11786433842E+04  0.92448706158E+02 0.  0.
          2    1    3    3  502    0  0.30908903762E+02  0.15761364630E+02 -0.90694685489E+02  0.97104618442E+02  0.00000000000E+00 0. -1.
         -1    1    3    3    0  502  0.12007935522E+03 -0.80369468107E+02 -0.61837974965E+03  0.63503686329E+03  0.00000000000E+00 0.  1.
         11    1    5    5    0    0 -0.33585623922E+03  0.13528279470E+02 -0.32209576439E+03  0.46554066332E+03  0.00000000000E+00 0. -1.
        -11    1    5    5    0    0 -0.12877736036E+03 -0.50659716483E+02 -0.14867112388E+03  0.20310863717E+03  0.00000000000E+00 0.  1.
          3    1    6    6  503    0  0.17962023899E+03  0.10179900947E+02 -0.61423112602E+03  0.64003666833E+03  0.00000000000E+00 0. -1.
         -3    1    6    6    0  503  0.13402510161E+03  0.91559639544E+02 -0.51356722917E+03  0.53860671583E+03  0.00000000000E+00 0.  1.
<mgrwt>
<rscale>  0 0.11525102E+04</rscale>
<asrwt>0</asrwt>
<pdfrwt beam="1">  1        4 0.20907269E-01 0.11525102E+04</pdfrwt>
<pdfrwt beam="2">  1       -3 0.37592874E+00 0.11525102E+04</pdfrwt>
<totfact> 0.70765783E-01</totfact>
</mgrwt>
</event>
<event>
12    6  0.1611689E-007  0.1568067E+04  0.7818608E-02  0.8840409E-01
         -1   -1    0    0    0  501 -0.00000000000E+00  0.00000000000E+00  0.64254654553E+03  0.64254654553E+03  0.00000000000E+00 0.  1.
          2   -1    0    0  501    0  0.00000000000E+00 -0.00000000000E+00 -0.95667536434E+03  0.95667536434E+03  0.00000000000E+00 0. -1.
         24    2    1    2    0    0  0.35527719275E+03 -0.33839954600E+03  0.69845463639E+02  0.50238314636E+03  0.82306139051E+02 0.  0.
        254    2    1    2    0    0 -0.35527719275E+03  0.33839954600E+03 -0.38397428245E+03  0.10968387635E+04  0.90270863912E+03 0.  0.
         23    2    4    4    0    0  0.24705346565E+03  0.19557785238E+03 -0.33451532491E+03  0.46782658965E+03  0.87607671734E+02 0.  0.
         23    2    4    4    0    0 -0.60233065840E+03  0.14282169362E+03 -0.49458957534E+02  0.62901217387E+03  0.10004932868E+03 0.  0.
          2    1    3    3  502    0  0.99581469483E+02 -0.72123115262E+02  0.49846800465E+02  0.13267598251E+03  0.00000000000E+00 0. -1.
         -1    1    3    3    0  502  0.25569572327E+03 -0.26627643074E+03  0.19998663174E+02  0.36970716384E+03  0.00000000000E+00 0.  1.
         11    1    5    5    0    0  0.59458042543E+01  0.19604985451E+02 -0.55782842369E+02  0.59425865963E+02  0.00000000000E+00 0. -1.
        -11    1    5    5    0    0  0.24110766140E+03  0.17597286693E+03 -0.27873248254E+03  0.40840072368E+03  0.00000000000E+00 0.  1.
          2    1    6    6  503    0 -0.25881691784E+03  0.31521424075E+02 -0.60857165926E+02  0.26773754272E+03  0.00000000000E+00 0. -1.
         -2    1    6    6    0  503 -0.34351374056E+03  0.11130026955E+03  0.11398208392E+02  0.36127463115E+03  0.00000000000E+00 0.  1.
<mgrwt>
<rscale>  0 0.15680669E+04</rscale>
<asrwt>0</asrwt>
<pdfrwt beam="1">  1        2 0.14718082E+00 0.15680669E+04</pdfrwt>
<pdfrwt beam="2">  1       -1 0.98853315E-01 0.15680669E+04</pdfrwt>
<totfact> 0.28856006E+01</totfact>
</mgrwt>
</event>
<event>
12    6  0.1611689E-007  0.1935211E+04  0.7818608E-02  0.8637526E-01
          2   -1    0    0  501    0  0.00000000000E+00  0.00000000000E+00  0.12314395785E+04  0.12314395785E+04  0.00000000000E+00 0. -1.
         -1   -1    0    0    0  501 -0.00000000000E+00 -0.00000000000E+00 -0.76029726637E+03  0.76029726637E+03  0.00000000000E+00 0.  1.
         24    2    1    2    0    0 -0.64269235822E+03  0.32350092969E+03 -0.42965595490E+02  0.72523574823E+03  0.80090756558E+02 0.  0.
        254    2    1    2    0    0  0.64269235822E+03 -0.32350092969E+03  0.51410790758E+03  0.12665010966E+04  0.90664864653E+03 0.  0.
         23    2    4    4    0    0 -0.10849156490E+03  0.15383558830E+03 -0.45829951467E+02  0.21085865384E+03  0.83217663786E+02 0.  0.
         23    2    4    4    0    0  0.75118392312E+03 -0.47733651799E+03  0.55993785904E+03  0.10556424428E+04  0.93397661750E+02 0.  0.
          4    1    3    3  502    0 -0.43183758782E+03  0.25261060792E+03 -0.10333668398E+02  0.50040244423E+03  0.00000000000E+00 0. -1.
         -3    1    3    3    0  502 -0.21085477040E+03  0.70890321771E+02 -0.32631927092E+02  0.22483330400E+03  0.00000000000E+00 0.  1.
         11    1    5    5    0    0 -0.10513941334E+03  0.16416616836E+03 -0.43844334210E+02  0.19981779879E+03  0.00000000000E+00 0. -1.
        -11    1    5    5    0    0 -0.33521515548E+01 -0.10330580056E+02 -0.19856172567E+01  0.11040855050E+02  0.00000000000E+00 0.  1.
          1    1    6    6  503    0  0.49119887015E+03 -0.35142585079E+03  0.34477339697E+03  0.69544601077E+03  0.00000000000E+00 0. -1.
         -1    1    6    6    0  503  0.25998505297E+03 -0.12591066720E+03  0.21516446207E+03  0.36019643200E+03  0.00000000000E+00 0.  1.
<mgrwt>
<rscale>  0 0.19352107E+04</rscale>
<asrwt>0</asrwt>
<pdfrwt beam="1">  1        2 0.18945224E+00 0.19352107E+04</pdfrwt>
<pdfrwt beam="2">  1       -1 0.11696881E+00 0.19352107E+04</pdfrwt>
<totfact> 0.12728340E+01</totfact>
</mgrwt>
</event>
<event>
12    6  0.1611689E-007  0.2843416E+04  0.7818608E-02  0.8289915E-01
          2   -1    0    0  501    0  0.00000000000E+00  0.00000000000E+00  0.97983747246E+03  0.97983747246E+03  0.00000000000E+00 0. -1.
         -1   -1    0    0    0  501 -0.00000000000E+00 -0.00000000000E+00 -0.20628465124E+04  0.20628465124E+04  0.00000000000E+00 0.  1.
         24    2    1    2    0    0  0.89954813690E+03  0.18639667459E+03  0.45887930848E+03  0.10302648718E+04  0.83336159363E+02 0.  0.
        254    2    1    2    0    0 -0.89954813690E+03 -0.18639667459E+03 -0.15418883484E+04  0.20124191130E+04  0.91020900708E+03 0.  0.
         23    2    4    4    0    0 -0.10529148497E+04 -0.40033632653E+02 -0.11898098102E+04  0.15919087698E+04  0.91070163437E+02 0.  0.
         23    2    4    4    0    0  0.15336671280E+03 -0.14636304194E+03 -0.35207853824E+03  0.42051034317E+03  0.89029000778E+02 0.  0.
          4    1    3    3  502    0  0.40274011494E+03  0.64655564267E+02  0.24517655852E+03  0.47591121758E+03  0.00000000000E+00 0. -1.
         -3    1    3    3    0  502  0.49680802196E+03  0.12174111032E+03  0.21370274996E+03  0.55435365424E+03  0.00000000000E+00 0.  1.
         11    1    5    5    0    0 -0.82492203147E+02  0.49903757216E+01 -0.61554432604E+02  0.10304763754E+03  0.00000000000E+00 0. -1.
        -11    1    5    5    0    0 -0.97042264656E+03 -0.45024008374E+02 -0.11282553775E+04  0.14888611323E+04  0.00000000000E+00 0.  1.
          3    1    6    6  503    0 -0.64705837119E+01  0.55305198129E+01 -0.21683567051E+02  0.23294466790E+02  0.00000000000E+00 0. -1.
         -3    1    6    6    0  503  0.15983729652E+03 -0.15189356175E+03 -0.33039497119E+03  0.39721587638E+03  0.00000000000E+00 0.  1.
<mgrwt>
<rscale>  0 0.28434165E+04</rscale>
<asrwt>0</asrwt>
<pdfrwt beam="1">  1        2 0.15074423E+00 0.28434165E+04</pdfrwt>
<pdfrwt beam="2">  1       -1 0.31736100E+00 0.28434165E+04</pdfrwt>
<totfact> 0.65317495E-01</totfact>
</mgrwt>
</event>
<event>
12    6  0.1611689E-007  0.1519846E+04  0.7818608E-02  0.8871362E-01
         -1   -1    0    0    0  501 -0.00000000000E+00  0.00000000000E+00  0.24282338054E+03  0.24282338054E+03  0.00000000000E+00 0.  1.
          2   -1    0    0  501    0  0.00000000000E+00 -0.00000000000E+00 -0.23782024197E+04  0.23782024197E+04  0.00000000000E+00 0. -1.
         24    2    1    2    0    0 -0.24219735261E+03  0.16479419250E+03 -0.15230875432E+04  0.15529957222E+04  0.78634378984E+02 0.  0.
        254    2    1    2    0    0  0.24219735261E+03 -0.16479419250E+03 -0.61229149597E+03  0.10680300780E+04  0.82460335193E+03 0.  0.
         23    2    4    4    0    0 -0.21420052840E+03  0.85143737996E+02  0.14493950275E+02  0.24831565993E+03  0.91210031710E+02 0.  0.
         23    2    4    4    0    0  0.45639788101E+03 -0.24993793050E+03 -0.62678544624E+03  0.81971441808E+03  0.91124841275E+02 0.  0.
          4    1    3    3  502    0 -0.24145754818E+03  0.14200098923E+03 -0.13858573550E+04  0.14138835302E+04  0.00000000000E+00 0. -1.
         -3    1    3    3    0  502 -0.73980442750E+00  0.22793203273E+02 -0.13723018819E+03  0.13911219205E+03  0.00000000000E+00 0.  1.
         11    1    5    5    0    0  0.13157099817E+01 -0.54145672338E+01  0.13434282800E+02  0.14544022326E+02  0.00000000000E+00 0. -1.
        -11    1    5    5    0    0 -0.21551623838E+03  0.90558305230E+02  0.10596674753E+01  0.23377163761E+03  0.00000000000E+00 0.  1.
          3    1    6    6  503    0  0.12355840471E+03 -0.72033202944E+02 -0.23949267328E+03  0.27894838637E+03  0.00000000000E+00 0. -1.
         -3    1    6    6    0  503  0.33283947630E+03 -0.17790472756E+03 -0.38729277296E+03  0.54076603172E+03  0.00000000000E+00 0.  1.
<mgrwt>
<rscale>  0 0.15198462E+04</rscale>
<asrwt>0</asrwt>
<pdfrwt beam="1">  1        2 0.36587730E+00 0.15198462E+04</pdfrwt>
<pdfrwt beam="2">  1       -1 0.37357442E-01 0.15198462E+04</pdfrwt>
<totfact> 0.31072597E+01</totfact>
</mgrwt>
</event>
<event>
12    6  0.1611689E-007  0.2056767E+04  0.7818608E-02  0.8580531E-01
          2   -1    0    0  501    0  0.00000000000E+00  0.00000000000E+00  0.25528349131E+04  0.25528349131E+04  0.00000000000E+00 0. -1.
         -1   -1    0    0    0  501 -0.00000000000E+00 -0.00000000000E+00 -0.41427379768E+03  0.41427379768E+03  0.00000000000E+00 0.  1.
         24    2    1    2    0    0  0.26428999927E+03  0.64162701092E+03  0.20909306503E+03  0.72923998435E+03  0.80849366607E+02 0.  0.
        254    2    1    2    0    0 -0.26428999927E+03 -0.64162701092E+03  0.19294680504E+04  0.22378687265E+04  0.89647925490E+03 0.  0.
         23    2    4    4    0    0 -0.17166542616E+01 -0.78424534376E+03  0.11246557099E+04  0.13743911629E+04  0.95167730199E+02 0.  0.
         23    2    4    4    0    0 -0.26257334501E+03  0.14261833285E+03  0.80481234055E+03  0.86347756354E+03  0.92659855721E+02 0.  0.
          4    1    3    3  502    0  0.13753577639E+03  0.27957626858E+03  0.12980943591E+03  0.33753439735E+03  0.00000000000E+00 0. -1.
         -3    1    3    3    0  502  0.12675422288E+03  0.36205074234E+03  0.79283629118E+02  0.39170558700E+03  0.00000000000E+00 0.  1.
         11    1    5    5    0    0 -0.21643513291E+02 -0.63782912717E+03  0.96403747445E+03  0.11561412930E+04  0.00000000000E+00 0. -1.
        -11    1    5    5    0    0  0.19926859029E+02 -0.14641621659E+03  0.16061823541E+03  0.21824986996E+03  0.00000000000E+00 0.  1.
          1    1    6    6  503    0 -0.77973777892E+01  0.21566139475E+02  0.13123519036E+03  0.13322376913E+03  0.00000000000E+00 0. -1.
         -1    1    6    6    0  503 -0.25477596722E+03  0.12105219337E+03  0.67357715019E+03  0.73025379441E+03  0.00000000000E+00 0.  1.
<mgrwt>
<rscale>  0 0.20567670E+04</rscale>
<asrwt>0</asrwt>
<pdfrwt beam="1">  1        2 0.39274382E+00 0.20567670E+04</pdfrwt>
<pdfrwt beam="2">  1       -1 0.63734432E-01 0.20567670E+04</pdfrwt>
<totfact> 0.85276215E+00</totfact>
</mgrwt>
</event>
<event>
12    6  0.1611689E-007  0.3300602E+04  0.7818608E-02  0.8162742E-01
         -1   -1    0    0    0  501 -0.00000000000E+00  0.00000000000E+00  0.96546830473E+03  0.96546830473E+03  0.00000000000E+00 0.  1.
          2   -1    0    0  501    0  0.00000000000E+00 -0.00000000000E+00 -0.28209034789E+04  0.28209034789E+04  0.00000000000E+00 0. -1.
         24    2    1    2    0    0  0.82400637397E+02 -0.11939693973E+04  0.22453268321E+03  0.12203936671E+04  0.81197228981E+02 0.  0.
        254    2    1    2    0    0 -0.82400637397E+02  0.11939693973E+04 -0.20799678574E+04  0.25659781165E+04  0.90863888323E+03 0.  0.
         23    2    4    4    0    0 -0.37559164906E+03  0.11202855438E+04 -0.15872190644E+04  0.19807792870E+04  0.90074629445E+02 0.  0.
         23    2    4    4    0    0  0.29319101167E+03  0.73683853566E+02 -0.49274879298E+03  0.58519882959E+03  0.90917641695E+02 0.  0.
          2    1    3    3  502    0  0.24060386075E+02 -0.31088447219E+03  0.94930144560E+02  0.32594445780E+03  0.00000000000E+00 0. -1.
         -1    1    3    3    0  502  0.58340251322E+02 -0.88308492514E+03  0.12960253865E+03  0.89444920927E+03  0.00000000000E+00 0.  1.
         11    1    5    5    0    0 -0.13042899187E+03  0.27064160184E+03 -0.42074415566E+03  0.51699539949E+03  0.00000000000E+00 0. -1.
        -11    1    5    5    0    0 -0.24516265719E+03  0.84964394192E+03 -0.11664749087E+04  0.14637838875E+04  0.00000000000E+00 0.  1.
          3    1    6    6  503    0  0.55795310759E+02  0.33343999841E+01 -0.38561453894E+02  0.67905969195E+02  0.00000000000E+00 0.  1.
         -3    1    6    6    0  503  0.23739570091E+03  0.70349453582E+02 -0.45418733908E+03  0.51729286039E+03  0.00000000000E+00 0. -1.
<mgrwt>
<rscale>  0 0.33006017E+04</rscale>
<asrwt>0</asrwt>
<pdfrwt beam="1">  1        2 0.43398514E+00 0.33006017E+04</pdfrwt>
<pdfrwt beam="2">  1       -1 0.14853359E+00 0.33006017E+04</pdfrwt>
<totfact> 0.76295369E-01</totfact>
</mgrwt>
</event>
<event>
12    6  0.1611689E-007  0.1155438E+04  0.7818608E-02  0.9152781E-01
         -1   -1    0    0    0  501 -0.00000000000E+00  0.00000000000E+00  0.27539390797E+03  0.27539390797E+03  0.00000000000E+00 0.  1.
          2   -1    0    0  501    0  0.00000000000E+00 -0.00000000000E+00 -0.12119345175E+04  0.12119345175E+04  0.00000000000E+00 0. -1.
         24    2    1    2    0    0 -0.16478709978E+03  0.87719835620E+02 -0.51064047183E+02  0.21029103438E+03  0.82250984247E+02 0.  0.
        254    2    1    2    0    0  0.16478709978E+03 -0.87719835620E+02 -0.88547656232E+03  0.12770373911E+04  0.90105837655E+03 0.  0.
         23    2    4    4    0    0  0.34247790408E+03 -0.40588334955E+03 -0.44510431327E+03  0.69821190856E+03  0.85729874208E+02 0.  0.
         23    2    4    4    0    0 -0.17769080430E+03  0.31816351393E+03 -0.44037224905E+03  0.57882548251E+03  0.91154692336E+02 0.  0.
          2    1    3    3  502    0 -0.10158565262E+03  0.60272009344E+02 -0.71928542075E+02  0.13829705382E+03  0.00000000000E+00 0. -1.
         -1    1    3    3    0  502 -0.63201447156E+02  0.27447826276E+02  0.20864494891E+02  0.71993980561E+02  0.00000000000E+00 0.  1.
         11    1    5    5    0    0  0.11186033267E+03 -0.18541140988E+03 -0.21234128519E+03  0.30328030984E+03  0.00000000000E+00 0. -1.
        -11    1    5    5    0    0  0.23061757141E+03 -0.22047193967E+03 -0.23276302808E+03  0.39493159872E+03  0.00000000000E+00 0.  1.
          2    1    6    6  503    0 -0.14489641341E+01  0.51623090794E+02 -0.33836264743E+02  0.61740876346E+02  0.00000000000E+00 0. -1.
         -2    1    6    6    0  503 -0.17624184017E+03  0.26654042314E+03 -0.40653598431E+03  0.51708460616E+03  0.00000000000E+00 0.  1.
<mgrwt>
<rscale>  0 0.11554382E+04</rscale>
<asrwt>0</asrwt>
<pdfrwt beam="1">  1        2 0.18645147E+00 0.11554382E+04</pdfrwt>
<pdfrwt beam="2">  1       -1 0.42368293E-01 0.11554382E+04</pdfrwt>
<totfact> 0.11507130E+02</totfact>
</mgrwt>
</event>
<event>
12    6  0.1611689E-007  0.1561306E+04  0.7818608E-02  0.8844678E-01
         -1   -1    0    0    0  501 -0.00000000000E+00  0.00000000000E+00  0.34191974688E+03  0.34191974688E+03  0.00000000000E+00 0.  1.
          2   -1    0    0  501    0  0.00000000000E+00 -0.00000000000E+00 -0.17823461567E+04  0.17823461567E+04  0.00000000000E+00 0. -1.
         24    2    1    2    0    0  0.49629238654E+03  0.29458648091E+03 -0.68340478604E+03  0.89811597437E+03  0.80516297549E+02 0.  0.
        254    2    1    2    0    0 -0.49629238654E+03 -0.29458648091E+03 -0.75702162381E+03  0.12261499292E+04  0.77283541738E+03 0.  0.
         23    2    4    4    0    0 -0.29754807422E+03 -0.95162080459E+02  0.82769905939E+02  0.33576057738E+03  0.91069368958E+02 0.  0.
         23    2    4    4    0    0 -0.19874431231E+03 -0.19942440045E+03 -0.83979152975E+03  0.89038935185E+03  0.90961482358E+02 0.  0.
          2    1    3    3  502    0  0.13733111330E+03  0.44497525388E+02 -0.19134784669E+03  0.23969535431E+03  0.00000000000E+00 0. -1.
         -1    1    3    3    0  502  0.35896127323E+03  0.25008895553E+03 -0.49205693935E+03  0.65842062006E+03  0.00000000000E+00 0.  1.
         11    1    5    5    0    0 -0.11368780412E+03  0.76575944756E+01  0.40320217855E+02  0.12086883604E+03  0.00000000000E+00 0.  1.
        -11    1    5    5    0    0 -0.18386027010E+03 -0.10281967493E+03  0.42449688083E+02  0.21489174134E+03  0.00000000000E+00 0. -1.
          2    1    6    6  503    0 -0.15372476021E+03 -0.15237561061E+03 -0.74180803491E+03  0.77274108812E+03  0.00000000000E+00 0. -1.
         -2    1    6    6    0  503 -0.45019552107E+02 -0.47048789845E+02 -0.97983494840E+02  0.11764826373E+03  0.00000000000E+00 0.  1.
<mgrwt>
<rscale>  0 0.15613063E+04</rscale>
<asrwt>0</asrwt>
<pdfrwt beam="1">  1        2 0.27420710E+00 0.15613063E+04</pdfrwt>
<pdfrwt beam="2">  1       -1 0.52603038E-01 0.15613063E+04</pdfrwt>
<totfact> 0.35215017E+01</totfact>
</mgrwt>
</event>
<event>
12    6  0.1611689E-007  0.1431708E+04  0.7818608E-02  0.8931181E-01
          2   -1    0    0  501    0  0.00000000000E+00  0.00000000000E+00  0.14907022829E+04  0.14907022829E+04  0.00000000000E+00 0. -1.
         -1   -1    0    0    0  501 -0.00000000000E+00 -0.00000000000E+00 -0.34376190129E+03  0.34376190129E+03  0.00000000000E+00 0.  1.
         24    2    1    2    0    0  0.33065560316E+02  0.80016197977E+02  0.88933189261E+03  0.89754925199E+03  0.84779250483E+02 0.  0.
        254    2    1    2    0    0 -0.33065560316E+02 -0.80016197977E+02  0.25760848900E+03  0.93691493219E+03  0.89663344425E+03 0.  0.
         23    2    4    4    0    0 -0.12593062693E+03 -0.42846880631E+03  0.32314438530E+03  0.55890932048E+03  0.92267513176E+02 0.  0.
         23    2    4    4    0    0  0.92865066614E+02  0.34845260834E+03 -0.65535896300E+02  0.37800561171E+03  0.92467009943E+02 0.  0.
          2    1    3    3  502    0 -0.26302292467E+02  0.32349327689E+02  0.42218485630E+03  0.42423854432E+03  0.00000000000E+00 0. -1.
         -1    1    3    3    0  502  0.59367852782E+02  0.47666870288E+02  0.46714703631E+03  0.47331070768E+03  0.00000000000E+00 0.  1.
         11    1    5    5    0    0 -0.11651519822E+03 -0.38933529028E+03  0.32224051396E+03  0.51864892607E+03  0.00000000000E+00 0.  1.
        -11    1    5    5    0    0 -0.94154287142E+01 -0.39133516036E+02  0.90387133961E+00  0.40260394417E+02  0.00000000000E+00 0. -1.
          3    1    6    6  503    0  0.52781874567E+02  0.20194245806E+03  0.87694185967E+01  0.20891047210E+03  0.00000000000E+00 0. -1.
         -3    1    6    6    0  503  0.40083192047E+02  0.14651015028E+03 -0.74305314897E+02  0.16909513962E+03  0.00000000000E+00 0.  1.
<mgrwt>
<rscale>  0 0.14317076E+04</rscale>
<asrwt>0</asrwt>
<pdfrwt beam="1">  1        2 0.22933881E+00 0.14317076E+04</pdfrwt>
<pdfrwt beam="2">  1       -1 0.52886447E-01 0.14317076E+04</pdfrwt>
<totfact> 0.51239891E+01</totfact>
</mgrwt>
</event>
<event>
12    6  0.1611689E-007  0.1689194E+04  0.7818608E-02  0.8767551E-01
         -1   -1    0    0    0  501 -0.00000000000E+00  0.00000000000E+00  0.35020600917E+03  0.35020600917E+03  0.00000000000E+00 0.  1.
          2   -1    0    0  501    0  0.00000000000E+00 -0.00000000000E+00 -0.20369274960E+04  0.20369274960E+04  0.00000000000E+00 0. -1.
         24    2    1    2    0    0  0.31069462575E+03 -0.25071841050E+03 -0.12343404697E+04  0.12997806355E+04  0.80264770612E+02 0.  0.
        254    2    1    2    0    0 -0.31069462575E+03  0.25071841050E+03 -0.45238101712E+03  0.10873528697E+04  0.90459759380E+03 0.  0.
         23    2    4    4    0    0 -0.14654072181E+03 -0.23288322703E+03 -0.48783984379E+03  0.56738417892E+03  0.90710047523E+02 0.  0.
         23    2    4    4    0    0 -0.16415390394E+03  0.48360163752E+03  0.35458826667E+02  0.51996869076E+03  0.91066256019E+02 0.  0.
          4    1    3    3  502    0  0.23707922147E+03 -0.17292069388E+03 -0.99916433844E+03  0.10413632886E+04  0.00000000000E+00 0. -1.
         -3    1    3    3    0  502  0.73615404279E+02 -0.77797716616E+02 -0.23517613131E+03  0.25841734693E+03  0.00000000000E+00 0.  1.
         11    1    5    5    0    0 -0.14917084210E+03 -0.21840979111E+03 -0.48495824665E+03  0.55239413282E+03  0.00000000000E+00 0.  1.
        -11    1    5    5    0    0  0.26301202881E+01 -0.14473435916E+02 -0.28815971431E+01  0.14990046099E+02  0.00000000000E+00 0. -1.
          2    1    6    6  503    0  0.35231452319E+01  0.30226418908E+01 -0.78697999734E+01  0.91368850242E+01  0.00000000000E+00 0. -1.
         -2    1    6    6    0  503 -0.16767704917E+03  0.48057899563E+03  0.43328626641E+02  0.51083180573E+03  0.00000000000E+00 0.  1.
<mgrwt>
<rscale>  0 0.16891942E+04</rscale>
<asrwt>0</asrwt>
<pdfrwt beam="1">  1        2 0.31337346E+00 0.16891942E+04</pdfrwt>
<pdfrwt beam="2">  1       -1 0.53877848E-01 0.16891942E+04</pdfrwt>
<totfact> 0.24038779E+01</totfact>
</mgrwt>
</event>
<event>
12    6  0.1611689E-007  0.2174237E+04  0.7818608E-02  0.8529228E-01
          2   -1    0    0  501    0  0.00000000000E+00  0.00000000000E+00  0.87056742802E+03  0.87056742802E+03  0.00000000000E+00 0. -1.
         -1   -1    0    0    0  501 -0.00000000000E+00 -0.00000000000E+00 -0.13575362291E+04  0.13575362291E+04  0.00000000000E+00 0.  1.
         24    2    1    2    0    0 -0.69614130946E+03 -0.56295712026E+03 -0.25454538172E+03  0.93465877171E+03  0.85206960900E+02 0.  0.
        254    2    1    2    0    0  0.69614130946E+03  0.56295712026E+03 -0.23242341940E+03  0.12934448854E+04  0.90412697328E+03 0.  0.
         23    2    4    4    0    0  0.28766687506E+03  0.63241913924E+03 -0.43321260022E+03  0.82384568653E+03  0.91336518127E+02 0.  0.
         23    2    4    4    0    0  0.40847443440E+03 -0.69462018973E+02  0.20078918083E+03  0.46959919892E+03  0.92362204647E+02 0.  0.
          2    1    3    3  502    0 -0.69736017898E+03 -0.56029287835E+03 -0.25709774410E+03  0.93077310811E+03  0.00000000000E+00 0. -1.
         -1    1    3    3    0  502  0.12188695192E+01 -0.26642419145E+01  0.25523623833E+01  0.38856636010E+01  0.00000000000E+00 0.  1.
         11    1    5    5    0    0  0.27955327558E+03  0.54225976380E+03 -0.38282116458E+03  0.72024143825E+03  0.00000000000E+00 0. -1.
        -11    1    5    5    0    0  0.81135994843E+01  0.90159375435E+02 -0.50391435640E+02  0.10360424828E+03  0.00000000000E+00 0.  1.
          4    1    6    6  503    0  0.16954814736E+03 -0.14891494543E+02  0.35142829736E+02  0.17379110841E+03  0.00000000000E+00 0.  1.
         -4    1    6    6    0  503  0.23892628704E+03 -0.54570524430E+02  0.16564635109E+03  0.29580809050E+03  0.00000000000E+00 0. -1.
<mgrwt>
<rscale>  0 0.21742372E+04</rscale>
<asrwt>0</asrwt>
<pdfrwt beam="1">  1        2 0.13393345E+00 0.21742372E+04</pdfrwt>
<pdfrwt beam="2">  1       -1 0.20885173E+00 0.21742372E+04</pdfrwt>
<totfact> 0.42003060E+00</totfact>
</mgrwt>
</event>
<event>
12    6  0.1611689E-007  0.3381039E+04  0.7818608E-02  0.8142576E-01
          2   -1    0    0  501    0  0.00000000000E+00  0.00000000000E+00  0.13053228843E+04  0.13053228843E+04  0.00000000000E+00 0. -1.
         -1   -1    0    0    0  501 -0.00000000000E+00 -0.00000000000E+00 -0.21893865326E+04  0.21893865326E+04  0.00000000000E+00 0.  1.
         24    2    1    2    0    0  0.15171721595E+04  0.71546057406E+02 -0.76703928745E+03  0.17034782968E+04  0.80986660916E+02 0.  0.
        254    2    1    2    0    0 -0.15171721595E+04 -0.71546057406E+02 -0.11702436084E+03  0.17912311201E+04  0.94227598114E+03 0.  0.
         23    2    4    4    0    0 -0.33753723077E+03  0.35560150637E+03 -0.18451397139E+03  0.53152960177E+03  0.89969430531E+02 0.  0.
         23    2    4    4    0    0 -0.11796349287E+04 -0.42714756378E+03  0.67489610555E+02  0.12597015183E+04  0.91101379782E+02 0.  0.
          2    1    3    3  502    0  0.30936482467E+02  0.35028469823E+01 -0.29575993657E+02  0.42942697694E+02  0.00000000000E+00 0. -1.
         -1    1    3    3    0  502  0.14862356770E+04  0.68043210424E+02 -0.73746329380E+03  0.16605355991E+04  0.00000000000E+00 0.  1.
         11    1    5    5    0    0 -0.25576900865E+03  0.29642100924E+03 -0.17885755376E+03  0.43043376382E+03  0.00000000000E+00 0.  1.
        -11    1    5    5    0    0 -0.81768222123E+02  0.59180497132E+02 -0.56564176350E+01  0.10109583795E+03  0.00000000000E+00 0. -1.
          2    1    6    6  503    0  0.17044570904E+01 -0.26811836658E-01  0.22224024083E+00  0.17190938230E+01  0.00000000000E+00 0. -1.
         -2    1    6    6    0  503 -0.11813393858E+04 -0.42712075194E+03  0.67267370314E+02  0.12579824245E+04  0.00000000000E+00 0.  1.
<mgrwt>
<rscale>  0 0.33810391E+04</rscale>
<asrwt>0</asrwt>
<pdfrwt beam="1">  1        2 0.20081891E+00 0.33810391E+04</pdfrwt>
<pdfrwt beam="2">  1       -1 0.33682869E+00 0.33810391E+04</pdfrwt>
<totfact> 0.29438238E-01</totfact>
</mgrwt>
</event>
<event>
12    6  0.1611689E-007  0.1746069E+04  0.7818608E-02  0.8735517E-01
         -3   -1    0    0    0  501 -0.00000000000E+00  0.00000000000E+00  0.47760634194E+03  0.47760634194E+03  0.00000000000E+00 0.  1.
          2   -1    0    0  501    0  0.00000000000E+00 -0.00000000000E+00 -0.15958515867E+04  0.15958515867E+04  0.00000000000E+00 0. -1.
         24    2    1    2    0    0 -0.52550757390E+03  0.35057289148E+03 -0.44760273895E+03  0.77948458935E+03  0.90490058337E+02 0.  0.
        254    2    1    2    0    0  0.52550757390E+03 -0.35057289148E+03 -0.67064250576E+03  0.12939733392E+04  0.90859565795E+03 0.  0.
         23    2    4    4    0    0 -0.62191381683E+02  0.23558734288E+02  0.16577237699E+03  0.20108052471E+03  0.92358619138E+02 0.  0.
         23    2    4    4    0    0  0.58769895558E+03 -0.37413162576E+03 -0.83641488275E+03  0.10928928145E+04  0.97264136000E+02 0.  0.
          4    1    3    3  502    0 -0.68258523369E+02  0.19976872951E+02 -0.74749741111E+02  0.10317860855E+03  0.00000000000E+00 0. -1.
         -1    1    3    3    0  502 -0.45724905053E+03  0.33059601852E+03 -0.37285299784E+03  0.67630598081E+03  0.00000000000E+00 0.  1.
         11    1    5    5    0    0 -0.80494432688E+02  0.22612881516E+02  0.16209424822E+03  0.18238761309E+03  0.00000000000E+00 0. -1.
        -11    1    5    5    0    0  0.18303051005E+02  0.94585277193E+00  0.36781287703E+01  0.18692911619E+02  0.00000000000E+00 0.  1.
          3    1    6    6  503    0  0.49722545664E+03 -0.29924691840E+03 -0.74329776784E+03  0.94301296098E+03  0.00000000000E+00 0. -1.
         -3    1    6    6    0  503  0.90473498941E+02 -0.74884707360E+02 -0.93117114917E+02  0.14987985354E+03  0.00000000000E+00 0.  1.
<mgrwt>
<rscale>  0 0.17460685E+04</rscale>
<asrwt>0</asrwt>
<pdfrwt beam="1">  1        2 0.24551563E+00 0.17460685E+04</pdfrwt>
<pdfrwt beam="2">  1       -3 0.73477900E-01 0.17460685E+04</pdfrwt>
<totfact> 0.11911780E+01</totfact>
</mgrwt>
</event>
<event>
12    6  0.1611689E-007  0.1689139E+04  0.7818608E-02  0.8767583E-01
         -1   -1    0    0    0  501 -0.00000000000E+00  0.00000000000E+00  0.36427594705E+03  0.36427594705E+03  0.00000000000E+00 0.  1.
          2   -1    0    0  501    0  0.00000000000E+00 -0.00000000000E+00 -0.19581237032E+04  0.19581237032E+04  0.00000000000E+00 0. -1.
         24    2    1    2    0    0 -0.34330453242E+03 -0.64244799503E+02  0.11639847699E+03  0.37656293255E+03  0.79155798761E+02 0.  0.
        254    2    1    2    0    0  0.34330453242E+03  0.64244799503E+02 -0.17102462332E+04  0.19458367177E+04  0.85985635880E+03 0.  0.
         23    2    4    4    0    0 -0.57128537620E+02  0.34688978589E+03 -0.38291063134E+03  0.52800442813E+03  0.92584724222E+02 0.  0.
         23    2    4    4    0    0  0.40043307004E+03 -0.28264498639E+03 -0.13273356018E+04  0.14178322896E+04  0.90519443551E+02 0.  0.
          2    1    3    3  502    0 -0.20309849570E+03 -0.53051490507E+01  0.42916512025E+02  0.20765107889E+03  0.00000000000E+00 0. -1.
         -1    1    3    3    0  502 -0.14020603673E+03 -0.58939650452E+02  0.73481964970E+02  0.16891185366E+03  0.00000000000E+00 0.  1.
         11    1    5    5    0    0  0.80951433000E+01  0.22564895653E+03 -0.23235880981E+03  0.32399629538E+03  0.00000000000E+00 0.  1.
        -11    1    5    5    0    0 -0.65223680920E+02  0.12124082936E+03 -0.15055182154E+03  0.20400813274E+03  0.00000000000E+00 0. -1.
          1    1    6    6  503    0  0.68635732143E+02 -0.25977399998E+02 -0.28390707886E+03  0.29323867151E+03  0.00000000000E+00 0. -1.
         -1    1    6    6    0  503  0.33179733790E+03 -0.25666758639E+03 -0.10434285230E+04  0.11245936181E+04  0.00000000000E+00 0.  1.
<mgrwt>
<rscale>  0 0.16891387E+04</rscale>
<asrwt>0</asrwt>
<pdfrwt beam="1">  1        2 0.30124980E+00 0.16891387E+04</pdfrwt>
<pdfrwt beam="2">  1       -1 0.56042453E-01 0.16891387E+04</pdfrwt>
<totfact> 0.24632263E+01</totfact>
</mgrwt>
</event>
<event>
12    6  0.1611689E-007  0.1107968E+04  0.7818608E-02  0.9197461E-01
         -3   -1    0    0    0  501 -0.00000000000E+00  0.00000000000E+00  0.62100447630E+03  0.62100447630E+03  0.00000000000E+00 0.  1.
          2   -1    0    0  501    0  0.00000000000E+00 -0.00000000000E+00 -0.49419634927E+03  0.49419634927E+03  0.00000000000E+00 0. -1.
         24    2    1    2    0    0  0.17073443696E+03 -0.87887059404E+02  0.49597765944E+02  0.21384961553E+03  0.79983351382E+02 0.  0.
        254    2    1    2    0    0 -0.17073443696E+03  0.87887059404E+02  0.77210361084E+02  0.90135121005E+03  0.87726745114E+03 0.  0.
         23    2    4    4    0    0 -0.29948260372E+03  0.80713237523E+02  0.41650062310E+03  0.52738021250E+03  0.91938364445E+02 0.  0.
         23    2    4    4    0    0  0.12874816676E+03  0.71738218811E+01 -0.33929026201E+03  0.37397099755E+03  0.90049269550E+02 0.  0.
          2    1    3    3  502    0  0.16336851868E+03 -0.56659901165E+02  0.27985142649E+02  0.17516502364E+03  0.00000000000E+00 0. -1.
         -1    1    3    3    0  502  0.73659182773E+01 -0.31227158239E+02  0.21612623295E+02  0.38684591887E+02  0.00000000000E+00 0.  1.
         11    1    5    5    0    0 -0.30237629275E+03  0.71755723461E+02  0.38654968578E+03  0.49598484436E+03  0.00000000000E+00 0.  1.
        -11    1    5    5    0    0  0.28936890234E+01  0.89575140622E+01  0.29950937319E+02  0.31395368139E+02  0.00000000000E+00 0. -1.
          3    1    6    6  503    0  0.10807141118E+03 -0.79792938184E+01 -0.16241584403E+03  0.19524857345E+03  0.00000000000E+00 0. -1.
         -3    1    6    6    0  503  0.20676755578E+02  0.15153115700E+02 -0.17687441798E+03  0.17872242409E+03  0.00000000000E+00 0.  1.
<mgrwt>
<rscale>  0 0.11079678E+04</rscale>
<asrwt>0</asrwt>
<pdfrwt beam="1">  1        2 0.76030208E-01 0.11079678E+04</pdfrwt>
<pdfrwt beam="2">  1       -3 0.95539150E-01 0.11079678E+04</pdfrwt>
<totfact> 0.37908139E+01</totfact>
</mgrwt>
</event>
<event>
12    6  0.1611689E-007  0.2834747E+04  0.7818608E-02  0.8292561E-01
         -1   -1    0    0    0  501 -0.00000000000E+00  0.00000000000E+00  0.59013531272E+03  0.59013531272E+03  0.00000000000E+00 0.  1.
          2   -1    0    0  501    0  0.00000000000E+00 -0.00000000000E+00 -0.34042155643E+04  0.34042155643E+04  0.00000000000E+00 0. -1.
         24    2    1    2    0    0 -0.21363943596E+03 -0.73468733881E+03 -0.27076098015E+04  0.28147435374E+04  0.78886308716E+02 0.  0.
        254    2    1    2    0    0  0.21363943596E+03  0.73468733881E+03 -0.10647045012E+03  0.11796073397E+04  0.89147642966E+03 0.  0.
         23    2    4    4    0    0  0.30943544783E+03 -0.60926882559E+01 -0.25652196033E+03  0.41235193771E+03  0.91886817188E+02 0.  0.
         23    2    4    4    0    0 -0.95796011870E+02  0.74078002707E+03  0.15005151021E+03  0.76725540196E+03  0.90738479851E+02 0.  0.
          2    1    3    3  502    0 -0.21544101166E+03 -0.73603992402E+03 -0.26997690424E+04  0.28065855557E+04  0.00000000000E+00 0. -1.
         -1    1    3    3    0  502  0.18015756945E+01  0.13525852120E+01 -0.78407591411E+01  0.81579817141E+01  0.00000000000E+00 0.  1.
         11    1    5    5    0    0  0.19781032783E+03 -0.42761597587E+02 -0.18861350328E+03  0.27664514029E+03  0.00000000000E+00 0. -1.
        -11    1    5    5    0    0  0.11162512000E+03  0.36668909331E+02 -0.67908457050E+02  0.13570679742E+03  0.00000000000E+00 0.  1.
          4    1    6    6  503    0 -0.52460833423E+02  0.64407069723E+03  0.12183689491E+03  0.65758910501E+03  0.00000000000E+00 0. -1.
         -4    1    6    6    0  503 -0.43335178448E+02  0.96709329838E+02  0.28214615297E+02  0.10966629694E+03  0.00000000000E+00 0.  1.
<mgrwt>
<rscale>  0 0.28347471E+04</rscale>
<asrwt>0</asrwt>
<pdfrwt beam="1">  1        2 0.52372546E+00 0.28347471E+04</pdfrwt>
<pdfrwt beam="2">  1       -1 0.90790051E-01 0.28347471E+04</pdfrwt>
<totfact> 0.11060751E+00</totfact>
</mgrwt>
</event>
<event>
12    6  0.1611689E-007  0.3416591E+04  0.7818608E-02  0.8133846E-01
         -1   -1    0    0    0  501 -0.00000000000E+00  0.00000000000E+00  0.12770191011E+04  0.12770191011E+04  0.00000000000E+00 0.  1.
          2   -1    0    0  501    0  0.00000000000E+00 -0.00000000000E+00 -0.22852231698E+04  0.22852231698E+04  0.00000000000E+00 0. -1.
         24    2    1    2    0    0 -0.15848950096E+03 -0.15798384355E+04 -0.43400063998E+03  0.16479657979E+04  0.80164278709E+02 0.  0.
        254    2    1    2    0    0  0.15848950096E+03  0.15798384355E+04 -0.57420342875E+03  0.19142764729E+04  0.90207340776E+03 0.  0.
         23    2    4    4    0    0 -0.18771507341E+03  0.27096217148E+02 -0.16926067247E+03  0.26997024051E+03  0.90904354933E+02 0.  0.
         23    2    4    4    0    0  0.34620457438E+03  0.15527422183E+04 -0.40494275628E+03  0.16443062324E+04  0.94331045290E+02 0.  0.
          2    1    3    3  502    0 -0.93222235578E+02 -0.66499100964E+03 -0.21410657169E+03  0.70480142746E+03  0.00000000000E+00 0. -1.
         -1    1    3    3    0  502 -0.65267265384E+02 -0.91484742583E+03 -0.21989406829E+03  0.94316437048E+03  0.00000000000E+00 0.  1.
         11    1    5    5    0    0 -0.82106143799E+02  0.32946556213E+02 -0.26610906598E+02  0.92385251885E+02  0.00000000000E+00 0. -1.
        -11    1    5    5    0    0 -0.10560892962E+03 -0.58503390655E+01 -0.14264976588E+03  0.17758498863E+03  0.00000000000E+00 0.  1.
          2    1    6    6  503    0  0.23689816260E+02  0.77337184083E+02 -0.66022526137E+00  0.80886855135E+02  0.00000000000E+00 0. -1.
         -2    1    6    6    0  503  0.32251475812E+03  0.14754050342E+04 -0.40428253101E+03  0.15634193772E+04  0.00000000000E+00 0.  1.
<mgrwt>
<rscale>  0 0.34165911E+04</rscale>
<asrwt>0</asrwt>
<pdfrwt beam="1">  1        2 0.35157280E+00 0.34165911E+04</pdfrwt>
<pdfrwt beam="2">  1       -1 0.19646448E+00 0.34165911E+04</pdfrwt>
<totfact> 0.69218671E-01</totfact>
</mgrwt>
</event>
<event>
12    6  0.1611689E-007  0.1863952E+04  0.7818608E-02  0.8673011E-01
          2   -1    0    0  501    0  0.00000000000E+00  0.00000000000E+00  0.87685641662E+03  0.87685641662E+03  0.00000000000E+00 0. -1.
         -1   -1    0    0    0  501 -0.00000000000E+00 -0.00000000000E+00 -0.99056018271E+03  0.99056018271E+03  0.00000000000E+00 0.  1.
         24    2    1    2    0    0 -0.30956728393E+03  0.32337514252E+03 -0.59427753456E+03  0.74821368142E+03  0.79085642904E+02 0.  0.
        254    2    1    2    0    0  0.30956728393E+03 -0.32337514252E+03  0.48057376847E+03  0.11192029179E+04  0.90623431761E+03 0.  0.
         23    2    4    4    0    0 -0.28081732219E+03 -0.25851185537E+03  0.29303836885E+03  0.48983390560E+03  0.91536996057E+02 0.  0.
         23    2    4    4    0    0  0.59038460612E+03 -0.64863287148E+02  0.18753539963E+03  0.62936901230E+03  0.90413485570E+02 0.  0.
          2    1    3    3  502    0 -0.84849072163E+02  0.43136406214E+02 -0.11557251393E+03  0.14972348034E+03  0.00000000000E+00 0. -1.
         -1    1    3    3    0  502 -0.22471821177E+03  0.28023873630E+03 -0.47870502062E+03  0.59849020108E+03  0.00000000000E+00 0.  1.
         11    1    5    5    0    0 -0.11552400698E+03 -0.76392265407E+02  0.15475163779E+03  0.20767677723E+03  0.00000000000E+00 0.  1.
        -11    1    5    5    0    0 -0.16529331521E+03 -0.18211958996E+03  0.13828673106E+03  0.28215712837E+03  0.00000000000E+00 0. -1.
          1    1    6    6  503    0  0.10712259846E+03  0.16112834516E+02  0.56376794003E+02  0.12211968489E+03  0.00000000000E+00 0. -1.
         -1    1    6    6    0  503  0.48326200766E+03 -0.80976121664E+02  0.13115860562E+03  0.50724932741E+03  0.00000000000E+00 0.  1.
<mgrwt>
<rscale>  0 0.18639518E+04</rscale>
<asrwt>0</asrwt>
<pdfrwt beam="1">  1        2 0.13490099E+00 0.18639518E+04</pdfrwt>
<pdfrwt beam="2">  1       -1 0.15239387E+00 0.18639518E+04</pdfrwt>
<totfact> 0.10894651E+01</totfact>
</mgrwt>
</event>
<event>
12    6  0.1611689E-007  0.3834530E+04  0.7818608E-02  0.8038785E-01
         -1   -1    0    0    0  501 -0.00000000000E+00  0.00000000000E+00  0.89343834833E+03  0.89343834833E+03  0.00000000000E+00 0.  1.
          2   -1    0    0  501    0  0.00000000000E+00 -0.00000000000E+00 -0.41143344652E+04  0.41143344652E+04  0.00000000000E+00 0. -1.
         24    2    1    2    0    0  0.75903129049E+03  0.66381072706E+03 -0.34927907525E+04  0.36363117259E+04  0.80015912007E+02 0.  0.
        254    2    1    2    0    0 -0.75903129049E+03 -0.66381072706E+03  0.27189463563E+03  0.13714610876E+04  0.88893511608E+03 0.  0.
         23    2    4    4    0    0  0.19293905209E+03 -0.12396592179E+03  0.47473834183E+02  0.25047784637E+03  0.88838949801E+02 0.  0.
         23    2    4    4    0    0 -0.95197034257E+03 -0.53984480527E+03  0.22442080145E+03  0.11209832412E+04  0.92513696716E+02 0.  0.
          2    1    3    3  502    0  0.60821650595E+03  0.52186069211E+03 -0.28825709296E+04  0.29919025827E+04  0.00000000000E+00 0. -1.
         -1    1    3    3    0  502  0.15081478454E+03  0.14195003496E+03 -0.61021982290E+03  0.64440914326E+03  0.00000000000E+00 0.  1.
         11    1    5    5    0    0  0.18044383497E+03 -0.10803435301E+03  0.68598084031E+02  0.22121730525E+03  0.00000000000E+00 0.  1.
        -11    1    5    5    0    0  0.12495217113E+02 -0.15931568782E+02 -0.21124249848E+02  0.29260541113E+02  0.00000000000E+00 0. -1.
          3    1    6    6  503    0 -0.64266919536E+02 -0.59540344303E+02  0.29467731914E+01  0.87658274103E+02  0.00000000000E+00 0. -1.
         -3    1    6    6    0  503 -0.88770342304E+03 -0.48030446097E+03  0.22147402826E+03  0.10333249671E+04  0.00000000000E+00 0.  1.
<mgrwt>
<rscale>  0 0.38345295E+04</rscale>
<asrwt>0</asrwt>
<pdfrwt beam="1">  1        2 0.63297453E+00 0.38345295E+04</pdfrwt>
<pdfrwt beam="2">  1       -1 0.13745205E+00 0.38345295E+04</pdfrwt>
<totfact> 0.10935161E-01</totfact>
</mgrwt>
</event>
<event>
12    6  0.1611689E-007  0.1349888E+04  0.7818608E-02  0.8990913E-01
         -1   -1    0    0    0  501 -0.00000000000E+00  0.00000000000E+00  0.10305712399E+04  0.10305712399E+04  0.00000000000E+00 0.  1.
          2   -1    0    0  501    0  0.00000000000E+00 -0.00000000000E+00 -0.44203610809E+03  0.44203610809E+03  0.00000000000E+00 0. -1.
         24    2    1    2    0    0 -0.10228265012E+03 -0.34068484224E+03  0.54337518671E+02  0.36868576113E+03  0.80303936875E+02 0.  0.
        254    2    1    2    0    0  0.10228265012E+03  0.34068484224E+03  0.53419761316E+03  0.11039215869E+04  0.89819144831E+03 0.  0.
         23    2    4    4    0    0  0.35049122773E+03  0.52944255693E+03  0.35941864623E+03  0.73528208453E+03  0.91128803137E+02 0.  0.
         23    2    4    4    0    0 -0.24820857761E+03 -0.18875771469E+03  0.17477896693E+03  0.36863950235E+03  0.90057884476E+02 0.  0.
          4    1    3    3  502    0  0.30277250755E+00 -0.29676804228E+02 -0.16015806378E+02  0.33724033482E+02  0.00000000000E+00 0. -1.
         -3    1    3    3    0  502 -0.10258542263E+03 -0.31100803801E+03  0.70353325049E+02  0.33496172765E+03  0.00000000000E+00 0.  1.
         11    1    5    5    0    0  0.77887754360E+02  0.10045472231E+03  0.11448929577E+03  0.17107148319E+03  0.00000000000E+00 0. -1.
        -11    1    5    5    0    0  0.27260347337E+03  0.42898783462E+03  0.24492935046E+03  0.56421060134E+03  0.00000000000E+00 0.  1.
          1    1    6    6  503    0  0.27391629924E+01 -0.83507567421E+01 -0.59479198586E+01  0.10612064017E+02  0.00000000000E+00 0. -1.
         -1    1    6    6    0  503 -0.25094774060E+03 -0.18040695795E+03  0.18072688679E+03  0.35802743833E+03  0.00000000000E+00 0.  1.
<mgrwt>
<rscale>  0 0.13498884E+04</rscale>
<asrwt>0</asrwt>
<pdfrwt beam="1">  1        2 0.68005555E-01 0.13498884E+04</pdfrwt>
<pdfrwt beam="2">  1       -1 0.15854942E+00 0.13498884E+04</pdfrwt>
<totfact> 0.23775651E+01</totfact>
</mgrwt>
</event>
<event>
12    6  0.1611689E-007  0.1780542E+04  0.7818608E-02  0.8716716E-01
         -1   -1    0    0    0  501 -0.00000000000E+00  0.00000000000E+00  0.11581006930E+04  0.11581006930E+04  0.00000000000E+00 0.  1.
          2   -1    0    0  501    0  0.00000000000E+00 -0.00000000000E+00 -0.68438108421E+03  0.68438108421E+03  0.00000000000E+00 0. -1.
         24    2    1    2    0    0 -0.26037239911E+03 -0.39823281279E+03  0.65400147955E+03  0.81274457812E+03  0.80328417203E+02 0.  0.
        254    2    1    2    0    0  0.26037239911E+03  0.39823281279E+03 -0.18028187078E+03  0.10297371991E+04  0.89525079548E+03 0.  0.
         23    2    4    4    0    0  0.33997949464E+03  0.59761452204E+03 -0.31518942623E+03  0.76139711380E+03  0.87475806738E+02 0.  0.
         23    2    4    4    0    0 -0.79607095529E+02 -0.19938170925E+03  0.13490755545E+03  0.26834008527E+03  0.87840749090E+02 0.  0.
          4    1    3    3  502    0 -0.15481953804E+03 -0.19224486415E+03  0.28360974310E+03  0.37598093506E+03  0.00000000000E+00 0. -1.
         -3    1    3    3    0  502 -0.10555286107E+03 -0.20598794864E+03  0.37039173645E+03  0.43676364306E+03  0.00000000000E+00 0.  1.
         11    1    5    5    0    0  0.10166678026E+03  0.11309569296E+03 -0.52047786571E+02  0.16073500571E+03  0.00000000000E+00 0. -1.
        -11    1    5    5    0    0  0.23831271438E+03  0.48451882908E+03 -0.26314163966E+03  0.60066210809E+03  0.00000000000E+00 0.  1.
          3    1    6    6  503    0 -0.74897978570E+02 -0.73393553683E+02  0.48781279615E+02  0.11565437370E+03  0.00000000000E+00 0. -1.
         -3    1    6    6    0  503 -0.47091169598E+01 -0.12598815557E+03  0.86126275835E+02  0.15268571156E+03  0.00000000000E+00 0.  1.
<mgrwt>
<rscale>  0 0.17805417E+04</rscale>
<asrwt>0</asrwt>
<pdfrwt beam="1">  1        2 0.10528940E+00 0.17805417E+04</pdfrwt>
<pdfrwt beam="2">  1       -1 0.17816934E+00 0.17805417E+04</pdfrwt>
<totfact> 0.97644684E+00</totfact>
</mgrwt>
</event>
<event>
12    6  0.1611689E-007  0.1709364E+04  0.7818608E-02  0.8756042E-01
         -1   -1    0    0    0  501 -0.00000000000E+00  0.00000000000E+00  0.36011010922E+03  0.36011010922E+03  0.00000000000E+00 0.  1.
          2   -1    0    0  501    0  0.00000000000E+00 -0.00000000000E+00 -0.20284944694E+04  0.20284944694E+04  0.00000000000E+00 0. -1.
         24    2    1    2    0    0  0.57099895929E+03  0.39715076295E+02 -0.28775558083E+03  0.64520965321E+03  0.76649354184E+02 0.  0.
        254    2    1    2    0    0 -0.57099895929E+03 -0.39715076295E+02 -0.13806287794E+04  0.17433949255E+04  0.89759285916E+03 0.  0.
         23    2    4    4    0    0 -0.51833442606E+03  0.26981973660E+03 -0.41105901867E+03  0.72028992160E+03  0.91513861429E+02 0.  0.
         23    2    4    4    0    0 -0.52664533232E+02 -0.30953481290E+03 -0.96956976072E+03  0.10231050039E+04  0.89960961247E+02 0.  0.
          4    1    3    3  502    0  0.11999664811E+02  0.16018516422E+00 -0.21846186584E+02  0.24925358235E+02  0.00000000000E+00 0. -1.
         -3    1    3    3    0  502  0.55899929448E+03  0.39554891131E+02 -0.26590939425E+03  0.62028429497E+03  0.00000000000E+00 0.  1.
         11    1    5    5    0    0 -0.20072529867E+03  0.57436468967E+02 -0.16116515404E+03  0.26374950308E+03  0.00000000000E+00 0.  1.
        -11    1    5    5    0    0 -0.31760912738E+03  0.21238326764E+03 -0.24989386463E+03  0.45654041853E+03  0.00000000000E+00 0. -1.
          3    1    6    6  503    0 -0.63306195265E+02 -0.28734589291E+03 -0.93806444908E+03  0.98312778781E+03  0.00000000000E+00 0. -1.
         -3    1    6    6    0  503  0.10641662033E+02 -0.22188919994E+02 -0.31505311641E+02  0.39977216047E+02  0.00000000000E+00 0.  1.
<mgrwt>
<rscale>  0 0.17093641E+04</rscale>
<asrwt>0</asrwt>
<pdfrwt beam="1">  1        2 0.31207608E+00 0.17093641E+04</pdfrwt>
<pdfrwt beam="2">  1       -1 0.55401554E-01 0.17093641E+04</pdfrwt>
<totfact> 0.22982546E+01</totfact>
</mgrwt>
</event>
<event>
12    6  0.1611689E-007  0.1489087E+04  0.7818608E-02  0.8891742E-01
         -1   -1    0    0    0  501 -0.00000000000E+00  0.00000000000E+00  0.30074657027E+03  0.30074657027E+03  0.00000000000E+00 0.  1.
          2   -1    0    0  501    0  0.00000000000E+00 -0.00000000000E+00 -0.18432299550E+04  0.18432299550E+04  0.00000000000E+00 0. -1.
         24    2    1    2    0    0  0.25382382426E+03 -0.78745183867E+02  0.64151623001E+02  0.28463402986E+03  0.79207086020E+02 0.  0.
        254    2    1    2    0    0 -0.25382382426E+03  0.78745183867E+02 -0.16066350077E+04  0.18593424954E+04  0.89735786029E+03 0.  0.
         23    2    4    4    0    0  0.14066697172E+03 -0.31404176370E+03 -0.79090611530E+03  0.86737310966E+03  0.91619877004E+02 0.  0.
         23    2    4    4    0    0 -0.39449079598E+03  0.39278694757E+03 -0.81572889239E+03  0.99196938571E+03  0.93193680178E+02 0.  0.
          4    1    3    3  502    0  0.23676471917E+03 -0.50196541491E+02  0.44744803302E+02  0.24612867051E+03  0.00000000000E+00 0. -1.
         -3    1    3    3    0  502  0.17059105083E+02 -0.28548642376E+02  0.19406819699E+02  0.38505359349E+02  0.00000000000E+00 0.  1.
         11    1    5    5    0    0  0.33178409285E+01 -0.76702047573E+01 -0.22600060499E+00  0.83600948391E+01  0.00000000000E+00 0. -1.
        -11    1    5    5    0    0  0.13734913079E+03 -0.30637155894E+03 -0.79068011470E+03  0.85901301482E+03  0.00000000000E+00 0.  1.
          3    1    6    6  503    0 -0.17339355067E+03  0.14346310297E+03 -0.25886253717E+03  0.34301136786E+03  0.00000000000E+00 0.  1.
         -3    1    6    6    0  503 -0.22109724531E+03  0.24932384460E+03 -0.55686635522E+03  0.64895801786E+03  0.00000000000E+00 0. -1.
<mgrwt>
<rscale>  0 0.14890871E+04</rscale>
<asrwt>0</asrwt>
<pdfrwt beam="1">  1        2 0.28357385E+00 0.14890871E+04</pdfrwt>
<pdfrwt beam="2">  1       -1 0.46268702E-01 0.14890871E+04</pdfrwt>
<totfact> 0.41813964E+01</totfact>
</mgrwt>
</event>
<event>
12    6  0.1611689E-007  0.2010301E+04  0.7818608E-02  0.8601820E-01
          2   -1    0    0  501    0  0.00000000000E+00  0.00000000000E+00  0.37233152245E+03  0.37233152245E+03  0.00000000000E+00 0. -1.
         -1   -1    0    0    0  501 -0.00000000000E+00 -0.00000000000E+00 -0.27135171489E+04  0.27135171489E+04  0.00000000000E+00 0.  1.
         24    2    1    2    0    0  0.40395342927E+03  0.68839347760E+03 -0.10127152070E+04  0.12919271238E+04  0.80122715759E+02 0.  0.
        254    2    1    2    0    0 -0.40395342927E+03 -0.68839347760E+03 -0.13284704195E+04  0.17939215476E+04  0.90346937447E+03 0.  0.
         23    2    4    4    0    0 -0.58715027713E+02 -0.45193979271E+03 -0.76976095806E+02  0.47145157567E+03  0.92974395223E+02 0.  0.
         23    2    4    4    0    0 -0.34523840156E+03 -0.23645368489E+03 -0.12514943237E+04  0.13224699719E+04  0.87114209772E+02 0.  0.
          4    1    3    3  502    0  0.24606212912E+03  0.46328161972E+03 -0.61365459809E+03  0.80730935602E+03  0.00000000000E+00 0. -1.
         -3    1    3    3    0  502  0.15789130014E+03  0.22511185788E+03 -0.39906060892E+03  0.48461776774E+03  0.00000000000E+00 0.  1.
         11    1    5    5    0    0 -0.65516867121E+02 -0.17154339442E+03 -0.15252048027E+02  0.18426128463E+03  0.00000000000E+00 0. -1.
        -11    1    5    5    0    0  0.68018394076E+01 -0.28039639829E+03 -0.61724047779E+02  0.28719029104E+03  0.00000000000E+00 0.  1.
          1    1    6    6  503    0 -0.27045815176E+03 -0.22412403378E+03 -0.10074282453E+04  0.10669071486E+04  0.00000000000E+00 0. -1.
         -1    1    6    6    0  503 -0.74780249793E+02 -0.12329651111E+02 -0.24406607834E+03  0.25556282330E+03  0.00000000000E+00 0.  1.
<mgrwt>
<rscale>  0 0.20103014E+04</rscale>
<asrwt>0</asrwt>
<pdfrwt beam="1">  1        2 0.57281775E-01 0.20103014E+04</pdfrwt>
<pdfrwt beam="2">  1       -1 0.41746416E+00 0.20103014E+04</pdfrwt>
<totfact> 0.49732142E-01</totfact>
</mgrwt>
</event>
<event>
12    6  0.1611689E-007  0.2701285E+04  0.7818608E-02  0.8334588E-01
          2   -1    0    0  501    0  0.00000000000E+00  0.00000000000E+00  0.24213213137E+04  0.24213213137E+04  0.00000000000E+00 0. -1.
         -1   -1    0    0    0  501 -0.00000000000E+00 -0.00000000000E+00 -0.75340509297E+03  0.75340509297E+03  0.00000000000E+00 0.  1.
         24    2    1    2    0    0 -0.85479695087E+03 -0.64742774867E+03  0.10767514115E+03  0.10805698885E+04  0.78719952493E+02 0.  0.
        254    2    1    2    0    0  0.85479695087E+03  0.64742774867E+03  0.15602410796E+04  0.20941565182E+04  0.89515293627E+03 0.  0.
         23    2    4    4    0    0  0.79591370080E+03  0.80681187627E+03  0.10460155332E+04  0.15449046653E+04  0.90321128946E+02 0.  0.
         23    2    4    4    0    0  0.58883250071E+02 -0.15938412760E+03  0.51422554638E+03  0.54925185290E+03  0.91537686725E+02 0.  0.
          4    1    3    3  502    0 -0.34501843189E+02 -0.17276944378E+02 -0.89804211435E+01  0.39617142178E+02  0.00000000000E+00 0. -1.
         -3    1    3    3    0  502 -0.82029510769E+03 -0.63015080429E+03  0.11665556230E+03  0.10409527463E+04  0.00000000000E+00 0.  1.
         11    1    5    5    0    0  0.21948177688E+03  0.26821563778E+03  0.28387962701E+03  0.44799500149E+03  0.00000000000E+00 0.  1.
        -11    1    5    5    0    0  0.57643192392E+03  0.53859623850E+03  0.76213590621E+03  0.10969096638E+04  0.00000000000E+00 0. -1.
          1    1    6    6  503    0  0.35532589836E+02 -0.30085209774E+02  0.57409135665E+02  0.73915449302E+02  0.00000000000E+00 0. -1.
         -1    1    6    6    0  503  0.23350660235E+02 -0.12929891783E+03  0.45681641072E+03  0.47533640360E+03  0.00000000000E+00 0.  1.
<mgrwt>
<rscale>  0 0.27012855E+04</rscale>
<asrwt>0</asrwt>
<pdfrwt beam="1">  1        2 0.37251097E+00 0.27012855E+04</pdfrwt>
<pdfrwt beam="2">  1       -1 0.11590848E+00 0.27012855E+04</pdfrwt>
<totfact> 0.25959847E+00</totfact>
</mgrwt>
</event>
<event>
12    6  0.1611689E-007  0.1643444E+04  0.7818608E-02  0.8794295E-01
         -1   -1    0    0    0  501 -0.00000000000E+00  0.00000000000E+00  0.15451535483E+04  0.15451535483E+04  0.00000000000E+00 0.  1.
          2   -1    0    0  501    0  0.00000000000E+00 -0.00000000000E+00 -0.43699655868E+03  0.43699655868E+03  0.00000000000E+00 0. -1.
         24    2    1    2    0    0  0.42952177566E+02 -0.12363846147E+03 -0.28546156638E+03  0.32398879518E+03  0.79681081885E+02 0.  0.
        254    2    1    2    0    0 -0.42952177566E+02  0.12363846147E+03  0.13936185560E+04  0.16581613118E+04  0.88892907343E+03 0.  0.
         23    2    4    4    0    0 -0.10785083947E+03  0.48998619138E+03  0.70134447031E+03  0.86697135805E+03  0.89649307444E+02 0.  0.
         23    2    4    4    0    0  0.64898661908E+02 -0.36634772991E+03  0.69227408565E+03  0.79118995372E+03  0.91190118270E+02 0.  0.
          4    1    3    3  502    0  0.44114962604E+02 -0.93757241552E+02 -0.27224045184E+03  0.29129266020E+03  0.00000000000E+00 0. -1.
         -3    1    3    3    0  502 -0.11627850380E+01 -0.29881219920E+02 -0.13221114538E+02  0.32696134979E+02  0.00000000000E+00 0.  1.
         11    1    5    5    0    0 -0.10384511668E+03  0.32356742036E+03  0.42234720443E+03  0.54208564348E+03  0.00000000000E+00 0.  1.
        -11    1    5    5    0    0 -0.40057227905E+01  0.16641877102E+03  0.27899726587E+03  0.32488571456E+03  0.00000000000E+00 0. -1.
          2    1    6    6  503    0 -0.16859100754E+02 -0.21952649472E+02  0.34577825198E+02  0.44291919043E+02  0.00000000000E+00 0. -1.
         -2    1    6    6    0  503  0.81757762661E+02 -0.34439508043E+03  0.65769626045E+03  0.74689803467E+03  0.00000000000E+00 0.  1.
<mgrwt>
<rscale>  0 0.16434437E+04</rscale>
<asrwt>0</asrwt>
<pdfrwt beam="1">  1        2 0.67230240E-01 0.16434437E+04</pdfrwt>
<pdfrwt beam="2">  1       -1 0.23771593E+00 0.16434437E+04</pdfrwt>
<totfact> 0.65973761E+00</totfact>
</mgrwt>
</event>
<event>
12    6  0.1611689E-007  0.1260252E+04  0.7818608E-02  0.9061694E-01
         -3   -1    0    0    0  501 -0.00000000000E+00  0.00000000000E+00  0.33120123814E+03  0.33120123814E+03  0.00000000000E+00 0.  1.
          4   -1    0    0  501    0  0.00000000000E+00 -0.00000000000E+00 -0.11988441476E+04  0.11988441476E+04  0.00000000000E+00 0. -1.
         24    2    1    2    0    0  0.34686008306E+02 -0.13216818386E+03  0.11016714398E+03  0.19277763060E+03  0.79717421244E+02 0.  0.
        254    2    1    2    0    0 -0.34686008306E+02  0.13216818386E+03 -0.97781005342E+03  0.13372677551E+04  0.90194290303E+03 0.  0.
         23    2    4    4    0    0 -0.44807179922E+02 -0.13987047831E+03  0.11471043774E+03  0.20733683625E+03  0.90877087676E+02 0.  0.
         23    2    4    4    0    0  0.10121171616E+02  0.27203866217E+03 -0.10925204912E+04  0.11299309189E+04  0.95054647513E+02 0.  0.
          4    1    3    3  502    0  0.46087171593E+02 -0.13105836374E+03  0.79553083952E+02  0.16009064701E+03  0.00000000000E+00 0. -1.
         -3    1    3    3    0  502 -0.11401163287E+02 -0.11098201136E+01  0.30614060025E+02  0.32686983589E+02  0.00000000000E+00 0.  1.
         11    1    5    5    0    0 -0.39568201966E+02 -0.19143672161E+02  0.52093152770E+01  0.44263526253E+02  0.00000000000E+00 0. -1.
        -11    1    5    5    0    0 -0.52389779553E+01 -0.12072680615E+03  0.10950112246E+03  0.16307330999E+03  0.00000000000E+00 0.  1.
          2    1    6    6  503    0 -0.19466849052E+02  0.24658293081E+03 -0.98373471999E+03  0.10143550164E+04  0.00000000000E+00 0.  1.
         -2    1    6    6    0  503  0.29588020669E+02  0.25455731359E+02 -0.10878577117E+03  0.11557590249E+03  0.00000000000E+00 0. -1.
<mgrwt>
<rscale>  0 0.12602518E+04</rscale>
<asrwt>0</asrwt>
<pdfrwt beam="1">  1        4 0.18443756E+00 0.12602518E+04</pdfrwt>
<pdfrwt beam="2">  1       -3 0.50954036E-01 0.12602518E+04</pdfrwt>
<totfact> 0.14362998E+00</totfact>
</mgrwt>
</event>
<event>
12    6  0.1611689E-007  0.1808986E+04  0.7818608E-02  0.8701535E-01
          2   -1    0    0  501    0  0.00000000000E+00  0.00000000000E+00  0.94260798920E+03  0.94260798920E+03  0.00000000000E+00 0. -1.
         -1   -1    0    0    0  501 -0.00000000000E+00 -0.00000000000E+00 -0.86791898810E+03  0.86791898810E+03  0.00000000000E+00 0.  1.
         24    2    1    2    0    0  0.14006991891E+03 -0.23876817814E+02  0.69303276272E+03  0.71208947767E+03  0.81162364323E+02 0.  0.
        254    2    1    2    0    0 -0.14006991891E+03  0.23876817814E+02 -0.61834376162E+03  0.10984374996E+04  0.89667510753E+03 0.  0.
         23    2    4    4    0    0  0.27679128874E+03 -0.26357046672E+03 -0.25969269423E+03  0.47132504825E+03  0.92866555989E+02 0.  0.
         23    2    4    4    0    0 -0.41686120766E+03  0.28744728453E+03 -0.35865106740E+03  0.62711245139E+03  0.90775716554E+02 0.  0.
          2    1    3    3  502    0  0.13453336395E+03 -0.43566389930E+02  0.56468963510E+03  0.58212682496E+03  0.00000000000E+00 0. -1.
         -1    1    3    3    0  502  0.55365549668E+01  0.19689572116E+02  0.12834312762E+03  0.12996265271E+03  0.00000000000E+00 0.  1.
         11    1    5    5    0    0  0.18855930802E+03 -0.22432334114E+03 -0.22209049981E+03  0.36769520547E+03  0.00000000000E+00 0. -1.
        -11    1    5    5    0    0  0.88231980727E+02 -0.39247125576E+02 -0.37602194417E+02  0.10362984278E+03  0.00000000000E+00 0.  1.
          3    1    6    6  503    0 -0.35857808131E+03  0.27332504016E+03 -0.33867903548E+03  0.56390451944E+03  0.00000000000E+00 0. -1.
         -3    1    6    6    0  503 -0.58283126345E+02  0.14122244372E+02 -0.19972031918E+02  0.63207931952E+02  0.00000000000E+00 0.  1.
<mgrwt>
<rscale>  0 0.18089858E+04</rscale>
<asrwt>0</asrwt>
<pdfrwt beam="1">  1        2 0.14501661E+00 0.18089858E+04</pdfrwt>
<pdfrwt beam="2">  1       -1 0.13352600E+00 0.18089858E+04</pdfrwt>
<totfact> 0.14004593E+01</totfact>
</mgrwt>
</event>
<event>
12    6  0.1611689E-007  0.1522613E+04  0.7818608E-02  0.8869553E-01
         -1   -1    0    0    0  501 -0.00000000000E+00  0.00000000000E+00  0.39167266528E+03  0.39167266528E+03  0.00000000000E+00 0.  1.
          2   -1    0    0  501    0  0.00000000000E+00 -0.00000000000E+00 -0.14797759865E+04  0.14797759865E+04  0.00000000000E+00 0. -1.
         24    2    1    2    0    0 -0.59474591485E+02  0.25102234656E+03 -0.87291591028E+03  0.91326345332E+03  0.74286629009E+02 0.  0.
        254    2    1    2    0    0  0.59474591485E+02 -0.25102234656E+03 -0.21518741092E+03  0.95818519843E+03  0.89736492419E+03 0.  0.
         23    2    4    4    0    0  0.25803180941E+03  0.68089709298E+02  0.23337082094E+03  0.36593296568E+03  0.90710374956E+02 0.  0.
         23    2    4    4    0    0 -0.19855721793E+03 -0.31911205585E+03 -0.44855823187E+03  0.59225223275E+03  0.91108434520E+02 0.  0.
          4    1    3    3  502    0 -0.23268610149E+02  0.17427936364E+03 -0.47743777429E+03  0.50878438766E+03  0.00000000000E+00 0. -1.
         -3    1    3    3    0  502 -0.36205981336E+02  0.76742982919E+02 -0.39547813599E+03  0.40447906566E+03  0.00000000000E+00 0.  1.
         11    1    5    5    0    0  0.28543181121E+02  0.17471398501E+02 -0.17399746111E+01  0.33511049905E+02  0.00000000000E+00 0. -1.
        -11    1    5    5    0    0  0.22948862829E+03  0.50618310796E+02  0.23511079555E+03  0.33242191578E+03  0.00000000000E+00 0.  1.
          3    1    6    6  503    0 -0.37499381229E+02 -0.11041413381E+02 -0.46315109471E+02  0.60606977877E+02  0.00000000000E+00 0. -1.
         -3    1    6    6    0  503 -0.16105783670E+03 -0.30807064247E+03 -0.40224312239E+03  0.53164525487E+03  0.00000000000E+00 0.  1.
<mgrwt>
<rscale>  0 0.15226133E+04</rscale>
<asrwt>0</asrwt>
<pdfrwt beam="1">  1        2 0.22765784E+00 0.15226133E+04</pdfrwt>
<pdfrwt beam="2">  1       -1 0.60257334E-01 0.15226133E+04</pdfrwt>
<totfact> 0.40003762E+01</totfact>
</mgrwt>
</event>
<event>
12    6  0.1611689E-007  0.1420067E+04  0.7818608E-02  0.8939420E-01
         -1   -1    0    0    0  501 -0.00000000000E+00  0.00000000000E+00  0.32355661475E+03  0.32355661475E+03  0.00000000000E+00 0.  1.
          2   -1    0    0  501    0  0.00000000000E+00 -0.00000000000E+00 -0.15581430989E+04  0.15581430989E+04  0.00000000000E+00 0. -1.
         24    2    1    2    0    0  0.28047610077E+03  0.30204661702E+03 -0.29270549184E+03  0.51212009517E+03  0.81801497336E+02 0.  0.
        254    2    1    2    0    0 -0.28047610077E+03 -0.30204661702E+03 -0.94188099230E+03  0.13695796185E+04  0.90482568802E+03 0.  0.
         23    2    4    4    0    0 -0.52088807742E+03 -0.17206242931E+03 -0.23022109123E+03  0.60167514487E+03  0.89896386625E+02 0.  0.
         23    2    4    4    0    0  0.24041197665E+03 -0.12998418771E+03 -0.71165990107E+03  0.76790447360E+03  0.92323660017E+02 0.  0.
          4    1    3    3  502    0  0.63857462453E+01 -0.49782012140E+01 -0.23281738938E+01  0.84250006598E+01  0.00000000000E+00 0. -1.
         -3    1    3    3    0  502  0.27409035452E+03  0.30702481824E+03 -0.29037731795E+03  0.50369509451E+03  0.00000000000E+00 0.  1.
         11    1    5    5    0    0 -0.20776750478E+03 -0.32302206131E+02 -0.58869679541E+02  0.21834927922E+03  0.00000000000E+00 0.  1.
        -11    1    5    5    0    0 -0.31312057264E+03 -0.13976022318E+03 -0.17135141169E+03  0.38332586565E+03  0.00000000000E+00 0. -1.
          4    1    6    6  503    0  0.14107264375E+03 -0.32055303658E+02 -0.42824856131E+03  0.45202418472E+03  0.00000000000E+00 0. -1.
         -4    1    6    6    0  503  0.99339332901E+02 -0.97928884056E+02 -0.28341133976E+03  0.31588028887E+03  0.00000000000E+00 0.  1.
<mgrwt>
<rscale>  0 0.14200669E+04</rscale>
<asrwt>0</asrwt>
<pdfrwt beam="1">  1        2 0.23971432E+00 0.14200669E+04</pdfrwt>
<pdfrwt beam="2">  1       -1 0.49777941E-01 0.14200669E+04</pdfrwt>
<totfact> 0.52762830E+01</totfact>
</mgrwt>
</event>
<event>
12    6  0.1611689E-007  0.1824714E+04  0.7818608E-02  0.8693266E-01
         -1   -1    0    0    0  501 -0.00000000000E+00  0.00000000000E+00  0.10618943457E+04  0.10618943457E+04  0.00000000000E+00 0.  1.
          2   -1    0    0  501    0  0.00000000000E+00 -0.00000000000E+00 -0.78387747572E+03  0.78387747572E+03  0.00000000000E+00 0. -1.
         24    2    1    2    0    0  0.44286795209E+03 -0.50034495055E+03  0.26123861724E+03  0.72177377260E+03  0.78959933764E+02 0.  0.
        254    2    1    2    0    0 -0.44286795209E+03  0.50034495055E+03  0.16778252760E+02  0.11239980488E+04  0.90366642712E+03 0.  0.
         23    2    4    4    0    0 -0.42087849623E+03  0.44462012534E+03  0.39190265894E+03  0.73325917703E+03  0.96205832290E+02 0.  0.
         23    2    4    4    0    0 -0.21989455865E+02  0.55724825202E+02 -0.37512440618E+03  0.39073887181E+03  0.91486357007E+02 0.  0.
          2    1    3    3  502    0  0.16700238984E+03 -0.18219589726E+03  0.13773339508E+03  0.28294103858E+03  0.00000000000E+00 0. -1.
         -1    1    3    3    0  502  0.27586556225E+03 -0.31814905329E+03  0.12350522216E+03  0.43883273402E+03  0.00000000000E+00 0.  1.
         11    1    5    5    0    0 -0.22576151220E+03  0.17131745631E+03  0.16423849333E+03  0.32755490214E+03  0.00000000000E+00 0.  1.
        -11    1    5    5    0    0 -0.19511698403E+03  0.27330266904E+03  0.22766416561E+03  0.40570427489E+03  0.00000000000E+00 0. -1.
          2    1    6    6  503    0 -0.50841208073E+02  0.58984816437E+02 -0.30622895422E+03  0.31597501391E+03  0.00000000000E+00 0. -1.
         -2    1    6    6    0  503  0.28851752208E+02 -0.32599912351E+01 -0.68895451957E+02  0.74763857904E+02  0.00000000000E+00 0.  1.
<mgrwt>
<rscale>  0 0.18247137E+04</rscale>
<asrwt>0</asrwt>
<pdfrwt beam="1">  1        2 0.12059653E+00 0.18247137E+04</pdfrwt>
<pdfrwt beam="2">  1       -1 0.16336836E+00 0.18247137E+04</pdfrwt>
<totfact> 0.10491488E+01</totfact>
</mgrwt>
</event>
<event>
12    6  0.1611689E-007  0.1085806E+04  0.7818608E-02  0.9219138E-01
         -1   -1    0    0    0  501 -0.00000000000E+00  0.00000000000E+00  0.82897548040E+02  0.82897548040E+02  0.00000000000E+00 0.  1.
          2   -1    0    0  501    0  0.00000000000E+00 -0.00000000000E+00 -0.35555188235E+04  0.35555188235E+04  0.00000000000E+00 0. -1.
         24    2    1    2    0    0 -0.86415276828E+02 -0.28736036412E+02 -0.96023367471E+03  0.96798814837E+03  0.81602607125E+02 0.  0.
        254    2    1    2    0    0  0.86415276828E+02  0.28736036412E+02 -0.25123876008E+04  0.26704282232E+04  0.90044548910E+03 0.  0.
         23    2    4    4    0    0  0.19786015379E+03 -0.38581312282E+02 -0.81606841182E+02  0.23445409311E+03  0.87589309476E+02 0.  0.
         23    2    4    4    0    0 -0.11144487696E+03  0.67317348693E+02 -0.24307807596E+04  0.24359741301E+04  0.91231985445E+02 0.  0.
          4    1    3    3  502    0 -0.96499148990E+02 -0.52333553239E+01 -0.77176734395E+03  0.77779451461E+03  0.00000000000E+00 0. -1.
         -3    1    3    3    0  502  0.10083872162E+02 -0.23502681088E+02 -0.18846633075E+03  0.19019363376E+03  0.00000000000E+00 0.  1.
         11    1    5    5    0    0  0.10585777070E+03  0.49044190698E+01 -0.32514783735E+01  0.10602119154E+03  0.00000000000E+00 0.  1.
        -11    1    5    5    0    0  0.92002383088E+02 -0.43485731351E+02 -0.78355362808E+02  0.12843290157E+03  0.00000000000E+00 0. -1.
          1    1    6    6  503    0 -0.57535986887E+02  0.27391801297E+02 -0.50216765203E+03  0.50619467729E+03  0.00000000000E+00 0. -1.
         -1    1    6    6    0  503 -0.53908890074E+02  0.39925547396E+02 -0.19286131076E+04  0.19297794528E+04  0.00000000000E+00 0.  1.
<mgrwt>
<rscale>  0 0.10858062E+04</rscale>
<asrwt>0</asrwt>
<pdfrwt beam="1">  1        2 0.54700280E+00 0.10858062E+04</pdfrwt>
<pdfrwt beam="2">  1       -1 0.12753471E-01 0.10858062E+04</pdfrwt>
<totfact> 0.37238489E+01</totfact>
</mgrwt>
</event>
<event>
12    6  0.1611689E-007  0.1630635E+04  0.7818608E-02  0.8801946E-01
         -1   -1    0    0    0  501 -0.00000000000E+00  0.00000000000E+00  0.55615468048E+03  0.55615468048E+03  0.00000000000E+00 0.  1.
          2   -1    0    0  501    0  0.00000000000E+00 -0.00000000000E+00 -0.11952473646E+04  0.11952473646E+04  0.00000000000E+00 0. -1.
         24    2    1    2    0    0  0.44966483158E+03 -0.32535930832E+03 -0.32464909515E+03  0.64783915436E+03  0.79002497914E+02 0.  0.
        254    2    1    2    0    0 -0.44966483158E+03  0.32535930832E+03 -0.31444358895E+03  0.11035628907E+04  0.90051049011E+03 0.  0.
         23    2    4    4    0    0 -0.19261078988E+03  0.26408937095E+03  0.28430346397E+03  0.44291785361E+03  0.92226098235E+02 0.  0.
         23    2    4    4    0    0 -0.25705404170E+03  0.61269937366E+02 -0.59874705292E+03  0.66064503707E+03  0.90127942684E+02 0.  0.
          2    1    3    3  502    0  0.15668046173E+01 -0.11778960551E+02 -0.15693677548E+02  0.19684773389E+02  0.00000000000E+00 0. -1.
         -1    1    3    3    0  502  0.44809802696E+03 -0.31358034777E+03 -0.30895541760E+03  0.62815438097E+03  0.00000000000E+00 0.  1.
         11    1    5    5    0    0 -0.18265870450E+03  0.23519563994E+03  0.21536484515E+03  0.36750946641E+03  0.00000000000E+00 0. -1.
        -11    1    5    5    0    0 -0.99520853759E+01  0.28893731014E+02  0.68938618820E+02  0.75408387200E+02  0.00000000000E+00 0.  1.
          2    1    6    6  503    0 -0.17602178298E+03 -0.17560994348E+01 -0.35856603115E+03  0.39944505337E+03  0.00000000000E+00 0. -1.
         -2    1    6    6    0  503 -0.81032258720E+02  0.63026036801E+02 -0.24018102177E+03  0.26119998370E+03  0.00000000000E+00 0.  1.
<mgrwt>
<rscale>  0 0.16306347E+04</rscale>
<asrwt>0</asrwt>
<pdfrwt beam="1">  1        2 0.18388421E+00 0.16306347E+04</pdfrwt>
<pdfrwt beam="2">  1       -1 0.85562260E-01 0.16306347E+04</pdfrwt>
<totfact> 0.28073110E+01</totfact>
</mgrwt>
</event>
<event>
12    6  0.1611689E-007  0.1896488E+04  0.7818608E-02  0.8656607E-01
         -1   -1    0    0    0  501 -0.00000000000E+00  0.00000000000E+00  0.44601096749E+03  0.44601096749E+03  0.00000000000E+00 0.  1.
          2   -1    0    0  501    0  0.00000000000E+00 -0.00000000000E+00 -0.20160191342E+04  0.20160191342E+04  0.00000000000E+00 0. -1.
         24    2    1    2    0    0 -0.27772238274E+03 -0.29788404992E+03 -0.13754619074E+04  0.14378494830E+04  0.98239746531E+02 0.  0.
        254    2    1    2    0    0  0.27772238274E+03  0.29788404992E+03 -0.19454625932E+03  0.10241806188E+04  0.91936557677E+03 0.  0.
         23    2    4    4    0    0  0.40956837055E+03  0.10210930201E+03 -0.47802994551E+03  0.64369427235E+03  0.87505015470E+02 0.  0.
         23    2    4    4    0    0 -0.13184598781E+03  0.19577474791E+03  0.28348368620E+03  0.38048634641E+03  0.93250968072E+02 0.  0.
          4    1    3    3  502    0 -0.18123825329E+03 -0.12369426166E+03 -0.75216139512E+03  0.78351409632E+03  0.00000000000E+00 0. -1.
         -3    1    3    3    0  502 -0.96484129455E+02 -0.17418978826E+03 -0.62330051231E+03  0.65433538664E+03  0.00000000000E+00 0.  1.
         11    1    5    5    0    0  0.35553010969E+03  0.11567640352E+03 -0.43284619521E+03  0.57196024157E+03  0.00000000000E+00 0.  1.
        -11    1    5    5    0    0  0.54038260862E+02 -0.13567101509E+02 -0.45183750301E+02  0.71734030778E+02  0.00000000000E+00 0. -1.
          2    1    6    6  503    0 -0.62931515936E+02  0.14993472353E+03  0.13874883209E+03  0.21375695410E+03  0.00000000000E+00 0. -1.
         -2    1    6    6    0  503 -0.68914471874E+02  0.45840024374E+02  0.14473485410E+03  0.16672939231E+03  0.00000000000E+00 0.  1.
<mgrwt>
<rscale>  0 0.18964880E+04</rscale>
<asrwt>0</asrwt>
<pdfrwt beam="1">  1        2 0.31015678E+00 0.18964880E+04</pdfrwt>
<pdfrwt beam="2">  1       -1 0.68617074E-01 0.18964880E+04</pdfrwt>
<totfact> 0.15008143E+01</totfact>
</mgrwt>
</event>
<event>
12    6  0.1611689E-007  0.1479397E+04  0.7818608E-02  0.8898270E-01
         -1   -1    0    0    0  501 -0.00000000000E+00  0.00000000000E+00  0.15876791142E+03  0.15876791142E+03  0.00000000000E+00 0.  1.
          2   -1    0    0  501    0  0.00000000000E+00 -0.00000000000E+00 -0.34462509686E+04  0.34462509686E+04  0.00000000000E+00 0. -1.
         24    2    1    2    0    0  0.37904881272E+03 -0.15758161414E+03 -0.56886915285E+03  0.70408205890E+03  0.60078823729E+02 0.  0.
        254    2    1    2    0    0 -0.37904881272E+03  0.15758161414E+03 -0.27186139044E+04  0.29009368212E+04  0.92523667882E+03 0.  0.
         23    2    4    4    0    0 -0.40191341402E+03  0.29085544554E+02 -0.27082029117E+04  0.27394279646E+04  0.87876057175E+02 0.  0.
         23    2    4    4    0    0  0.22864601301E+02  0.12849606958E+03 -0.10410992701E+02  0.16150885653E+03  0.94565808175E+02 0.  0.
          4    1    3    3  502    0  0.35058948778E+02 -0.24328013526E+02 -0.89943197487E+02  0.99552804610E+02  0.00000000000E+00 0. -1.
         -3    1    3    3    0  502  0.34398986394E+03 -0.13325360061E+03 -0.47892595536E+03  0.60452925429E+03  0.00000000000E+00 0.  1.
         11    1    5    5    0    0 -0.21768266889E+02 -0.17893906220E+02 -0.13885081462E+03  0.14168132568E+03  0.00000000000E+00 0. -1.
        -11    1    5    5    0    0 -0.38014514713E+03  0.46979450774E+02 -0.25693520970E+04  0.25977466390E+04  0.00000000000E+00 0.  1.
          1    1    6    6  503    0 -0.23588593627E+02  0.13800342125E+00  0.50725900748E+01  0.24128239975E+02  0.00000000000E+00 0. -1.
         -1    1    6    6    0  503  0.46453194928E+02  0.12835806616E+03 -0.15483582776E+02  0.13738061655E+03  0.00000000000E+00 0.  1.
<mgrwt>
<rscale>  0 0.14793973E+04</rscale>
<asrwt>0</asrwt>
<pdfrwt beam="1">  1        2 0.53019246E+00 0.14793973E+04</pdfrwt>
<pdfrwt beam="2">  1       -1 0.24425832E-01 0.14793973E+04</pdfrwt>
<totfact> 0.14432542E+01</totfact>
</mgrwt>
</event>
<event>
12    6  0.1611689E-007  0.2492420E+04  0.7818608E-02  0.8405691E-01
          2   -1    0    0  501    0  0.00000000000E+00  0.00000000000E+00  0.23227619810E+04  0.23227619810E+04  0.00000000000E+00 0. -1.
         -1   -1    0    0    0  501 -0.00000000000E+00 -0.00000000000E+00 -0.66861769519E+03  0.66861769519E+03  0.00000000000E+00 0.  1.
         24    2    1    2    0    0  0.43296183396E+03  0.52673063801E+03 -0.28852657222E+03  0.74491253494E+03  0.82133958575E+02 0.  0.
        254    2    1    2    0    0 -0.43296183396E+03 -0.52673063801E+03  0.19426708581E+04  0.22464671413E+04  0.89874548087E+03 0.  0.
         23    2    4    4    0    0 -0.30702942428E+03 -0.76060850201E+03  0.12372771646E+04  0.14872378682E+04  0.90715675017E+02 0.  0.
         23    2    4    4    0    0 -0.12593240968E+03  0.23387786400E+03  0.70539369345E+03  0.75922927313E+03  0.91054924818E+02 0.  0.
          2    1    3    3  502    0  0.96159313502E+02  0.80368770065E+02 -0.76883148528E+02  0.14702643063E+03  0.00000000000E+00 0. -1.
         -1    1    3    3    0  502  0.33680252045E+03  0.44636186794E+03 -0.21164342370E+03  0.59788610431E+03  0.00000000000E+00 0.  1.
         11    1    5    5    0    0 -0.26723819741E+03 -0.61163939688E+03  0.10559010926E+04  0.12491781792E+04  0.00000000000E+00 0.  1.
        -11    1    5    5    0    0 -0.39791226873E+02 -0.14896910513E+03  0.18137607204E+03  0.23805968900E+03  0.00000000000E+00 0. -1.
          4    1    6    6  503    0  0.22632235556E+01  0.79158635933E+02  0.17634888622E+03  0.19331358332E+03  0.00000000000E+00 0. -1.
         -4    1    6    6    0  503 -0.12819563323E+03  0.15471922807E+03  0.52904480723E+03  0.56591568981E+03  0.00000000000E+00 0.  1.
<mgrwt>
<rscale>  0 0.24924203E+04</rscale>
<asrwt>0</asrwt>
<pdfrwt beam="1">  1        2 0.35734799E+00 0.24924203E+04</pdfrwt>
<pdfrwt beam="2">  1       -1 0.10286426E+00 0.24924203E+04</pdfrwt>
<totfact> 0.39886458E+00</totfact>
</mgrwt>
</event>
<event>
12    6  0.1611689E-007  0.2122335E+04  0.7818608E-02  0.8551468E-01
         -1   -1    0    0    0  501 -0.00000000000E+00  0.00000000000E+00  0.14352437883E+04  0.14352437883E+04  0.00000000000E+00 0.  1.
          2   -1    0    0  501    0  0.00000000000E+00 -0.00000000000E+00 -0.78458920345E+03  0.78458920345E+03  0.00000000000E+00 0. -1.
         24    2    1    2    0    0  0.72552217400E+03  0.43247814034E+03  0.41672579089E+02  0.85018155470E+03  0.87477455815E+02 0.  0.
        254    2    1    2    0    0 -0.72552217400E+03 -0.43247814034E+03  0.60898200571E+03  0.13696514370E+04  0.88975626369E+03 0.  0.
         23    2    4    4    0    0 -0.58531565611E+03  0.61008791722E+02  0.39367087188E+02  0.59678627036E+03  0.91036228936E+02 0.  0.
         23    2    4    4    0    0 -0.14020651789E+03 -0.49348693207E+03  0.56961491853E+03  0.77286516665E+03  0.98347296009E+02 0.  0.
          4    1    3    3  502    0  0.66608293590E+03  0.36612181233E+03  0.37680175818E+02  0.76100686897E+03  0.00000000000E+00 0. -1.
         -3    1    3    3    0  502  0.59439238092E+02  0.66356328010E+02  0.39924032705E+01  0.89174685734E+02  0.00000000000E+00 0.  1.
         11    1    5    5    0    0 -0.43141825366E+03  0.73593763698E+02  0.57103291941E+02  0.44135987311E+03  0.00000000000E+00 0. -1.
        -11    1    5    5    0    0 -0.15389740245E+03 -0.12584971976E+02 -0.17736204753E+02  0.15542639724E+03  0.00000000000E+00 0.  1.
          1    1    6    6  503    0 -0.12378399880E+03 -0.32734914537E+03  0.43566049211E+03  0.55882019086E+03  0.00000000000E+00 0. -1.
         -1    1    6    6    0  503 -0.16422519086E+02 -0.16613778670E+03  0.13395442642E+03  0.21404497579E+03  0.00000000000E+00 0.  1.
<mgrwt>
<rscale>  0 0.21223353E+04</rscale>
<asrwt>0</asrwt>
<pdfrwt beam="1">  1        2 0.12070603E+00 0.21223353E+04</pdfrwt>
<pdfrwt beam="2">  1       -1 0.22080674E+00 0.21223353E+04</pdfrwt>
<totfact> 0.40323846E+00</totfact>
</mgrwt>
</event>
<event>
12    6  0.1611689E-007  0.3062538E+04  0.7818608E-02  0.8226095E-01
          2   -1    0    0  501    0  0.00000000000E+00  0.00000000000E+00  0.25371948714E+04  0.25371948714E+04  0.00000000000E+00 0. -1.
         -1   -1    0    0    0  501 -0.00000000000E+00 -0.00000000000E+00 -0.92416436716E+03  0.92416436716E+03  0.00000000000E+00 0.  1.
         24    2    1    2    0    0 -0.47849589024E+03 -0.68322540329E+03  0.20043665173E+04  0.21724844775E+04  0.80301933330E+02 0.  0.
        254    2    1    2    0    0  0.47849589024E+03  0.68322540329E+03 -0.39133601303E+03  0.12888747611E+04  0.90127632061E+03 0.  0.
         23    2    4    4    0    0  0.48441748160E+03  0.37968703217E+03 -0.63505012170E+03  0.88912335528E+03  0.91810375036E+02 0.  0.
         23    2    4    4    0    0 -0.59215913569E+01  0.30353837113E+03  0.24371410867E+03  0.39975140585E+03  0.90741455371E+02 0.  0.
          4    1    3    3  502    0 -0.27820261534E+03 -0.43620882397E+03  0.11570411429E+04  0.12674458725E+04  0.00000000000E+00 0. -1.
         -3    1    3    3    0  502 -0.20029327490E+03 -0.24701657933E+03  0.84732537439E+03  0.90503860499E+03  0.00000000000E+00 0.  1.
         11    1    5    5    0    0  0.51657663120E+02  0.81885949193E+02 -0.10605404883E+03  0.14360112850E+03  0.00000000000E+00 0. -1.
        -11    1    5    5    0    0  0.43275981848E+03  0.29780108297E+03 -0.52899607287E+03  0.74552222677E+03  0.00000000000E+00 0.  1.
          1    1    6    6  503    0 -0.24000421287E+02  0.26282204522E+02  0.10796627011E+02  0.37193301162E+02  0.00000000000E+00 0.  1.
         -1    1    6    6    0  503  0.18078829930E+02  0.27725616661E+03  0.23291748166E+03  0.36255810469E+03  0.00000000000E+00 0. -1.
<mgrwt>
<rscale>  0 0.30625382E+04</rscale>
<asrwt>0</asrwt>
<pdfrwt beam="1">  1        2 0.39033767E+00 0.30625382E+04</pdfrwt>
<pdfrwt beam="2">  1       -1 0.14217913E+00 0.30625382E+04</pdfrwt>
<totfact> 0.12899155E+00</totfact>
</mgrwt>
</event>
<event>
12    6  0.1611689E-007  0.2522565E+04  0.7818608E-02  0.8394991E-01
         -1   -1    0    0    0  501 -0.00000000000E+00  0.00000000000E+00  0.12812671227E+04  0.12812671227E+04  0.00000000000E+00 0.  1.
          2   -1    0    0  501    0  0.00000000000E+00 -0.00000000000E+00 -0.12416094600E+04  0.12416094600E+04  0.00000000000E+00 0. -1.
         24    2    1    2    0    0 -0.78987939207E+03 -0.35988251132E+03 -0.65715857674E+03  0.10915961491E+04  0.79371794339E+02 0.  0.
        254    2    1    2    0    0  0.78987939207E+03  0.35988251132E+03  0.69681623941E+03  0.14312804336E+04  0.89976993285E+03 0.  0.
         23    2    4    4    0    0 -0.98056107139E+01 -0.22312015718E+03  0.59195969491E+02  0.25043955170E+03  0.96628420826E+02 0.  0.
         23    2    4    4    0    0  0.79968500278E+03  0.58300266850E+03  0.63762026992E+03  0.11808408819E+04  0.91855128013E+02 0.  0.
          4    1    3    3  502    0 -0.65598595456E+03 -0.32231739438E+03 -0.52650624534E+03  0.90078571352E+03  0.00000000000E+00 0. -1.
         -3    1    3    3    0  502 -0.13389343751E+03 -0.37565116939E+02 -0.13065233140E+03  0.19081043556E+03  0.00000000000E+00 0.  1.
         11    1    5    5    0    0  0.97126237941E+01 -0.13667076914E+03 -0.10894386132E+02  0.13744788775E+03  0.00000000000E+00 0.  1.
        -11    1    5    5    0    0 -0.19518234508E+02 -0.86449388037E+02  0.70090355623E+02  0.11299166395E+03  0.00000000000E+00 0. -1.
          2    1    6    6  503    0  0.12427863991E+03  0.63842430779E+02  0.62923064692E+02  0.15323298723E+03  0.00000000000E+00 0. -1.
         -2    1    6    6    0  503  0.67540636288E+03  0.51916023772E+03  0.57469720523E+03  0.10276078946E+04  0.00000000000E+00 0.  1.
<mgrwt>
<rscale>  0 0.25225649E+04</rscale>
<asrwt>0</asrwt>
<pdfrwt beam="1">  1        2 0.19101684E+00 0.25225649E+04</pdfrwt>
<pdfrwt beam="2">  1       -1 0.19711802E+00 0.25225649E+04</pdfrwt>
<totfact> 0.28601139E+00</totfact>
</mgrwt>
</event>
<event>
12    6  0.1611689E-007  0.1234589E+04  0.7818608E-02  0.9083108E-01
         -1   -1    0    0    0  501 -0.00000000000E+00  0.00000000000E+00  0.15700057207E+03  0.15700057207E+03  0.00000000000E+00 0.  1.
          2   -1    0    0  501    0  0.00000000000E+00 -0.00000000000E+00 -0.24270781660E+04  0.24270781660E+04  0.00000000000E+00 0. -1.
         24    2    1    2    0    0 -0.26942987048E+03  0.16334212196E+03 -0.65571213153E+03  0.73199137157E+03  0.81116365160E+02 0.  0.
        254    2    1    2    0    0  0.26942987048E+03 -0.16334212196E+03 -0.16143654624E+04  0.18520873666E+04  0.85133933488E+03 0.  0.
         23    2    4    4    0    0  0.54742989566E+03 -0.18329359910E+03 -0.12801523866E+04  0.14073035467E+04  0.91853719269E+02 0.  0.
         23    2    4    4    0    0 -0.27800002517E+03  0.19951477134E+02 -0.33421307589E+03  0.44478381982E+03  0.91935797366E+02 0.  0.
          2    1    3    3  502    0 -0.17282453128E+03  0.79427039155E+02 -0.46427427208E+03  0.50172459864E+03  0.00000000000E+00 0. -1.
         -3    1    3    3    0  502 -0.96605339197E+02  0.83915082809E+02 -0.19143785945E+03  0.23026677293E+03  0.00000000000E+00 0.  1.
         11    1    5    5    0    0  0.24965454587E+02 -0.31409504056E+02 -0.10083701061E+03  0.10852618844E+03  0.00000000000E+00 0.  1.
        -11    1    5    5    0    0  0.52246444107E+03 -0.15188409504E+03 -0.11793153759E+04  0.12987773583E+04  0.00000000000E+00 0. -1.
          1    1    6    6  503    0 -0.16008410784E+03  0.45139519864E+02 -0.14630304383E+03  0.22151541362E+03  0.00000000000E+00 0. -1.
         -1    1    6    6    0  503 -0.11791591733E+03 -0.25188042730E+02 -0.18791003206E+03  0.22326840620E+03  0.00000000000E+00 0.  1.
<mgrwt>
<rscale>  0 0.12345893E+04</rscale>
<asrwt>0</asrwt>
<pdfrwt beam="1">  1        2 0.37339663E+00 0.12345893E+04</pdfrwt>
<pdfrwt beam="2">  1       -1 0.24153935E-01 0.12345893E+04</pdfrwt>
<totfact> 0.64225261E+01</totfact>
</mgrwt>
</event>
<event>
12    6  0.1611689E-007  0.1639932E+04  0.7818608E-02  0.8796385E-01
         -1   -1    0    0    0  501 -0.00000000000E+00  0.00000000000E+00  0.23541958039E+03  0.23541958039E+03  0.00000000000E+00 0.  1.
          2   -1    0    0  501    0  0.00000000000E+00 -0.00000000000E+00 -0.28559387173E+04  0.28559387173E+04  0.00000000000E+00 0. -1.
         24    2    1    2    0    0 -0.57246318957E+02  0.55522361086E+03 -0.71733017167E+03  0.91235054161E+03  0.79186719181E+02 0.  0.
        254    2    1    2    0    0  0.57246318957E+02 -0.55522361086E+03 -0.19031889653E+04  0.21790077561E+04  0.90243900880E+03 0.  0.
         23    2    4    4    0    0 -0.70079827953E+02 -0.60481646320E+03 -0.19185037862E+04  0.20148226978E+04  0.90219674071E+02 0.  0.
         23    2    4    4    0    0  0.12732614691E+03  0.49592852337E+02  0.15314820907E+02  0.16418505831E+03  0.89726199867E+02 0.  0.
          2    1    3    3  502    0 -0.11701947703E+02  0.71003049467E+01 -0.19472420188E+02  0.23801786873E+02  0.00000000000E+00 0. -1.
         -1    1    3    3    0  502 -0.45544371254E+02  0.54812330592E+03 -0.69785775148E+03  0.88854875474E+03  0.00000000000E+00 0.  1.
         11    1    5    5    0    0 -0.28569240398E+01 -0.28105640049E+03 -0.77139753622E+03  0.82100853903E+03  0.00000000000E+00 0. -1.
        -11    1    5    5    0    0 -0.67222903913E+02 -0.32376006272E+03 -0.11471062500E+04  0.11938141588E+04  0.00000000000E+00 0.  1.
          2    1    6    6  503    0  0.31840787326E+02  0.58238451005E+02  0.16127883340E+02  0.68305647893E+02  0.00000000000E+00 0. -1.
         -2    1    6    6    0  503  0.95485359584E+02 -0.86455986678E+01 -0.81306243353E+00  0.95879410416E+02  0.00000000000E+00 0.  1.
<mgrwt>
<rscale>  0 0.16399316E+04</rscale>
<asrwt>0</asrwt>
<pdfrwt beam="1">  1        2 0.43937520E+00 0.16399316E+04</pdfrwt>
<pdfrwt beam="2">  1       -1 0.36218396E-01 0.16399316E+04</pdfrwt>
<totfact> 0.17054941E+01</totfact>
</mgrwt>
</event>
<event>
12    6  0.1611689E-007  0.2305319E+04  0.7818608E-02  0.8475827E-01
         -1   -1    0    0    0  501 -0.00000000000E+00  0.00000000000E+00  0.65335999975E+03  0.65335999975E+03  0.00000000000E+00 0.  1.
          2   -1    0    0  501    0  0.00000000000E+00 -0.00000000000E+00 -0.20335250308E+04  0.20335250308E+04  0.00000000000E+00 0. -1.
         24    2    1    2    0    0  0.10513425179E+03  0.30103323900E+03 -0.16381896870E+04  0.16708161883E+04  0.79290999418E+02 0.  0.
        254    2    1    2    0    0 -0.10513425179E+03 -0.30103323900E+03  0.25802465595E+03  0.10160688422E+04  0.92959396901E+03 0.  0.
         23    2    4    4    0    0  0.30020205590E+03 -0.15035692985E+03 -0.18175688937E+03  0.39265914530E+03  0.91745064348E+02 0.  0.
         23    2    4    4    0    0 -0.40533630769E+03 -0.15067630915E+03  0.43978154533E+03  0.62340969695E+03  0.90724694367E+02 0.  0.
          4    1    3    3  502    0 -0.16398225422E+01  0.61977450187E+02 -0.44063697215E+03  0.44497734164E+03  0.00000000000E+00 0. -1.
         -3    1    3    3    0  502  0.10677407433E+03  0.23905578881E+03 -0.11975527148E+04  0.12258388466E+04  0.00000000000E+00 0.  1.
         11    1    5    5    0    0  0.13473593148E+03 -0.31866948694E+02 -0.11010975740E+03  0.17689949781E+03  0.00000000000E+00 0. -1.
        -11    1    5    5    0    0  0.16546612441E+03 -0.11848998116E+03 -0.71647131975E+02  0.21575964749E+03  0.00000000000E+00 0.  1.
          1    1    6    6  503    0 -0.40382058218E+02 -0.47815435161E+02  0.57944296114E+02  0.85291077597E+02  0.00000000000E+00 0. -1.
         -1    1    6    6    0  503 -0.36495424947E+03 -0.10286087399E+03  0.38183724921E+03  0.53811861935E+03  0.00000000000E+00 0.  1.
<mgrwt>
<rscale>  0 0.23053190E+04</rscale>
<asrwt>0</asrwt>
<pdfrwt beam="1">  1        2 0.31285000E+00 0.23053190E+04</pdfrwt>
<pdfrwt beam="2">  1       -1 0.10051692E+00 0.23053190E+04</pdfrwt>
<totfact> 0.62166456E+00</totfact>
</mgrwt>
</event>
<event>
12    6  0.1611689E-007  0.1863307E+04  0.7818608E-02  0.8673340E-01
          2   -1    0    0  501    0  0.00000000000E+00  0.00000000000E+00  0.12572114763E+04  0.12572114763E+04  0.00000000000E+00 0. -1.
         -1   -1    0    0    0  501 -0.00000000000E+00 -0.00000000000E+00 -0.69039946117E+03  0.69039946117E+03  0.00000000000E+00 0.  1.
         24    2    1    2    0    0  0.44666749637E+03 -0.44622950592E+03 -0.13264625621E+03  0.65148799311E+03  0.90603264962E+02 0.  0.
        254    2    1    2    0    0 -0.44666749637E+03  0.44622950592E+03  0.69945827135E+03  0.12961229444E+04  0.88997763415E+03 0.  0.
         23    2    4    4    0    0 -0.10503090812E+03 -0.79471601325E+02 -0.16091243569E+03  0.22762692842E+03  0.92595785578E+02 0.  0.
         23    2    4    4    0    0 -0.34163658824E+03  0.52570110724E+03  0.86037070703E+03  0.10684960159E+04  0.91480981522E+02 0.  0.
          2    1    3    3  502    0  0.25310708435E+02 -0.63531157112E+01 -0.17912481718E+02  0.31652030614E+02  0.00000000000E+00 0. -1.
         -1    1    3    3    0  502  0.42135678793E+03 -0.43987639021E+03 -0.11473377449E+03  0.61983596250E+03  0.00000000000E+00 0.  1.
         11    1    5    5    0    0 -0.11135767253E+03 -0.76427803103E+02 -0.16937412854E+03  0.21663179761E+03  0.00000000000E+00 0.  1.
        -11    1    5    5    0    0  0.63267644034E+01 -0.30437982225E+01  0.84616928595E+01  0.10995130808E+02  0.00000000000E+00 0. -1.
          1    1    6    6  503    0 -0.80928512693E+02  0.20065407153E+03  0.27307344172E+03  0.34839716583E+03  0.00000000000E+00 0. -1.
         -1    1    6    6    0  503 -0.26070807555E+03  0.32504703572E+03  0.58729726531E+03  0.72009885011E+03  0.00000000000E+00 0.  1.
<mgrwt>
<rscale>  0 0.18633069E+04</rscale>
<asrwt>0</asrwt>
<pdfrwt beam="1">  1        2 0.19341715E+00 0.18633069E+04</pdfrwt>
<pdfrwt beam="2">  1       -1 0.10621530E+00 0.18633069E+04</pdfrwt>
<totfact> 0.15546250E+01</totfact>
</mgrwt>
</event>
<event>
12    6  0.1611689E-007  0.1542395E+04  0.7818608E-02  0.8856740E-01
         -1   -1    0    0    0  501 -0.00000000000E+00  0.00000000000E+00  0.56686233556E+03  0.56686233556E+03  0.00000000000E+00 0.  1.
          2   -1    0    0  501    0  0.00000000000E+00 -0.00000000000E+00 -0.10491882443E+04  0.10491882443E+04  0.00000000000E+00 0. -1.
         24    2    1    2    0    0  0.16263225723E+03  0.19336222542E+03 -0.62923057432E+03  0.68254055145E+03  0.78053106312E+02 0.  0.
        254    2    1    2    0    0 -0.16263225723E+03 -0.19336222542E+03  0.14690466557E+03  0.93351002842E+03  0.88657869988E+03 0.  0.
         23    2    4    4    0    0 -0.92277631357E+02  0.34270055090E+03  0.25762469476E+01  0.36653265117E+03  0.91546264193E+02 0.  0.
         23    2    4    4    0    0 -0.70354625875E+02 -0.53606277632E+03  0.14432841863E+03  0.56697737725E+03  0.91211733642E+02 0.  0.
          2    1    3    3  502    0  0.16688892600E+03  0.18967372819E+03 -0.57546438816E+03  0.62848014991E+03  0.00000000000E+00 0. -1.
         -1    1    3    3    0  502 -0.42566687694E+01  0.36884972259E+01 -0.53766186159E+02  0.54060401542E+02  0.00000000000E+00 0.  1.
         11    1    5    5    0    0 -0.83793898206E+02  0.14623928263E+03  0.16768115555E+02  0.16937684275E+03  0.00000000000E+00 0. -1.
        -11    1    5    5    0    0 -0.84837331513E+01  0.19646126827E+03 -0.14191868607E+02  0.19715580842E+03  0.00000000000E+00 0.  1.
          4    1    6    6  503    0 -0.43934571976E+02 -0.50029363930E+03  0.14419189072E+03  0.52250863485E+03  0.00000000000E+00 0. -1.
         -4    1    6    6    0  503 -0.26420053898E+02 -0.35769137015E+02  0.13652790324E+00  0.44468742400E+02  0.00000000000E+00 0.  1.
<mgrwt>
<rscale>  0 0.15423946E+04</rscale>
<asrwt>0</asrwt>
<pdfrwt beam="1">  1        2 0.16141357E+00 0.15423946E+04</pdfrwt>
<pdfrwt beam="2">  1       -1 0.87209591E-01 0.15423946E+04</pdfrwt>
<totfact> 0.33341059E+01</totfact>
</mgrwt>
</event>
<event>
12    6  0.1611689E-007  0.1836594E+04  0.7818608E-02  0.8687078E-01
         -1   -1    0    0    0  501 -0.00000000000E+00  0.00000000000E+00  0.39541728711E+03  0.39541728711E+03  0.00000000000E+00 0.  1.
          2   -1    0    0  501    0  0.00000000000E+00 -0.00000000000E+00 -0.21326053671E+04  0.21326053671E+04  0.00000000000E+00 0. -1.
         24    2    1    2    0    0 -0.50493429955E+03  0.92325128860E+02 -0.15036277691E+02  0.51943258756E+03  0.78112400345E+02 0.  0.
        254    2    1    2    0    0  0.50493429955E+03 -0.92325128860E+02 -0.17221518023E+04  0.20085900667E+04  0.89729852862E+03 0.  0.
         23    2    4    4    0    0  0.25013139605E+03  0.52319822294E+01 -0.42532461473E+01  0.26675572964E+03  0.92452367559E+02 0.  0.
         23    2    4    4    0    0  0.25480290350E+03 -0.97557111089E+02 -0.17178985562E+04  0.17418343370E+04  0.91484965067E+02 0.  0.
          2    1    3    3  502    0 -0.81114966963E+02  0.44788070254E+02  0.79320398480E+00  0.92661957000E+02  0.00000000000E+00 0. -1.
         -1    1    3    3    0  502 -0.42381933259E+03  0.47537058606E+02 -0.15829481676E+02  0.42677063056E+03  0.00000000000E+00 0.  1.
         11    1    5    5    0    0 -0.45428982101E+01  0.43141312224E+01 -0.10245654615E+02  0.12009291855E+02  0.00000000000E+00 0.  1.
        -11    1    5    5    0    0  0.25467429426E+03  0.91785100695E+00  0.59924084681E+01  0.25474643779E+03  0.00000000000E+00 0. -1.
          3    1    6    6  503    0  0.98598384237E+02 -0.85802026138E+02 -0.73483187234E+03  0.74636553355E+03  0.00000000000E+00 0. -1.
         -3    1    6    6    0  503  0.15620451927E+03 -0.11755084952E+02 -0.98306668383E+03  0.99546880349E+03  0.00000000000E+00 0.  1.
<mgrwt>
<rscale>  0 0.18365936E+04</rscale>
<asrwt>0</asrwt>
<pdfrwt beam="1">  1        2 0.32809313E+00 0.18365936E+04</pdfrwt>
<pdfrwt beam="2">  1       -1 0.60833429E-01 0.18365936E+04</pdfrwt>
<totfact> 0.16551518E+01</totfact>
</mgrwt>
</event>
<event>
12    6  0.1611689E-007  0.1565882E+04  0.7818608E-02  0.8841787E-01
          2   -1    0    0  501    0  0.00000000000E+00  0.00000000000E+00  0.79205006683E+03  0.79205006683E+03  0.00000000000E+00 0. -1.
         -1   -1    0    0    0  501 -0.00000000000E+00 -0.00000000000E+00 -0.77393627746E+03  0.77393627746E+03  0.00000000000E+00 0.  1.
         24    2    1    2    0    0 -0.35257242821E+03  0.23187421327E+03  0.35848413738E+03  0.55949957282E+03  0.80348785401E+02 0.  0.
        254    2    1    2    0    0  0.35257242821E+03 -0.23187421327E+03 -0.34037034801E+03  0.10064867715E+04  0.84799214585E+03 0.  0.
         23    2    4    4    0    0  0.21939863597E+02 -0.38203441168E+03  0.12227025576E+03  0.41177088604E+03  0.90407952213E+02 0.  0.
         23    2    4    4    0    0  0.33063256462E+03  0.15016019841E+03 -0.46264060377E+03  0.59471588543E+03  0.88230823175E+02 0.  0.
          2    1    3    3  502    0 -0.33992624817E+03  0.23667434111E+03  0.33639282579E+03  0.53359603745E+03  0.00000000000E+00 0. -1.
         -1    1    3    3    0  502 -0.12646180045E+02 -0.48001278441E+01  0.22091311587E+02  0.25903535370E+02  0.00000000000E+00 0.  1.
         11    1    5    5    0    0  0.48461755557E+02 -0.12997419929E+03  0.57601421375E+02  0.15019906117E+03  0.00000000000E+00 0.  1.
        -11    1    5    5    0    0 -0.26521891960E+02 -0.25206021239E+03  0.64668834385E+02  0.26157182486E+03  0.00000000000E+00 0. -1.
          2    1    6    6  503    0  0.31933570038E+03  0.11942741839E+03 -0.42373872671E+03  0.54386828030E+03  0.00000000000E+00 0. -1.
         -2    1    6    6    0  503  0.11296864240E+02  0.30732780019E+02 -0.38901877054E+02  0.50847605132E+02  0.00000000000E+00 0.  1.
<mgrwt>
<rscale>  0 0.15658816E+04</rscale>
<asrwt>0</asrwt>
<pdfrwt beam="1">  1        2 0.12185386E+00 0.15658816E+04</pdfrwt>
<pdfrwt beam="2">  1       -1 0.11906712E+00 0.15658816E+04</pdfrwt>
<totfact> 0.24185429E+01</totfact>
</mgrwt>
</event>
<event>
12    6  0.1611689E-007  0.2394019E+04  0.7818608E-02  0.8441746E-01
         -1   -1    0    0    0  501 -0.00000000000E+00  0.00000000000E+00  0.14749553681E+04  0.14749553681E+04  0.00000000000E+00 0.  1.
          2   -1    0    0  501    0  0.00000000000E+00 -0.00000000000E+00 -0.97144112584E+03  0.97144112584E+03  0.00000000000E+00 0. -1.
         24    2    1    2    0    0 -0.30455816626E+03  0.85178055882E+03 -0.24851468196E+03  0.94147611859E+03  0.79573473680E+02 0.  0.
        254    2    1    2    0    0  0.30455816626E+03 -0.85178055882E+03  0.75202892419E+03  0.15049203753E+04  0.93859045179E+03 0.  0.
         23    2    4    4    0    0  0.43321972657E+03 -0.86803325348E+03  0.87087933420E+03  0.13068042902E+04  0.90252853510E+02 0.  0.
         23    2    4    4    0    0 -0.12866156032E+03  0.16252694662E+02 -0.11885041001E+03  0.19811608508E+03  0.91140638693E+02 0.  0.
          2    1    3    3  502    0 -0.57527847036E+02  0.24623864430E+03 -0.91361195518E+02  0.26886760901E+03  0.00000000000E+00 0. -1.
         -1    1    3    3    0  502 -0.24703031922E+03  0.60554191452E+03 -0.15715348644E+03  0.67260850958E+03  0.00000000000E+00 0.  1.
         11    1    5    5    0    0  0.14927366889E+03 -0.24414959813E+03  0.30179044825E+03  0.41589557481E+03  0.00000000000E+00 0. -1.
        -11    1    5    5    0    0  0.28394605768E+03 -0.62388365535E+03  0.56908888595E+03  0.89090871541E+03  0.00000000000E+00 0.  1.
          2    1    6    6  503    0  0.12150969471E+02 -0.93824439293E+01 -0.12643290132E+02  0.19887913378E+02  0.00000000000E+00 0. -1.
         -2    1    6    6    0  503 -0.14081252979E+03  0.25635138592E+02 -0.10620711988E+03  0.17822817171E+03  0.00000000000E+00 0.  1.
<mgrwt>
<rscale>  0 0.23940195E+04</rscale>
<asrwt>0</asrwt>
<pdfrwt beam="1">  1        2 0.14945248E+00 0.23940195E+04</pdfrwt>
<pdfrwt beam="2">  1       -1 0.22691621E+00 0.23940195E+04</pdfrwt>
<totfact> 0.26681105E+00</totfact>
</mgrwt>
</event>
<event>
12    6  0.1611689E-007  0.1347177E+04  0.7818608E-02  0.8992968E-01
          2   -1    0    0  501    0  0.00000000000E+00  0.00000000000E+00  0.81218510412E+03  0.81218510412E+03  0.00000000000E+00 0. -1.
         -1   -1    0    0    0  501 -0.00000000000E+00 -0.00000000000E+00 -0.55864326673E+03  0.55864326673E+03  0.00000000000E+00 0.  1.
         24    2    1    2    0    0 -0.24506979931E+03 -0.21132308379E+03  0.24365341154E+03  0.41258137206E+03  0.78356565375E+02 0.  0.
        254    2    1    2    0    0  0.24506979931E+03  0.21132308379E+03  0.98884258430E+01  0.95824699879E+03  0.90189959388E+03 0.  0.
         23    2    4    4    0    0  0.33400494078E+03  0.75368992356E+02 -0.38366734948E+03  0.52285350518E+03  0.94527072018E+02 0.  0.
         23    2    4    4    0    0 -0.88935141469E+02  0.13595409144E+03  0.39355577533E+03  0.43539349361E+03  0.91040494410E+02 0.  0.
          2    1    3    3  502    0 -0.65832803185E+02 -0.33818121131E+02  0.92648725103E+02  0.11858081445E+03  0.00000000000E+00 0. -1.
         -1    1    3    3    0  502 -0.17923699613E+03 -0.17750496266E+03  0.15100468644E+03  0.29400055761E+03  0.00000000000E+00 0.  1.
         11    1    5    5    0    0  0.55770341809E+01  0.18586279104E+02 -0.89988819464E+01  0.21390020044E+02  0.00000000000E+00 0.  1.
        -11    1    5    5    0    0  0.32842790660E+03  0.56782713252E+02 -0.37466846754E+03  0.50146348513E+03  0.00000000000E+00 0. -1.
          4    1    6    6  503    0 -0.74135503261E+02  0.14714643222E+03  0.32512939811E+03  0.36449591338E+03  0.00000000000E+00 0. -1.
         -4    1    6    6    0  503 -0.14799638208E+02 -0.11192340785E+02  0.68426377219E+02  0.70897580232E+02  0.00000000000E+00 0.  1.
<mgrwt>
<rscale>  0 0.13471774E+04</rscale>
<asrwt>0</asrwt>
<pdfrwt beam="1">  1        2 0.12495155E+00 0.13471774E+04</pdfrwt>
<pdfrwt beam="2">  1       -1 0.85945118E-01 0.13471774E+04</pdfrwt>
<totfact> 0.50343434E+01</totfact>
</mgrwt>
</event>
<event>
12    6  0.1611689E-007  0.2134963E+04  0.7818608E-02  0.8545996E-01
          2   -1    0    0  501    0  0.00000000000E+00  0.00000000000E+00  0.24525150233E+04  0.24525150233E+04  0.00000000000E+00 0. -1.
         -1   -1    0    0    0  501 -0.00000000000E+00 -0.00000000000E+00 -0.46463212561E+03  0.46463212561E+03  0.00000000000E+00 0.  1.
         24    2    1    2    0    0  0.27574435968E+03  0.24232436106E+03 -0.26976816337E+03  0.46247125561E+03  0.79679059013E+02 0.  0.
        254    2    1    2    0    0 -0.27574435968E+03 -0.24232436106E+03  0.22576510611E+04  0.24546758933E+04  0.89089246255E+03 0.  0.
         23    2    4    4    0    0 -0.18411695149E+03  0.31598992428E+03  0.11082299903E+04  0.11705705460E+04  0.91175696793E+02 0.  0.
         23    2    4    4    0    0 -0.91627408184E+02 -0.55831428534E+03  0.11494210708E+04  0.12841053473E+04  0.87448967624E+02 0.  0.
          4    1    3    3  502    0  0.15942650529E+03  0.13589735950E+03 -0.20149704944E+03  0.29066469315E+03  0.00000000000E+00 0. -1.
         -3    1    3    3    0  502  0.11631785438E+03  0.10642700156E+03 -0.68271113924E+02  0.17180656246E+03  0.00000000000E+00 0.  1.
         11    1    5    5    0    0 -0.10156023077E+03  0.24534863252E+03  0.71929591654E+03  0.76674444733E+03  0.00000000000E+00 0.  1.
        -11    1    5    5    0    0 -0.82556720722E+02  0.70641291760E+02  0.38893407377E+03  0.40382609868E+03  0.00000000000E+00 0. -1.
          3    1    6    6  503    0 -0.14305543655E+02 -0.18920064288E+03  0.30354102159E+03  0.35796464020E+03  0.00000000000E+00 0. -1.
         -3    1    6    6    0  503 -0.77321864530E+02 -0.36911364246E+03  0.84588004917E+03  0.92614070711E+03  0.00000000000E+00 0.  1.
<mgrwt>
<rscale>  0 0.21349635E+04</rscale>
<asrwt>0</asrwt>
<pdfrwt beam="1">  1        2 0.37731000E+00 0.21349635E+04</pdfrwt>
<pdfrwt beam="2">  1       -1 0.71481867E-01 0.21349635E+04</pdfrwt>
<totfact> 0.76647641E+00</totfact>
</mgrwt>
</event>
<event>
12    6  0.1611689E-007  0.1471491E+04  0.7818608E-02  0.8903636E-01
          2   -1    0    0  501    0  0.00000000000E+00  0.00000000000E+00  0.86116189367E+03  0.86116189367E+03  0.00000000000E+00 0. -1.
         -1   -1    0    0    0  501 -0.00000000000E+00 -0.00000000000E+00 -0.62859387865E+03  0.62859387865E+03  0.00000000000E+00 0.  1.
         24    2    1    2    0    0 -0.17120040268E+03  0.17266900359E+03 -0.31628852460E+03  0.40703177755E+03  0.80698664531E+02 0.  0.
        254    2    1    2    0    0  0.17120040268E+03 -0.17266900359E+03  0.54885653962E+03  0.10827239948E+04  0.90106802468E+03 0.  0.
         23    2    4    4    0    0  0.12681073772E+03 -0.31089321868E+03  0.74519013451E+03  0.82246761362E+03  0.91701048318E+02 0.  0.
         23    2    4    4    0    0  0.44389664954E+02  0.13822421509E+03 -0.19633359488E+03  0.26025638115E+03  0.90056246093E+02 0.  0.
          4    1    3    3  502    0 -0.26252483268E+01 -0.77994004947E+01 -0.48064452549E+01  0.95301884998E+01  0.00000000000E+00 0. -1.
         -3    1    3    3    0  502 -0.16857515435E+03  0.18046840409E+03 -0.31148207935E+03  0.39750158905E+03  0.00000000000E+00 0.  1.
         11    1    5    5    0    0  0.22979415513E+02 -0.15930150988E+02  0.12273629288E+03  0.12588097886E+03  0.00000000000E+00 0.  1.
        -11    1    5    5    0    0  0.10383132221E+03 -0.29496306769E+03  0.62245384163E+03  0.69658663476E+03  0.00000000000E+00 0. -1.
          2    1    6    6  503    0  0.40308534823E+02  0.14406966118E+03 -0.14469686065E+03  0.20812983143E+03  0.00000000000E+00 0. -1.
         -2    1    6    6    0  503  0.40811301309E+01 -0.58454460907E+01 -0.51636734237E+02  0.52126549721E+02  0.00000000000E+00 0.  1.
<mgrwt>
<rscale>  0 0.14714905E+04</rscale>
<asrwt>0</asrwt>
<pdfrwt beam="1">  1        2 0.13248645E+00 0.14714905E+04</pdfrwt>
<pdfrwt beam="2">  1       -1 0.96706750E-01 0.14714905E+04</pdfrwt>
<totfact> 0.35453295E+01</totfact>
</mgrwt>
</event>
<event>
12    6  0.1611689E-007  0.1224283E+04  0.7818608E-02  0.9091864E-01
         -1   -1    0    0    0  501 -0.00000000000E+00  0.00000000000E+00  0.14820365878E+03  0.14820365878E+03  0.00000000000E+00 0.  1.
          2   -1    0    0  501    0  0.00000000000E+00 -0.00000000000E+00 -0.25283924354E+04  0.25283924354E+04  0.00000000000E+00 0. -1.
         24    2    1    2    0    0  0.62654239975E+02 -0.20911965586E+03 -0.87863022935E+03  0.90849705207E+03  0.75625587164E+02 0.  0.
        254    2    1    2    0    0 -0.62654239975E+02  0.20911965586E+03 -0.15015585472E+04  0.17680990421E+04  0.90765608442E+03 0.  0.
         23    2    4    4    0    0  0.35686821548E+02  0.11908493679E+03 -0.15818421921E+04  0.15893985945E+04  0.92240988557E+02 0.  0.
         23    2    4    4    0    0 -0.98341061523E+02  0.90034719064E+02  0.80283644905E+02  0.17870044758E+03  0.87813275239E+02 0.  0.
          2    1    3    3  502    0  0.56973486941E+02 -0.15919413530E+03 -0.77624455896E+03  0.79444594923E+03  0.00000000000E+00 0. -1.
         -1    1    3    3    0  502  0.56807530342E+01 -0.49925520555E+02 -0.10238567039E+03  0.11405110284E+03  0.00000000000E+00 0.  1.
         11    1    5    5    0    0  0.39141353576E+02  0.74851024852E+02 -0.53591367248E+03  0.54252943315E+03  0.00000000000E+00 0. -1.
        -11    1    5    5    0    0 -0.34545320280E+01  0.44233911940E+02 -0.10459285196E+04  0.10468691613E+04  0.00000000000E+00 0.  1.
          2    1    6    6  503    0 -0.28369347837E+02  0.81143256579E+02  0.61541411742E+02  0.10571846265E+03  0.00000000000E+00 0. -1.
         -2    1    6    6    0  503 -0.69971713686E+02  0.88914624848E+01  0.18742233164E+02  0.72981984936E+02  0.00000000000E+00 0.  1.
<mgrwt>
<rscale>  0 0.12242827E+04</rscale>
<asrwt>0</asrwt>
<pdfrwt beam="1">  1        2 0.38898345E+00 0.12242827E+04</pdfrwt>
<pdfrwt beam="2">  1       -1 0.22800563E-01 0.12242827E+04</pdfrwt>
<totfact> 0.62044442E+01</totfact>
</mgrwt>
</event>
<event>
12    6  0.1611689E-007  0.3542683E+04  0.7818608E-02  0.8103748E-01
         -1   -1    0    0    0  501 -0.00000000000E+00  0.00000000000E+00  0.11358287346E+04  0.11358287346E+04  0.00000000000E+00 0.  1.
          2   -1    0    0  501    0  0.00000000000E+00 -0.00000000000E+00 -0.27624333784E+04  0.27624333784E+04  0.00000000000E+00 0. -1.
         24    2    1    2    0    0 -0.36526770767E+03  0.42122353114E+03 -0.24713719954E+04  0.25346768651E+04  0.77830004927E+02 0.  0.
        254    2    1    2    0    0  0.36526770767E+03 -0.42122353114E+03  0.84476735152E+03  0.13635852479E+04  0.91371937077E+03 0.  0.
         23    2    4    4    0    0  0.27480066113E+02 -0.63001290495E+03  0.65381718612E+03  0.91319423643E+03  0.93677031052E+02 0.  0.
         23    2    4    4    0    0  0.33778764156E+03  0.20878937381E+03  0.19095016540E+03  0.45039101142E+03  0.93255584811E+02 0.  0.
          4    1    3    3  502    0 -0.33764458157E+03  0.40796632869E+03 -0.23833539462E+04  0.24414783270E+04  0.00000000000E+00 0. -1.
         -3    1    3    3    0  502 -0.27623126095E+02  0.13257202449E+02 -0.88018049220E+02  0.93198538082E+02  0.00000000000E+00 0.  1.
         11    1    5    5    0    0  0.14551885722E+02 -0.18926716134E+03  0.26051714017E+03  0.32233987662E+03  0.00000000000E+00 0.  1.
        -11    1    5    5    0    0  0.12928180391E+02 -0.44074574361E+03  0.39330004595E+03  0.59085435981E+03  0.00000000000E+00 0. -1.
          1    1    6    6  503    0  0.17844189381E+03  0.10153432171E+03  0.14928538510E+03  0.25384415329E+03  0.00000000000E+00 0. -1.
         -1    1    6    6    0  503  0.15934574774E+03  0.10725505211E+03  0.41664780297E+02  0.19654685814E+03  0.00000000000E+00 0.  1.
<mgrwt>
<rscale>  0 0.35426833E+04</rscale>
<asrwt>0</asrwt>
<pdfrwt beam="1">  1        2 0.42498975E+00 0.35426833E+04</pdfrwt>
<pdfrwt beam="2">  1       -1 0.17474288E+00 0.35426833E+04</pdfrwt>
<totfact> 0.51463471E-01</totfact>
</mgrwt>
</event>
<event>
12    6  0.1611689E-007  0.1629611E+04  0.7818608E-02  0.8802560E-01
          2   -1    0    0  501    0  0.00000000000E+00  0.00000000000E+00  0.20351719234E+04  0.20351719234E+04  0.00000000000E+00 0. -1.
         -1   -1    0    0    0  501 -0.00000000000E+00 -0.00000000000E+00 -0.32621722592E+03  0.32621722592E+03  0.00000000000E+00 0.  1.
         24    2    1    2    0    0 -0.11646014092E+03 -0.19637296552E+03  0.14077778882E+04  0.14283971652E+04  0.79715575460E+02 0.  0.
        254    2    1    2    0    0  0.11646014092E+03  0.19637296552E+03  0.30117680925E+03  0.93299198413E+03  0.85301891304E+03 0.  0.
         23    2    4    4    0    0  0.19942049218E+03  0.83443234506E+02 -0.25821193474E+03  0.34905229585E+03  0.91830255938E+02 0.  0.
         23    2    4    4    0    0 -0.82960351259E+02  0.11292973101E+03  0.55938874399E+03  0.58393968828E+03  0.91838165341E+02 0.  0.
          4    1    3    3  502    0 -0.85321997663E+02 -0.13358330689E+03  0.73028961822E+03  0.74729329560E+03  0.00000000000E+00 0. -1.
         -3    1    3    3    0  502 -0.31138143259E+02 -0.62789658631E+02  0.67748826997E+03  0.68110386957E+03  0.00000000000E+00 0.  1.
         11    1    5    5    0    0 -0.90270856716E+01 -0.76747206654E+00 -0.46667374880E+01  0.10190963050E+02  0.00000000000E+00 0. -1.
        -11    1    5    5    0    0  0.20844757785E+03  0.84210706572E+02 -0.25354519725E+03  0.33886133280E+03  0.00000000000E+00 0.  1.
          2    1    6    6  503    0 -0.92721803530E+02  0.56701981892E+02  0.32448828879E+03  0.34220622023E+03  0.00000000000E+00 0. -1.
         -2    1    6    6    0  503  0.97614522711E+01  0.56227749120E+02  0.23490045520E+03  0.24173346805E+03  0.00000000000E+00 0.  1.
<mgrwt>
<rscale>  0 0.16296112E+04</rscale>
<asrwt>0</asrwt>
<pdfrwt beam="1">  1        2 0.31310336E+00 0.16296112E+04</pdfrwt>
<pdfrwt beam="2">  1       -1 0.50187267E-01 0.16296112E+04</pdfrwt>
<totfact> 0.27743854E+01</totfact>
</mgrwt>
</event>
<event>
12    6  0.1611689E-007  0.1634923E+04  0.7818608E-02  0.8799376E-01
          2   -1    0    0  501    0  0.00000000000E+00  0.00000000000E+00  0.17882555777E+04  0.17882555777E+04  0.00000000000E+00 0. -1.
         -1   -1    0    0    0  501 -0.00000000000E+00 -0.00000000000E+00 -0.37368450283E+03  0.37368450283E+03  0.00000000000E+00 0.  1.
         24    2    1    2    0    0 -0.31852639949E+03  0.26933046494E+03 -0.80976265270E+01  0.42432151448E+03  0.77364136279E+02 0.  0.
        254    2    1    2    0    0  0.31852639949E+03 -0.26933046494E+03  0.14226687013E+04  0.17376185660E+04  0.90627483724E+03 0.  0.
         23    2    4    4    0    0 -0.15694181713E+03  0.53503857932E+02  0.10052556978E+04  0.10225806020E+04  0.87399501871E+02 0.  0.
         23    2    4    4    0    0  0.47546821662E+03 -0.32283432287E+03  0.41741300359E+03  0.71503796401E+03  0.82180589962E+02 0.  0.
          2    1    3    3  502    0 -0.37956739962E+02  0.71127373785E+02 -0.52623116625E+01  0.80793003002E+02  0.00000000000E+00 0. -1.
         -1    1    3    3    0  502 -0.28056965952E+03  0.19820309116E+03 -0.28353148644E+01  0.34352851148E+03  0.00000000000E+00 0.  1.
         11    1    5    5    0    0 -0.73309950038E+02  0.37230950725E+02  0.72534407663E+03  0.72998939854E+03  0.00000000000E+00 0. -1.
        -11    1    5    5    0    0 -0.83631867094E+02  0.16272907207E+02  0.27991162112E+03  0.29259120346E+03  0.00000000000E+00 0.  1.
          3    1    6    6  503    0  0.20471362837E+03 -0.17608746509E+03  0.16163493221E+03  0.31470671475E+03  0.00000000000E+00 0. -1.
         -3    1    6    6    0  503  0.27075458825E+03 -0.14674685778E+03  0.25577807138E+03  0.40033124925E+03  0.00000000000E+00 0.  1.
<mgrwt>
<rscale>  0 0.16349231E+04</rscale>
<asrwt>0</asrwt>
<pdfrwt beam="1">  1        2 0.27511624E+00 0.16349231E+04</pdfrwt>
<pdfrwt beam="2">  1       -1 0.57489924E-01 0.16349231E+04</pdfrwt>
<totfact> 0.29241150E+01</totfact>
</mgrwt>
</event>
<event>
12    6  0.1611689E-007  0.1587904E+04  0.7818608E-02  0.8828014E-01
          2   -1    0    0  501    0  0.00000000000E+00  0.00000000000E+00  0.15506774223E+04  0.15506774223E+04  0.00000000000E+00 0. -1.
         -1   -1    0    0    0  501 -0.00000000000E+00 -0.00000000000E+00 -0.40650605407E+03  0.40650605407E+03  0.00000000000E+00 0.  1.
         24    2    1    2    0    0 -0.22642480332E+03  0.15224720638E+03  0.10095451959E+04  0.10488543251E+04  0.80414484279E+02 0.  0.
        254    2    1    2    0    0  0.22642480332E+03 -0.15224720638E+03  0.13462617234E+03  0.90832915128E+03  0.85585643503E+03 0.  0.
         23    2    4    4    0    0  0.32504520379E+03  0.27165029014E+03 -0.28507719397E+02  0.43458318540E+03  0.92744759037E+02 0.  0.
         23    2    4    4    0    0 -0.98620400465E+02 -0.42389749652E+03  0.16313389174E+03  0.47374596588E+03  0.91692434892E+02 0.  0.
          2    1    3    3  502    0 -0.13469097905E+03  0.95032155750E+02  0.74599846755E+03  0.76399377226E+03  0.00000000000E+00 0. -1.
         -1    1    3    3    0  502 -0.91733824278E+02  0.57215050631E+02  0.26354672838E+03  0.28486055286E+03  0.00000000000E+00 0.  1.
         11    1    5    5    0    0  0.13878337181E+03  0.16773178956E+03 -0.38400176985E+02  0.22106413349E+03  0.00000000000E+00 0.  1.
        -11    1    5    5    0    0  0.18626183198E+03  0.10391850057E+03  0.98924575871E+01  0.21351905191E+03  0.00000000000E+00 0. -1.
          1    1    6    6  503    0 -0.10053096514E+03 -0.40108805221E+03  0.12995103478E+03  0.43343439183E+03  0.00000000000E+00 0. -1.
         -1    1    6    6    0  503  0.19105646735E+01 -0.22809444302E+02  0.33182856958E+02  0.40311574053E+02  0.00000000000E+00 0.  1.
<mgrwt>
<rscale>  0 0.15879040E+04</rscale>
<asrwt>0</asrwt>
<pdfrwt beam="1">  1        2 0.23856575E+00 0.15879040E+04</pdfrwt>
<pdfrwt beam="2">  1       -1 0.62539394E-01 0.15879040E+04</pdfrwt>
<totfact> 0.33707844E+01</totfact>
</mgrwt>
</event>
<event>
12    6  0.1611689E-007  0.1345702E+04  0.7818608E-02  0.8994088E-01
         -1   -1    0    0    0  501 -0.00000000000E+00  0.00000000000E+00  0.19047947279E+03  0.19047947279E+03  0.00000000000E+00 0.  1.
          2   -1    0    0  501    0  0.00000000000E+00 -0.00000000000E+00 -0.23767817946E+04  0.23767817946E+04  0.00000000000E+00 0. -1.
         24    2    1    2    0    0 -0.35198503710E+03  0.19436217467E+02 -0.42232093277E+03  0.55523712289E+03  0.75246657653E+02 0.  0.
        254    2    1    2    0    0  0.35198503710E+03 -0.19436217467E+02 -0.17639813891E+04  0.20120241445E+04  0.90129883185E+03 0.  0.
         23    2    4    4    0    0  0.68658419489E+02  0.41711311934E+03 -0.67630972902E+03  0.80291812961E+03  0.92657111957E+02 0.  0.
         23    2    4    4    0    0  0.28332661761E+03 -0.43654933681E+03 -0.10876716601E+04  0.12091060149E+04  0.89768700166E+02 0.  0.
          4    1    3    3  502    0 -0.14843124600E+03 -0.13546634535E+02 -0.22457580122E+03  0.26953596530E+03  0.00000000000E+00 0. -1.
         -3    1    3    3    0  502 -0.20355379110E+03  0.32982852003E+02 -0.19774513155E+03  0.28570115759E+03  0.00000000000E+00 0.  1.
         11    1    5    5    0    0  0.81721377081E+02  0.40191156212E+03 -0.62218664732E+03  0.74520300009E+03  0.00000000000E+00 0.  1.
        -11    1    5    5    0    0 -0.13062957592E+02  0.15201557222E+02 -0.54123081702E+02  0.57715129524E+02  0.00000000000E+00 0. -1.
          2    1    6    6  503    0  0.55280579514E+02 -0.83170029645E+02 -0.13677962544E+03  0.16935720309E+03  0.00000000000E+00 0. -1.
         -2    1    6    6    0  503  0.22804603809E+03 -0.35337930716E+03 -0.95089203463E+03  0.10397488118E+04  0.00000000000E+00 0.  1.
<mgrwt>
<rscale>  0 0.13457015E+04</rscale>
<asrwt>0</asrwt>
<pdfrwt beam="1">  1        2 0.36565874E+00 0.13457015E+04</pdfrwt>
<pdfrwt beam="2">  1       -1 0.29304534E-01 0.13457015E+04</pdfrwt>
<totfact> 0.48656009E+01</totfact>
</mgrwt>
</event>
<event>
12    6  0.1611689E-007  0.2290790E+04  0.7818608E-02  0.8481561E-01
         -1   -1    0    0    0  501 -0.00000000000E+00  0.00000000000E+00  0.13023858230E+04  0.13023858230E+04  0.00000000000E+00 0.  1.
          2   -1    0    0  501    0  0.00000000000E+00 -0.00000000000E+00 -0.10073283619E+04  0.10073283619E+04  0.00000000000E+00 0. -1.
         24    2    1    2    0    0 -0.74920795468E+03 -0.45427395816E+03 -0.27736071105E+03  0.92266677029E+03  0.81900039908E+02 0.  0.
        254    2    1    2    0    0  0.74920795468E+03  0.45427395816E+03  0.57241817216E+03  0.13870474146E+04  0.91025302973E+03 0.  0.
         23    2    4    4    0    0 -0.14515940302E+03  0.89677387641E+02  0.33757412913E+03  0.38875521404E+03  0.89783281560E+02 0.  0.
         23    2    4    4    0    0  0.89436735770E+03  0.36459657051E+03  0.23484404303E+03  0.99829220057E+03  0.92800664937E+02 0.  0.
          4    1    3    3  502    0 -0.58030439196E+03 -0.33010793268E+03 -0.24165745899E+03  0.71001602942E+03  0.00000000000E+00 0. -1.
         -3    1    3    3    0  502 -0.16890356272E+03 -0.12416602548E+03 -0.35703252053E+02  0.21265074087E+03  0.00000000000E+00 0.  1.
         11    1    5    5    0    0 -0.12856464765E+03  0.54322400911E+02  0.31274493924E+03  0.34247509236E+03  0.00000000000E+00 0.  1.
        -11    1    5    5    0    0 -0.16594755371E+02  0.35354986730E+02  0.24829189892E+02  0.46280121685E+02  0.00000000000E+00 0. -1.
          3    1    6    6  503    0  0.31651049590E+03  0.12910277061E+03  0.12910704321E+03  0.36539711001E+03  0.00000000000E+00 0. -1.
         -3    1    6    6    0  503  0.57785686180E+03  0.23549379990E+03  0.10573699982E+03  0.63289509056E+03  0.00000000000E+00 0.  1.
<mgrwt>
<rscale>  0 0.22907904E+04</rscale>
<asrwt>0</asrwt>
<pdfrwt beam="1">  1        2 0.15497359E+00 0.22907904E+04</pdfrwt>
<pdfrwt beam="2">  1       -1 0.20036705E+00 0.22907904E+04</pdfrwt>
<totfact> 0.38572198E+00</totfact>
</mgrwt>
</event>
<event>
12    6  0.1611689E-007  0.1792970E+04  0.7818608E-02  0.8710047E-01
         -1   -1    0    0    0  501 -0.00000000000E+00  0.00000000000E+00  0.18222019664E+03  0.18222019664E+03  0.00000000000E+00 0.  1.
          2   -1    0    0  501    0  0.00000000000E+00 -0.00000000000E+00 -0.44105197808E+04  0.44105197808E+04  0.00000000000E+00 0. -1.
         24    2    1    2    0    0  0.63394607012E+03  0.49861988267E+02 -0.25182746180E+04  0.25986470004E+04  0.82977967859E+02 0.  0.
        254    2    1    2    0    0 -0.63394607012E+03 -0.49861988267E+02 -0.17100249661E+04  0.19940929770E+04  0.80488979283E+03 0.  0.
         23    2    4    4    0    0 -0.35979857626E+03  0.36154532275E+03 -0.96561323770E+03  0.10957811218E+04  0.90317807171E+02 0.  0.
         23    2    4    4    0    0 -0.27414749386E+03 -0.41140731102E+03 -0.74441172843E+03  0.89831185520E+03  0.91665390481E+02 0.  0.
          2    1    3    3  502    0  0.61078351445E+03  0.64040953394E+02 -0.24137585605E+04  0.24906601803E+04  0.00000000000E+00 0. -1.
         -1    1    3    3    0  502  0.23162555670E+02 -0.14178965127E+02 -0.10451605755E+03  0.10798682014E+03  0.00000000000E+00 0.  1.
         11    1    5    5    0    0 -0.25927353371E+03  0.27072045681E+03 -0.78593805241E+03  0.87075309545E+03  0.00000000000E+00 0.  1.
        -11    1    5    5    0    0 -0.10052504255E+03  0.90824865944E+02 -0.17967518529E+03  0.22502802639E+03  0.00000000000E+00 0. -1.
          2    1    6    6  503    0 -0.64813921311E+02 -0.48368348912E+02 -0.87837558341E+02  0.11939756374E+03  0.00000000000E+00 0. -1.
         -2    1    6    6    0  503 -0.20933357255E+03 -0.36303896211E+03 -0.65657417009E+03  0.77891429145E+03  0.00000000000E+00 0.  1.
<mgrwt>
<rscale>  0 0.17929705E+04</rscale>
<asrwt>0</asrwt>
<pdfrwt beam="1">  1        2 0.67854149E+00 0.17929705E+04</pdfrwt>
<pdfrwt beam="2">  1       -1 0.28033877E-01 0.17929705E+04</pdfrwt>
<totfact> 0.18933952E+00</totfact>
</mgrwt>
</event>
<event>
12    6  0.1611689E-007  0.1267703E+04  0.7818608E-02  0.9055577E-01
         -1   -1    0    0    0  501 -0.00000000000E+00  0.00000000000E+00  0.62158708555E+03  0.62158708555E+03  0.00000000000E+00 0.  1.
          2   -1    0    0  501    0  0.00000000000E+00 -0.00000000000E+00 -0.64635743990E+03  0.64635743990E+03  0.00000000000E+00 0. -1.
         24    2    1    2    0    0  0.20212312458E+03 -0.12608590079E+03  0.18655399749E+03  0.31394818550E+03  0.83723696348E+02 0.  0.
        254    2    1    2    0    0 -0.20212312458E+03  0.12608590079E+03 -0.21132435184E+03  0.95399633995E+03  0.89927727820E+03 0.  0.
         23    2    4    4    0    0 -0.37443982483E+03 -0.20526962180E+03  0.11360797359E+03  0.45093547492E+03  0.89973500687E+02 0.  0.
         23    2    4    4    0    0  0.17231670024E+03  0.33135552259E+03 -0.32493232542E+03  0.50306086503E+03  0.89440987753E+02 0.  0.
          4    1    3    3  502    0  0.11153891241E+03 -0.26222992791E+02  0.61434183702E+02  0.13001051211E+03  0.00000000000E+00 0. -1.
         -3    1    3    3    0  502  0.90584212173E+02 -0.99862907998E+02  0.12511981379E+03  0.18393767339E+03  0.00000000000E+00 0.  1.
         11    1    5    5    0    0 -0.23027743542E+03 -0.11039699783E+03  0.11069456062E+03  0.27833160105E+03  0.00000000000E+00 0.  1.
        -11    1    5    5    0    0 -0.14416238941E+03 -0.94872623971E+02  0.29134129706E+01  0.17260387387E+03  0.00000000000E+00 0. -1.
          1    1    6    6  503    0  0.52813897754E+02  0.44989321141E+02 -0.32257784474E+02  0.76510858522E+02  0.00000000000E+00 0. -1.
         -1    1    6    6    0  503  0.11950280249E+03  0.28636620145E+03 -0.29267454095E+03  0.42655000651E+03  0.00000000000E+00 0.  1.
<mgrwt>
<rscale>  0 0.12677025E+04</rscale>
<asrwt>0</asrwt>
<pdfrwt beam="1">  1        2 0.99439607E-01 0.12677025E+04</pdfrwt>
<pdfrwt beam="2">  1       -1 0.95628782E-01 0.12677025E+04</pdfrwt>
<totfact> 0.53637671E+01</totfact>
</mgrwt>
</event>
<event>
12    6  0.1611689E-007  0.1158446E+04  0.7818608E-02  0.9150027E-01
          2   -1    0    0  501    0  0.00000000000E+00  0.00000000000E+00  0.41294339070E+03  0.41294339070E+03  0.00000000000E+00 0. -1.
         -1   -1    0    0    0  501 -0.00000000000E+00 -0.00000000000E+00 -0.81245777036E+03  0.81245777036E+03  0.00000000000E+00 0.  1.
         24    2    1    2    0    0 -0.17468417928E+03  0.85772493959E+02 -0.17653528373E+03  0.27487058738E+03  0.80731965120E+02 0.  0.
        254    2    1    2    0    0  0.17468417928E+03 -0.85772493959E+02 -0.22297909593E+03  0.95053057368E+03  0.90328135765E+03 0.  0.
         23    2    4    4    0    0 -0.50656363679E+02 -0.28984546539E+03 -0.45947900139E+03  0.55256417759E+03  0.87348478237E+02 0.  0.
         23    2    4    4    0    0  0.22534054296E+03  0.20407297143E+03  0.23649990546E+03  0.39796639610E+03  0.10010449127E+03 0.  0.
          4    1    3    3  502    0 -0.93705112666E+02  0.64813792163E+02 -0.14738471136E+03  0.18628936882E+03  0.00000000000E+00 0. -1.
         -3    1    3    3    0  502 -0.80979066616E+02  0.20958701796E+02 -0.29150572371E+02  0.88581218554E+02  0.00000000000E+00 0.  1.
         11    1    5    5    0    0  0.26186999832E+01 -0.20650458103E+03 -0.28438197115E+03  0.35145996229E+03  0.00000000000E+00 0. -1.
        -11    1    5    5    0    0 -0.53275063662E+02 -0.83340884359E+02 -0.17509703024E+03  0.20110421530E+03  0.00000000000E+00 0.  1.
          1    1    6    6  503    0  0.12754994502E+03  0.17196565521E+03  0.13328622284E+03  0.25220307739E+03  0.00000000000E+00 0. -1.
         -1    1    6    6    0  503  0.97790597939E+02  0.32107316212E+02  0.10321368262E+03  0.14576331870E+03  0.00000000000E+00 0.  1.
<mgrwt>
<rscale>  0 0.11584456E+04</rscale>
<asrwt>0</asrwt>
<pdfrwt beam="1">  1        2 0.63529753E-01 0.11584456E+04</pdfrwt>
<pdfrwt beam="2">  1       -1 0.12499350E+00 0.11584456E+04</pdfrwt>
<totfact> 0.48625720E+01</totfact>
</mgrwt>
</event>
<event>
12    6  0.1611689E-007  0.1764483E+04  0.7818608E-02  0.8725418E-01
         -1   -1    0    0    0  501 -0.00000000000E+00  0.00000000000E+00  0.48445021986E+03  0.48445021986E+03  0.00000000000E+00 0.  1.
          2   -1    0    0  501    0  0.00000000000E+00 -0.00000000000E+00 -0.16066665539E+04  0.16066665539E+04  0.00000000000E+00 0. -1.
         24    2    1    2    0    0 -0.53154010911E+03  0.10423233683E+03 -0.30677699670E+02  0.54855978703E+03  0.81101486189E+02 0.  0.
        254    2    1    2    0    0  0.53154010911E+03 -0.10423233683E+03 -0.10915386344E+04  0.15425569868E+04  0.94584681603E+03 0.  0.
         23    2    4    4    0    0 -0.25388194010E+03 -0.10564514329E+03 -0.22595698283E+03  0.37011224288E+03  0.10153609422E+03 0.  0.
         23    2    4    4    0    0  0.78542204921E+03  0.14128064565E+01 -0.86558165157E+03  0.11724447439E+04  0.92224132008E+02 0.  0.
          4    1    3    3  502    0 -0.79797044363E+01  0.12282458997E+02 -0.75623553733E+01  0.16484043821E+02  0.00000000000E+00 0. -1.
         -3    1    3    3    0  502 -0.52356040467E+03  0.91949877834E+02 -0.23115344296E+02  0.53207574321E+03  0.00000000000E+00 0.  1.
         11    1    5    5    0    0 -0.11690947337E+03 -0.75972390793E+02 -0.57086338255E+02  0.15066014450E+03  0.00000000000E+00 0. -1.
        -11    1    5    5    0    0 -0.13697246674E+03 -0.29672752495E+02 -0.16887064457E+03  0.21945209838E+03  0.00000000000E+00 0.  1.
          1    1    6    6  503    0  0.73768639445E+03  0.22958141011E+02 -0.81716989724E+03  0.11011243952E+04  0.00000000000E+00 0. -1.
         -1    1    6    6    0  503  0.47735654759E+02 -0.21545334555E+02 -0.48411754329E+02  0.71320348664E+02  0.00000000000E+00 0.  1.
<mgrwt>
<rscale>  0 0.17644829E+04</rscale>
<asrwt>0</asrwt>
<pdfrwt beam="1">  1        2 0.24717947E+00 0.17644829E+04</pdfrwt>
<pdfrwt beam="2">  1       -1 0.74530804E-01 0.17644829E+04</pdfrwt>
<totfact> 0.21602731E+01</totfact>
</mgrwt>
</event>
<event>
12    6  0.1611689E-007  0.1087211E+04  0.7818608E-02  0.9217747E-01
          2   -1    0    0  501    0  0.00000000000E+00  0.00000000000E+00  0.32708965409E+04  0.32708965409E+04  0.00000000000E+00 0. -1.
         -1   -1    0    0    0  501 -0.00000000000E+00 -0.00000000000E+00 -0.90344339274E+02  0.90344339274E+02  0.00000000000E+00 0.  1.
         24    2    1    2    0    0 -0.44928469782E+02  0.13565991683E+03  0.29872170480E+03  0.34037142452E+03  0.78713844267E+02 0.  0.
        254    2    1    2    0    0  0.44928469782E+02 -0.13565991683E+03  0.28818304969E+04  0.30208694557E+04  0.89458542087E+03 0.  0.
         23    2    4    4    0    0  0.16319631727E+03  0.30944964087E+03  0.68547313740E+03  0.77488514008E+03  0.90451312898E+02 0.  0.
         23    2    4    4    0    0 -0.11826784748E+03 -0.44510955771E+03  0.21963573595E+04  0.22459843156E+04  0.91378845578E+02 0.  0.
          2    1    3    3  502    0 -0.21186855662E+02  0.10164581373E+02  0.11775980880E+02  0.26284506710E+02  0.00000000000E+00 0. -1.
         -1    1    3    3    0  502 -0.23741614120E+02  0.12549533546E+03  0.28694572392E+03  0.31408691781E+03  0.00000000000E+00 0.  1.
         11    1    5    5    0    0  0.10661524782E+03  0.11270793668E+03  0.33071315943E+03  0.36529588539E+03  0.00000000000E+00 0. -1.
        -11    1    5    5    0    0  0.56581069449E+02  0.19674170419E+03  0.35475997797E+03  0.40958925469E+03  0.00000000000E+00 0.  1.
          4    1    6    6  503    0 -0.95713722330E+02 -0.43065197142E+03  0.21073843545E+04  0.21530655017E+04  0.00000000000E+00 0.  1.
         -4    1    6    6    0  503 -0.22554125155E+02 -0.14457586283E+02  0.88973004956E+02  0.92918813883E+02  0.00000000000E+00 0. -1.
<mgrwt>
<rscale>  0 0.10872111E+04</rscale>
<asrwt>0</asrwt>
<pdfrwt beam="1">  1        2 0.50321476E+00 0.10872111E+04</pdfrwt>
<pdfrwt beam="2">  1       -1 0.13899132E-01 0.10872111E+04</pdfrwt>
<totfact> 0.50392314E+01</totfact>
</mgrwt>
</event>
<event>
12    6  0.1611689E-007  0.2203741E+04  0.7818608E-02  0.8516873E-01
          2   -1    0    0  501    0  0.00000000000E+00  0.00000000000E+00  0.20043112005E+04  0.20043112005E+04  0.00000000000E+00 0. -1.
         -1   -1    0    0    0  501 -0.00000000000E+00 -0.00000000000E+00 -0.60575341889E+03  0.60575341889E+03  0.00000000000E+00 0.  1.
         24    2    1    2    0    0  0.57451839660E+02  0.84657043980E+03  0.15682613050E+03  0.86623704354E+03  0.76091766768E+02 0.  0.
        254    2    1    2    0    0 -0.57451839660E+02 -0.84657043980E+03  0.12417316511E+04  0.17438275758E+04  0.88264086550E+03 0.  0.
         23    2    4    4    0    0 -0.21285707668E+03  0.78617966229E+02  0.10283669240E+03  0.26544610895E+03  0.91636956224E+02 0.  0.
         23    2    4    4    0    0  0.15540523702E+03 -0.92518840603E+03  0.11388949587E+04  0.14783814669E+04  0.91682388252E+02 0.  0.
          4    1    3    3  502    0  0.27617429584E+02  0.10246113041E+03  0.51636054434E+01  0.10624343972E+03  0.00000000000E+00 0. -1.
         -3    1    3    3    0  502  0.29834410076E+02  0.74410930939E+03  0.15166252506E+03  0.75999360383E+03  0.00000000000E+00 0.  1.
         11    1    5    5    0    0 -0.65405935732E+01  0.28375900470E+02  0.27724300167E+02  0.40207062955E+02  0.00000000000E+00 0.  1.
        -11    1    5    5    0    0 -0.20631648311E+03  0.50242065759E+02  0.75112392231E+02  0.22523904600E+03  0.00000000000E+00 0. -1.
          3    1    6    6  503    0  0.10808267622E+03 -0.81484764542E+03  0.97601870569E+03  0.12760372502E+04  0.00000000000E+00 0. -1.
         -3    1    6    6    0  503  0.47322560804E+02 -0.11034076061E+03  0.16287625298E+03  0.20234421662E+03  0.00000000000E+00 0.  1.
<mgrwt>
<rscale>  0 0.22037408E+04</rscale>
<asrwt>0</asrwt>
<pdfrwt beam="1">  1        2 0.30835557E+00 0.22037408E+04</pdfrwt>
<pdfrwt beam="2">  1       -1 0.93192835E-01 0.22037408E+04</pdfrwt>
<totfact> 0.77247315E+00</totfact>
</mgrwt>
</event>
<event>
12    6  0.1611689E-007  0.2248376E+04  0.7818608E-02  0.8498558E-01
          2   -1    0    0  501    0  0.00000000000E+00  0.00000000000E+00  0.22506356513E+04  0.22506356513E+04  0.00000000000E+00 0. -1.
         -1   -1    0    0    0  501 -0.00000000000E+00 -0.00000000000E+00 -0.56152972726E+03  0.56152972726E+03  0.00000000000E+00 0.  1.
         24    2    1    2    0    0  0.89575238149E+02  0.60755716338E+03  0.16101089872E+04  0.17251251840E+04  0.80352472047E+02 0.  0.
        254    2    1    2    0    0 -0.89575238149E+02 -0.60755716338E+03  0.78996936754E+02  0.10870401945E+04  0.89345757499E+03 0.  0.
         23    2    4    4    0    0 -0.22257750047E+03 -0.13119809827E+03 -0.33743165425E+03  0.43459512850E+03  0.90879699161E+02 0.  0.
         23    2    4    4    0    0  0.13300226232E+03 -0.47635906511E+03  0.41642859101E+03  0.65244506597E+03  0.87545599567E+02 0.  0.
          2    1    3    3  502    0  0.66488369131E+02  0.50856091571E+03  0.12551357553E+04  0.13558837238E+04  0.00000000000E+00 0. -1.
         -1    1    3    3    0  502  0.23086869018E+02  0.98996247672E+02  0.35497323190E+03  0.36924146022E+03  0.00000000000E+00 0.  1.
         11    1    5    5    0    0 -0.13113515620E+03 -0.38455392851E+02 -0.12381667741E+03  0.18440665941E+03  0.00000000000E+00 0.  1.
        -11    1    5    5    0    0 -0.91442344275E+02 -0.92742705417E+02 -0.21361497684E+03  0.25018846909E+03  0.00000000000E+00 0. -1.
          3    1    6    6  503    0  0.43129454625E+02 -0.12770998042E+03  0.16616532482E+03  0.21396472636E+03  0.00000000000E+00 0. -1.
         -3    1    6    6    0  503  0.89872807699E+02 -0.34864908469E+03  0.25026326619E+03  0.43848033961E+03  0.00000000000E+00 0.  1.
<mgrwt>
<rscale>  0 0.22483761E+04</rscale>
<asrwt>0</asrwt>
<pdfrwt beam="1">  1        2 0.34625163E+00 0.22483761E+04</pdfrwt>
<pdfrwt beam="2">  1       -1 0.86389190E-01 0.22483761E+04</pdfrwt>
<totfact> 0.66198039E+00</totfact>
</mgrwt>
</event>
<event>
12    6  0.1611689E-007  0.1269753E+04  0.7818608E-02  0.9053902E-01
         -1   -1    0    0    0  501 -0.00000000000E+00  0.00000000000E+00  0.33093612271E+04  0.33093612271E+04  0.00000000000E+00 0.  1.
          2   -1    0    0  501    0  0.00000000000E+00 -0.00000000000E+00 -0.12179630473E+03  0.12179630473E+03  0.00000000000E+00 0. -1.
         24    2    1    2    0    0  0.16355806767E+03  0.20028511455E+02  0.97096339558E+02  0.20713288824E+03  0.79523276255E+02 0.  0.
        254    2    1    2    0    0 -0.16355806767E+03 -0.20028511455E+02  0.30904685829E+04  0.32240246436E+04  0.90343038381E+03 0.  0.
         23    2    4    4    0    0 -0.19938052074E+03  0.30893123241E+03  0.25867025668E+04  0.26142944506E+04  0.91182273431E+02 0.  0.
         23    2    4    4    0    0  0.35822453071E+02 -0.32895974387E+03  0.50376601602E+03  0.60973019299E+03  0.92157192439E+02 0.  0.
          2    1    3    3  502    0  0.15923238769E+03  0.28961631901E+01  0.68167419990E+02  0.17323434474E+03  0.00000000000E+00 0. -1.
         -1    1    3    3    0  502  0.43256799830E+01  0.17132348265E+02  0.28928919568E+02  0.33898543505E+02  0.00000000000E+00 0.  1.
         11    1    5    5    0    0 -0.10488281273E+03  0.23854695934E+03  0.18362340428E+04  0.18546321781E+04  0.00000000000E+00 0. -1.
        -11    1    5    5    0    0 -0.94497708006E+02  0.70384273071E+02  0.75046852406E+03  0.75966227254E+03  0.00000000000E+00 0.  1.
          1    1    6    6  503    0 -0.71849927049E+00 -0.22148141561E+03  0.39305947063E+03  0.45116546982E+03  0.00000000000E+00 0. -1.
         -1    1    6    6    0  503  0.36540952341E+02 -0.10747832826E+03  0.11070654538E+03  0.15856472317E+03  0.00000000000E+00 0.  1.
<mgrwt>
<rscale>  0 0.12697527E+04</rscale>
<asrwt>0</asrwt>
<pdfrwt beam="1">  1        2 0.18737896E-01 0.12697527E+04</pdfrwt>
<pdfrwt beam="2">  1       -1 0.50913243E+00 0.12697527E+04</pdfrwt>
<totfact> 0.45391019E-01</totfact>
</mgrwt>
</event>
<event>
12    6  0.1611689E-007  0.1404457E+04  0.7818608E-02  0.8950598E-01
          2   -1    0    0  501    0  0.00000000000E+00  0.00000000000E+00  0.74576190384E+03  0.74576190384E+03  0.00000000000E+00 0. -1.
         -1   -1    0    0    0  501 -0.00000000000E+00 -0.00000000000E+00 -0.66123659873E+03  0.66123659873E+03  0.00000000000E+00 0.  1.
         24    2    1    2    0    0  0.73690535312E+02  0.45489773273E+03 -0.13670707115E+02  0.46662241104E+03  0.72023218578E+02 0.  0.
        254    2    1    2    0    0 -0.73690535312E+02 -0.45489773273E+03  0.98196012224E+02  0.94037609152E+03  0.81381969407E+03 0.  0.
         23    2    4    4    0    0  0.64406241984E+02  0.20924099945E+03 -0.44501230525E+02  0.24137555895E+03  0.91388407813E+02 0.  0.
         23    2    4    4    0    0 -0.13809677730E+03 -0.66413873218E+03  0.14269724275E+03  0.69900053257E+03  0.89934787291E+02 0.  0.
          2    1    3    3  502    0  0.23725988999E+01  0.15418168534E+03  0.21012916781E+02  0.15562507508E+03  0.00000000000E+00 0. -1.
         -1    1    3    3    0  502  0.71317936412E+02  0.30071604739E+03 -0.34683623896E+02  0.31099733596E+03  0.00000000000E+00 0.  1.
         11    1    5    5    0    0  0.52946707219E+02  0.19095305045E+03 -0.72089893314E+01  0.19828865527E+03  0.00000000000E+00 0. -1.
        -11    1    5    5    0    0  0.11459534765E+02  0.18287949004E+02 -0.37292241194E+02  0.43086903684E+02  0.00000000000E+00 0.  1.
          3    1    6    6  503    0 -0.56571467683E+02 -0.20199629465E+03  0.45774021209E+01  0.20981846110E+03  0.00000000000E+00 0. -1.
         -3    1    6    6    0  503 -0.81525309613E+02 -0.46214243753E+03  0.13811984063E+03  0.48918207147E+03  0.00000000000E+00 0.  1.
<mgrwt>
<rscale>  0 0.14044573E+04</rscale>
<asrwt>0</asrwt>
<pdfrwt beam="1">  1        2 0.11473260E+00 0.14044573E+04</pdfrwt>
<pdfrwt beam="2">  1       -1 0.10172871E+00 0.14044573E+04</pdfrwt>
<totfact> 0.38476598E+01</totfact>
</mgrwt>
</event>
<event>
12    6  0.1611689E-007  0.1234919E+04  0.7818608E-02  0.9082829E-01
          4   -1    0    0  501    0  0.00000000000E+00  0.00000000000E+00  0.93346483495E+03  0.93346483495E+03  0.00000000000E+00 0. -1.
         -3   -1    0    0    0  501 -0.00000000000E+00 -0.00000000000E+00 -0.40843137163E+03  0.40843137163E+03  0.00000000000E+00 0.  1.
         24    2    1    2    0    0  0.64835486399E+00  0.17782384007E+03  0.35796578653E+03  0.40777841788E+03  0.80758871371E+02 0.  0.
        254    2    1    2    0    0 -0.64835486399E+00 -0.17782384007E+03  0.16706767679E+03  0.93411778870E+03  0.90168880224E+03 0.  0.
         23    2    4    4    0    0  0.31725296523E+03 -0.22020281683E+03 -0.19454064727E+03  0.44204859646E+03  0.91772401668E+02 0.  0.
         23    2    4    4    0    0 -0.31790132009E+03  0.42378976766E+02  0.36160832406E+03  0.49206919224E+03  0.92272872116E+02 0.  0.
          4    1    3    3  502    0  0.23757436455E+02  0.26123884485E+02  0.11601694324E+03  0.12127161352E+03  0.00000000000E+00 0. -1.
         -3    1    3    3    0  502 -0.23109081591E+02  0.15169995558E+03  0.24194884329E+03  0.28650680436E+03  0.00000000000E+00 0.  1.
         11    1    5    5    0    0  0.64610294590E+02 -0.19775235932E+02 -0.44757562159E+01  0.67716929322E+02  0.00000000000E+00 0.  1.
        -11    1    5    5    0    0  0.25264267064E+03 -0.20042758090E+03 -0.19006489106E+03  0.37433166714E+03  0.00000000000E+00 0. -1.
          2    1    6    6  503    0 -0.26157318585E+03  0.30973284957E+02  0.34128694203E+03  0.43111095177E+03  0.00000000000E+00 0. -1.
         -2    1    6    6    0  503 -0.56328134245E+02  0.11405691808E+02  0.20321382034E+02  0.60958240468E+02  0.00000000000E+00 0.  1.
<mgrwt>
<rscale>  0 0.12349191E+04</rscale>
<asrwt>0</asrwt>
<pdfrwt beam="1">  1        4 0.14360997E+00 0.12349191E+04</pdfrwt>
<pdfrwt beam="2">  1       -3 0.62835596E-01 0.12349191E+04</pdfrwt>
<totfact> 0.18509981E+00</totfact>
</mgrwt>
</event>
<event>
12    6  0.1611689E-007  0.1297702E+04  0.7818608E-02  0.9031390E-01
          2   -1    0    0  501    0  0.00000000000E+00  0.00000000000E+00  0.58076794770E+03  0.58076794770E+03  0.00000000000E+00 0. -1.
         -1   -1    0    0    0  501 -0.00000000000E+00 -0.00000000000E+00 -0.72491529401E+03  0.72491529401E+03  0.00000000000E+00 0.  1.
         24    2    1    2    0    0 -0.90724587802E+02  0.14133370008E+03 -0.31536802340E+03  0.36601063432E+03  0.79376499325E+02 0.  0.
        254    2    1    2    0    0  0.90724587802E+02 -0.14133370008E+03  0.17122067708E+03  0.93967260739E+03  0.90854935100E+03 0.  0.
         23    2    4    4    0    0 -0.26694199738E+03 -0.26876010228E+03  0.33775739443E+03  0.51521740252E+03  0.88763121975E+02 0.  0.
         23    2    4    4    0    0  0.35766658518E+03  0.12742640220E+03 -0.16653671735E+03  0.42445520487E+03  0.90911322609E+02 0.  0.
          2    1    3    3  502    0 -0.28901117700E+02  0.68279933817E+02 -0.67343833079E+02  0.10016294634E+03  0.00000000000E+00 0. -1.
         -1    1    3    3    0  502 -0.61823470102E+02  0.73053766264E+02 -0.24802419032E+03  0.26584768798E+03  0.00000000000E+00 0.  1.
         11    1    5    5    0    0 -0.34788968618E+02 -0.79513056596E+02  0.10282195444E+03  0.13455464623E+03  0.00000000000E+00 0. -1.
        -11    1    5    5    0    0 -0.23215302876E+03 -0.18924704569E+03  0.23493544000E+03  0.38066275630E+03  0.00000000000E+00 0.  1.
          4    1    6    6  503    0  0.18401033025E+03  0.85107225366E+02 -0.43192131414E+02  0.20728869160E+03  0.00000000000E+00 0. -1.
         -4    1    6    6    0  503  0.17365625493E+03  0.42319176834E+02 -0.12334458594E+03  0.21716651327E+03  0.00000000000E+00 0.  1.
<mgrwt>
<rscale>  0 0.12977019E+04</rscale>
<asrwt>0</asrwt>
<pdfrwt beam="1">  1        2 0.89348915E-01 0.12977019E+04</pdfrwt>
<pdfrwt beam="2">  1       -1 0.11152543E+00 0.12977019E+04</pdfrwt>
<totfact> 0.42713307E+01</totfact>
</mgrwt>
</event>
<event>
12    6  0.1611689E-007  0.1322501E+04  0.7818608E-02  0.9011909E-01
         -1   -1    0    0    0  501 -0.00000000000E+00  0.00000000000E+00  0.29011748782E+03  0.29011748782E+03  0.00000000000E+00 0.  1.
          2   -1    0    0  501    0  0.00000000000E+00 -0.00000000000E+00 -0.15071561957E+04  0.15071561957E+04  0.00000000000E+00 0. -1.
         24    2    1    2    0    0 -0.11418929793E+03 -0.11183475953E+03 -0.57359811251E+03  0.60084603566E+03  0.80342732631E+02 0.  0.
        254    2    1    2    0    0  0.11418929793E+03  0.11183475953E+03 -0.64344059540E+03  0.11964276479E+04  0.99593027248E+03 0.  0.
         23    2    4    4    0    0  0.37960336260E+03  0.26152804192E+03  0.99527569835E+01  0.47003055732E+03  0.91290951577E+02 0.  0.
         23    2    4    4    0    0 -0.26541406467E+03 -0.14969328238E+03 -0.65339335238E+03  0.72639709058E+03  0.88753342173E+02 0.  0.
          4    1    3    3  502    0 -0.62102915389E+02 -0.69092296867E+02 -0.19140403971E+03  0.21275813499E+03  0.00000000000E+00 0. -1.
         -3    1    3    3    0  502 -0.52086382537E+02 -0.42742462665E+02 -0.38219407281E+03  0.38808790067E+03  0.00000000000E+00 0.  1.
         11    1    5    5    0    0  0.34380875084E+03  0.20132772106E+03  0.21723302038E+02  0.39901028843E+03  0.00000000000E+00 0.  1.
        -11    1    5    5    0    0  0.35794611751E+02  0.60200320857E+02 -0.11770545055E+02  0.71020268886E+02  0.00000000000E+00 0. -1.
          4    1    6    6  503    0 -0.25424810325E+03 -0.12181310428E+03 -0.62222457212E+03  0.68311342289E+03  0.00000000000E+00 0.  1.
         -4    1    6    6    0  503 -0.11165961418E+02 -0.27880178102E+02 -0.31168780257E+02  0.43283667683E+02  0.00000000000E+00 0. -1.
<mgrwt>
<rscale>  0 0.13225012E+04</rscale>
<asrwt>0</asrwt>
<pdfrwt beam="1">  1        2 0.23187018E+00 0.13225012E+04</pdfrwt>
<pdfrwt beam="2">  1       -1 0.44633460E-01 0.13225012E+04</pdfrwt>
<totfact> 0.69723482E+01</totfact>
</mgrwt>
</event>
<event>
12    6  0.1611689E-007  0.2084956E+04  0.7818608E-02  0.8567900E-01
          2   -1    0    0  501    0  0.00000000000E+00  0.00000000000E+00  0.92382707354E+03  0.92382707354E+03  0.00000000000E+00 0. -1.
         -1   -1    0    0    0  501 -0.00000000000E+00 -0.00000000000E+00 -0.11763674107E+04  0.11763674107E+04  0.00000000000E+00 0.  1.
         24    2    1    2    0    0  0.39446212263E+01  0.77940451205E+03  0.24346421718E+03  0.82049770577E+03  0.80341189297E+02 0.  0.
        254    2    1    2    0    0 -0.39446212263E+01 -0.77940451205E+03 -0.49600455430E+03  0.12796967784E+04  0.88550345757E+03 0.  0.
         23    2    4    4    0    0 -0.23602432918E+03 -0.81802575463E+03 -0.17975248891E+03  0.87509661338E+03  0.92787425163E+02 0.  0.
         23    2    4    4    0    0  0.23207970795E+03  0.38621242583E+02 -0.31625206539E+03  0.40460016504E+03  0.91287093655E+02 0.  0.
          2    1    3    3  502    0  0.37265221056E+01  0.50275612169E+02  0.37516444336E+02  0.62841130970E+02  0.00000000000E+00 0. -1.
         -1    1    3    3    0  502  0.21809912073E+00  0.72912889988E+03  0.20594777284E+03  0.75765657480E+03  0.00000000000E+00 0.  1.
         11    1    5    5    0    0 -0.15965668115E+03 -0.61187602710E+03 -0.94874798250E+02  0.63944018932E+03  0.00000000000E+00 0.  1.
        -11    1    5    5    0    0 -0.76367648029E+02 -0.20614972753E+03 -0.84877690660E+02  0.23565642406E+03  0.00000000000E+00 0. -1.
          4    1    6    6  503    0  0.21784658380E+01  0.12240815943E+02  0.35568539152E+00  0.12438239444E+02  0.00000000000E+00 0. -1.
         -4    1    6    6    0  503  0.22990124211E+03  0.26380426640E+02 -0.31660775078E+03  0.39216192560E+03  0.00000000000E+00 0.  1.
<mgrwt>
<rscale>  0 0.20849557E+04</rscale>
<asrwt>0</asrwt>
<pdfrwt beam="1">  1        2 0.14212724E+00 0.20849557E+04</pdfrwt>
<pdfrwt beam="2">  1       -1 0.18097960E+00 0.20849557E+04</pdfrwt>
<totfact> 0.60905481E+00</totfact>
</mgrwt>
</event>
<event>
12    6  0.1611689E-007  0.2498664E+04  0.7818608E-02  0.8403462E-01
          2   -1    0    0  501    0  0.00000000000E+00  0.00000000000E+00  0.22586001276E+04  0.22586001276E+04  0.00000000000E+00 0. -1.
         -1   -1    0    0    0  501 -0.00000000000E+00 -0.00000000000E+00 -0.69106113543E+03  0.69106113543E+03  0.00000000000E+00 0.  1.
         24    2    1    2    0    0 -0.13582013938E+03 -0.55666643786E+03 -0.41728850614E+03  0.71421411042E+03  0.87449784839E+02 0.  0.
        254    2    1    2    0    0  0.13582013938E+03  0.55666643786E+03  0.19848274983E+04  0.22354471526E+04  0.85402525768E+03 0.  0.
         23    2    4    4    0    0  0.48197220601E+03  0.28463683307E+03  0.93437156319E+03  0.10929641702E+04  0.90582145597E+02 0.  0.
         23    2    4    4    0    0 -0.34615206663E+03  0.27202960479E+03  0.10504559351E+04  0.11424829824E+04  0.89377482508E+02 0.  0.
          4    1    3    3  502    0 -0.45083412482E+02 -0.22943432406E+03 -0.22232562477E+03  0.32264734086E+03  0.00000000000E+00 0. -1.
         -3    1    3    3    0  502 -0.90736726894E+02 -0.32723211380E+03 -0.19496288137E+03  0.39156676956E+03  0.00000000000E+00 0.  1.
         11    1    5    5    0    0  0.17804824934E+03  0.96718909288E+02  0.42412367633E+03  0.47003895512E+03  0.00000000000E+00 0. -1.
        -11    1    5    5    0    0  0.30392395667E+03  0.18791792378E+03  0.51024788687E+03  0.62292521507E+03  0.00000000000E+00 0.  1.
          1    1    6    6  503    0 -0.12952244507E+03  0.49519304647E+02  0.31932373685E+03  0.34813197817E+03  0.00000000000E+00 0. -1.
         -1    1    6    6    0  503 -0.21662962157E+03  0.22251030014E+03  0.73113219827E+03  0.79435100425E+03  0.00000000000E+00 0.  1.
<mgrwt>
<rscale>  0 0.24986643E+04</rscale>
<asrwt>0</asrwt>
<pdfrwt beam="1">  1        2 0.34747694E+00 0.24986643E+04</pdfrwt>
<pdfrwt beam="2">  1       -1 0.10631710E+00 0.24986643E+04</pdfrwt>
<totfact> 0.40143655E+00</totfact>
</mgrwt>
</event>
<event>
12    6  0.1611689E-007  0.2572684E+04  0.7818608E-02  0.8377540E-01
         -1   -1    0    0    0  501 -0.00000000000E+00  0.00000000000E+00  0.94107755548E+03  0.94107755548E+03  0.00000000000E+00 0.  1.
          2   -1    0    0  501    0  0.00000000000E+00 -0.00000000000E+00 -0.17582772563E+04  0.17582772563E+04  0.00000000000E+00 0. -1.
         24    2    1    2    0    0  0.50587783419E+03 -0.34223761132E+03  0.63701239370E+03  0.88598194546E+03  0.78359761476E+02 0.  0.
        254    2    1    2    0    0 -0.50587783419E+03  0.34223761132E+03 -0.14542120945E+04  0.18133728663E+04  0.89473424587E+03 0.  0.
         23    2    4    4    0    0 -0.72646659452E+03  0.10614197734E+03 -0.10979832045E+04  0.13238200201E+04  0.88952211410E+02 0.  0.
         23    2    4    4    0    0  0.22058876032E+03  0.23609563399E+03 -0.35622889001E+03  0.48955284623E+03  0.91446255276E+02 0.  0.
          2    1    3    3  502    0  0.55862622146E+02 -0.68224528519E+02  0.10692387487E+03  0.13859269051E+03  0.00000000000E+00 0. -1.
         -1    1    3    3    0  502  0.45001521204E+03 -0.27401308281E+03  0.53008851883E+03  0.74738925495E+03  0.00000000000E+00 0.  1.
         11    1    5    5    0    0 -0.24131369376E+03  0.46977073947E+02 -0.44215506084E+03  0.50590536872E+03  0.00000000000E+00 0.  1.
        -11    1    5    5    0    0 -0.48515290075E+03  0.59164903389E+02 -0.65582814370E+03  0.81791465140E+03  0.00000000000E+00 0. -1.
          1    1    6    6  503    0  0.11729443847E+03  0.17257136749E+03 -0.26768547135E+03  0.33940296661E+03  0.00000000000E+00 0. -1.
         -1    1    6    6    0  503  0.10329432185E+03  0.63524266498E+02 -0.88543418663E+02  0.15014987962E+03  0.00000000000E+00 0.  1.
<mgrwt>
<rscale>  0 0.25726836E+04</rscale>
<asrwt>0</asrwt>
<pdfrwt beam="1">  1        2 0.27050419E+00 0.25726836E+04</pdfrwt>
<pdfrwt beam="2">  1       -1 0.14478116E+00 0.25726836E+04</pdfrwt>
<totfact> 0.35237197E+00</totfact>
</mgrwt>
</event>
<event>
12    6  0.1611689E-007  0.2104609E+04  0.7818608E-02  0.8559216E-01
          2   -1    0    0  501    0  0.00000000000E+00  0.00000000000E+00  0.12725205545E+04  0.12725205545E+04  0.00000000000E+00 0. -1.
         -1   -1    0    0    0  501 -0.00000000000E+00 -0.00000000000E+00 -0.87019767906E+03  0.87019767906E+03  0.00000000000E+00 0.  1.
         24    2    1    2    0    0 -0.19625526382E+03  0.23027669530E+03 -0.63908588635E+03  0.71166898418E+03  0.80613199517E+02 0.  0.
        254    2    1    2    0    0  0.19625526382E+03 -0.23027669530E+03  0.10414087618E+04  0.14310492494E+04  0.93371637024E+03 0.  0.
         23    2    4    4    0    0 -0.28790893404E+02 -0.36714019404E+03  0.10846584096E+04  0.11495383083E+04  0.96610656981E+02 0.  0.
         23    2    4    4    0    0  0.22504615722E+03  0.13686349874E+03 -0.43249647811E+02  0.28151094111E+03  0.89445445713E+02 0.  0.
          4    1    3    3  502    0 -0.54004482329E+02  0.12483973048E+03 -0.27270257801E+03  0.30474274146E+03  0.00000000000E+00 0. -1.
         -3    1    3    3    0  502 -0.14225078149E+03  0.10543696481E+03 -0.36638330834E+03  0.40692624272E+03  0.00000000000E+00 0.  1.
         11    1    5    5    0    0  0.27783344483E+02 -0.17042595997E+03  0.57311314510E+03  0.59856127435E+03  0.00000000000E+00 0.  1.
        -11    1    5    5    0    0 -0.56574237887E+02 -0.19671423407E+03  0.51154526453E+03  0.55097703395E+03  0.00000000000E+00 0. -1.
          1    1    6    6  503    0  0.92608935146E+02  0.55151140767E+02  0.26470547476E+02  0.11098987828E+03  0.00000000000E+00 0. -1.
         -1    1    6    6    0  503  0.13243722208E+03  0.81712357975E+02 -0.69720195287E+02  0.17052106283E+03  0.00000000000E+00 0.  1.
<mgrwt>
<rscale>  0 0.21046087E+04</rscale>
<asrwt>0</asrwt>
<pdfrwt beam="1">  1        2 0.19577239E+00 0.21046087E+04</pdfrwt>
<pdfrwt beam="2">  1       -1 0.13387657E+00 0.21046087E+04</pdfrwt>
<totfact> 0.84784687E+00</totfact>
</mgrwt>
</event>
<event>
12    6  0.1611689E-007  0.2918363E+04  0.7818608E-02  0.8267435E-01
         -1   -1    0    0    0  501 -0.00000000000E+00  0.00000000000E+00  0.12258675425E+04  0.12258675425E+04  0.00000000000E+00 0.  1.
          2   -1    0    0  501    0  0.00000000000E+00 -0.00000000000E+00 -0.17369006347E+04  0.17369006347E+04  0.00000000000E+00 0. -1.
         24    2    1    2    0    0  0.11585142232E+03 -0.11778439137E+04  0.36083225445E+03  0.12401264571E+04  0.83521714217E+02 0.  0.
        254    2    1    2    0    0 -0.11585142232E+03  0.11778439137E+04 -0.87186534673E+03  0.17226417201E+04  0.89811328686E+03 0.  0.
         23    2    4    4    0    0  0.50096245060E+02  0.12221207485E+04 -0.54239254528E+03  0.13409374788E+04  0.88514922117E+02 0.  0.
         23    2    4    4    0    0 -0.16594766738E+03 -0.44276834802E+02 -0.32947280145E+03  0.38170424126E+03  0.87445608747E+02 0.  0.
          4    1    3    3  502    0  0.12748839359E+02 -0.33743594638E+03  0.69952456785E+02  0.34484619329E+03  0.00000000000E+00 0. -1.
         -3    1    3    3    0  502  0.10310258296E+03 -0.84040796727E+03  0.29087979767E+03  0.89528026380E+03  0.00000000000E+00 0.  1.
         11    1    5    5    0    0  0.26912093645E+02  0.11036329718E+04 -0.46755712284E+03  0.11988910127E+04  0.00000000000E+00 0.  1.
        -11    1    5    5    0    0  0.23184151416E+02  0.11848777670E+03 -0.74835422441E+02  0.14204646619E+03  0.00000000000E+00 0. -1.
          4    1    6    6  503    0 -0.16077917357E+03 -0.60847610924E+02 -0.31598986710E+03  0.35972485391E+03  0.00000000000E+00 0.  1.
         -4    1    6    6    0  503 -0.51684938089E+01  0.16570776121E+02 -0.13482934348E+02  0.21979387347E+02  0.00000000000E+00 0. -1.
<mgrwt>
<rscale>  0 0.29183626E+04</rscale>
<asrwt>0</asrwt>
<pdfrwt beam="1">  1        2 0.26721548E+00 0.29183626E+04</pdfrwt>
<pdfrwt beam="2">  1       -1 0.18859501E+00 0.29183626E+04</pdfrwt>
<totfact> 0.16585737E+00</totfact>
</mgrwt>
</event>
<event>
12    6  0.1611689E-007  0.1917305E+04  0.7818608E-02  0.8646290E-01
          2   -1    0    0  501    0  0.00000000000E+00  0.00000000000E+00  0.32072590992E+04  0.32072590992E+04  0.00000000000E+00 0. -1.
         -1   -1    0    0    0  501 -0.00000000000E+00 -0.00000000000E+00 -0.28654201742E+03  0.28654201742E+03  0.00000000000E+00 0.  1.
         24    2    1    2    0    0 -0.32681550591E+03  0.18441892127E+03 -0.33136155155E+02  0.38499522839E+03  0.79401559658E+02 0.  0.
        254    2    1    2    0    0  0.32681550591E+03 -0.18441892127E+03  0.29538532370E+04  0.31088058883E+04  0.89364780082E+03 0.  0.
         23    2    4    4    0    0  0.33333686066E+03 -0.39719928649E+03  0.27485266598E+04  0.27986282771E+04  0.95082584166E+02 0.  0.
         23    2    4    4    0    0 -0.65213547536E+01  0.21278036522E+03  0.20532657717E+03  0.31017761118E+03  0.93451245538E+02 0.  0.
          2    1    3    3  502    0 -0.18719209888E+03  0.74931006061E+02  0.11746489045E+02  0.20197405170E+03  0.00000000000E+00 0. -1.
         -1    1    3    3    0  502 -0.13962340703E+03  0.10948791521E+03 -0.44882644201E+02  0.18302117669E+03  0.00000000000E+00 0.  1.
         11    1    5    5    0    0  0.16512928565E+03 -0.21766153482E+03  0.12023218185E+04  0.12329728221E+04  0.00000000000E+00 0. -1.
        -11    1    5    5    0    0  0.16820757502E+03 -0.17953775167E+03  0.15462048413E+04  0.15656554550E+04  0.00000000000E+00 0.  1.
          4    1    6    6  503    0 -0.44056731868E+02  0.13755807202E+03  0.15646305446E+03  0.21294108624E+03  0.00000000000E+00 0. -1.
         -4    1    6    6    0  503  0.37535377114E+02  0.75222293204E+02  0.48863522719E+02  0.97236524940E+02  0.00000000000E+00 0.  1.
<mgrwt>
<rscale>  0 0.19173049E+04</rscale>
<asrwt>0</asrwt>
<pdfrwt beam="1">  1        2 0.49342445E+00 0.19173049E+04</pdfrwt>
<pdfrwt beam="2">  1       -1 0.44083390E-01 0.19173049E+04</pdfrwt>
<totfact> 0.69795085E+00</totfact>
</mgrwt>
</event>
<event>
12    6  0.1611689E-007  0.3489345E+04  0.7818608E-02  0.8116320E-01
          2   -1    0    0  501    0  0.00000000000E+00  0.00000000000E+00  0.17330315611E+04  0.17330315611E+04  0.00000000000E+00 0. -1.
         -1   -1    0    0    0  501 -0.00000000000E+00 -0.00000000000E+00 -0.17563918412E+04  0.17563918412E+04  0.00000000000E+00 0.  1.
         24    2    1    2    0    0  0.69679720665E+03 -0.81356918373E+03 -0.12306783148E+04  0.16334958883E+04  0.79489236077E+02 0.  0.
        254    2    1    2    0    0 -0.69679720665E+03  0.81356918373E+03  0.12073180347E+04  0.18559275141E+04  0.91620354551E+03 0.  0.
         23    2    4    4    0    0  0.19114091793E+02 -0.85300187416E+02 -0.63615548680E+02  0.14020389252E+03  0.89267703938E+02 0.  0.
         23    2    4    4    0    0 -0.71591129845E+03  0.89886937115E+03  0.12709335833E+04  0.17157236216E+04  0.89108016986E+02 0.  0.
          2    1    3    3  502    0  0.23124638593E+02 -0.22190681236E+02 -0.19388761400E+02  0.37457967275E+02  0.00000000000E+00 0. -1.
         -1    1    3    3    0  502  0.67367256806E+03 -0.79137850249E+03 -0.12112895534E+04  0.15960379210E+04  0.00000000000E+00 0.  1.
         11    1    5    5    0    0  0.54491076721E+02 -0.45655265167E+02 -0.28929716063E+02  0.76750303916E+02  0.00000000000E+00 0.  1.
        -11    1    5    5    0    0 -0.35376984928E+02 -0.39644922249E+02 -0.34685832617E+02  0.63453588607E+02  0.00000000000E+00 0. -1.
          1    1    6    6  503    0 -0.43804887524E+02  0.81852488503E+02  0.13037363074E+03  0.16004993482E+03  0.00000000000E+00 0. -1.
         -1    1    6    6    0  503 -0.67210641092E+03  0.81701688264E+03  0.11405599526E+04  0.15556736867E+04  0.00000000000E+00 0.  1.
<mgrwt>
<rscale>  0 0.34893452E+04</rscale>
<asrwt>0</asrwt>
<pdfrwt beam="1">  1        2 0.26662024E+00 0.34893452E+04</pdfrwt>
<pdfrwt beam="2">  1       -1 0.27021413E+00 0.34893452E+04</pdfrwt>
<totfact> 0.45315056E-01</totfact>
</mgrwt>
</event>
<event>
12    6  0.1611689E-007  0.1050555E+04  0.7818608E-02  0.9254772E-01
         -1   -1    0    0    0  501 -0.00000000000E+00  0.00000000000E+00  0.16889179718E+03  0.16889179718E+03  0.00000000000E+00 0.  1.
          2   -1    0    0  501    0  0.00000000000E+00 -0.00000000000E+00 -0.16336864672E+04  0.16336864672E+04  0.00000000000E+00 0. -1.
         24    2    1    2    0    0 -0.98282098725E+02  0.36449891253E+02 -0.92564813529E+02  0.15940383275E+03  0.76507330955E+02 0.  0.
        254    2    1    2    0    0  0.98282098725E+02 -0.36449891253E+02 -0.13722298565E+04  0.16431744317E+04  0.89778586994E+03 0.  0.
         23    2    4    4    0    0 -0.87012158950E+02 -0.43203859751E+03 -0.79617140563E+03  0.91447961126E+03  0.90308287101E+02 0.  0.
         23    2    4    4    0    0  0.18529425768E+03  0.39558870626E+03 -0.57605845089E+03  0.72869482041E+03  0.91260155621E+02 0.  0.
          4    1    3    3  502    0 -0.14790608503E+02 -0.16366212357E+01 -0.60330954248E+02  0.62139075221E+02  0.00000000000E+00 0. -1.
         -3    1    3    3    0  502 -0.83491490222E+02  0.38086512488E+02 -0.32233859281E+02  0.97264757529E+02  0.00000000000E+00 0.  1.
         11    1    5    5    0    0 -0.12258434059E+01 -0.69965747171E+02 -0.72571775326E+02  0.10081354593E+03  0.00000000000E+00 0.  1.
        -11    1    5    5    0    0 -0.85786315545E+02 -0.36207285034E+03 -0.72359963031E+03  0.81366606533E+03  0.00000000000E+00 0. -1.
          2    1    6    6  503    0  0.57999343704E+02  0.16867401095E+03 -0.16981714913E+03  0.24627770906E+03  0.00000000000E+00 0. -1.
         -2    1    6    6    0  503  0.12729491397E+03  0.22691469531E+03 -0.40624130176E+03  0.48241711135E+03  0.00000000000E+00 0.  1.
<mgrwt>
<rscale>  0 0.10505546E+04</rscale>
<asrwt>0</asrwt>
<pdfrwt beam="1">  1        2 0.25133639E+00 0.10505546E+04</pdfrwt>
<pdfrwt beam="2">  1       -1 0.25983353E-01 0.10505546E+04</pdfrwt>
<totfact> 0.15873009E+02</totfact>
</mgrwt>
</event>
<event>
12    6  0.1611689E-007  0.2006924E+04  0.7818608E-02  0.8603390E-01
         -1   -1    0    0    0  501 -0.00000000000E+00  0.00000000000E+00  0.59304441251E+03  0.59304441251E+03  0.00000000000E+00 0.  1.
          2   -1    0    0  501    0  0.00000000000E+00 -0.00000000000E+00 -0.16979097161E+04  0.16979097161E+04  0.00000000000E+00 0. -1.
         24    2    1    2    0    0 -0.53718304259E+03  0.57979474048E+03 -0.63485694538E+03  0.10169875968E+04  0.80578338661E+02 0.  0.
        254    2    1    2    0    0  0.53718304259E+03 -0.57979474048E+03 -0.47000835819E+03  0.12739665318E+04  0.88167755158E+03 0.  0.
         23    2    4    4    0    0  0.57027495009E+03 -0.18243331506E+03  0.54889531840E+02  0.60827367539E+03  0.92133437580E+02 0.  0.
         23    2    4    4    0    0 -0.33091907501E+02 -0.39736142543E+03 -0.52489789003E+03  0.66569285637E+03  0.92940880758E+02 0.  0.
          4    1    3    3  502    0 -0.42949036983E+03  0.50541003521E+03 -0.54137110423E+03  0.85614482067E+03  0.00000000000E+00 0. -1.
         -3    1    3    3    0  502 -0.10769267277E+03  0.74384705265E+02 -0.93485841151E+02  0.16084277615E+03  0.00000000000E+00 0.  1.
         11    1    5    5    0    0  0.23633419458E+03 -0.11711540719E+03  0.46984447096E+02  0.26791306126E+03  0.00000000000E+00 0. -1.
        -11    1    5    5    0    0  0.33394075552E+03 -0.65317907869E+02  0.79050847431E+01  0.34036061413E+03  0.00000000000E+00 0.  1.
          3    1    6    6  503    0 -0.62207472723E+02 -0.33071844983E+03 -0.43905369118E+03  0.55318406201E+03  0.00000000000E+00 0. -1.
         -3    1    6    6    0  503  0.29115565221E+02 -0.66642975598E+02 -0.85844198847E+02  0.11250879437E+03  0.00000000000E+00 0.  1.
<mgrwt>
<rscale>  0 0.20069239E+04</rscale>
<asrwt>0</asrwt>
<pdfrwt beam="1">  1        2 0.26121688E+00 0.20069239E+04</pdfrwt>
<pdfrwt beam="2">  1       -1 0.91237602E-01 0.20069239E+04</pdfrwt>
<totfact> 0.12186938E+01</totfact>
</mgrwt>
</event>
<event>
12    6  0.1611689E-007  0.1199181E+04  0.7818608E-02  0.9113574E-01
          2   -1    0    0  501    0  0.00000000000E+00  0.00000000000E+00  0.35830260821E+03  0.35830260821E+03  0.00000000000E+00 0. -1.
         -1   -1    0    0    0  501 -0.00000000000E+00 -0.00000000000E+00 -0.10033661034E+04  0.10033661034E+04  0.00000000000E+00 0.  1.
         24    2    1    2    0    0 -0.13465535132E+02 -0.25131048727E+03 -0.17732021427E+03  0.31763735587E+03  0.78184076454E+02 0.  0.
        254    2    1    2    0    0  0.13465535132E+02  0.25131048727E+03 -0.46774328091E+03  0.10440313557E+04  0.89882112418E+03 0.  0.
         23    2    4    4    0    0  0.24941367647E+03  0.39252826651E+01 -0.60873306508E+03  0.66420290131E+03  0.91580345803E+02 0.  0.
         23    2    4    4    0    0 -0.23594814134E+03  0.24738520460E+03  0.14098978417E+03  0.37982845442E+03  0.86721223993E+02 0.  0.
          4    1    3    3  502    0 -0.78148400885E+01 -0.42817201776E+02 -0.71631546454E+02  0.83818034700E+02  0.00000000000E+00 0. -1.
         -3    1    3    3    0  502 -0.56506950438E+01 -0.20849328549E+03 -0.10568866781E+03  0.23381932117E+03  0.00000000000E+00 0.  1.
         11    1    5    5    0    0  0.24149799249E+03  0.21909925021E+01 -0.60993739959E+03  0.65601045132E+03  0.00000000000E+00 0.  1.
        -11    1    5    5    0    0  0.79156839805E+01  0.17342901631E+01  0.12043345105E+01  0.81924499914E+01  0.00000000000E+00 0. -1.
          1    1    6    6  503    0 -0.15731957716E+03  0.20956688060E+03  0.12793081216E+03  0.29160593186E+03  0.00000000000E+00 0.  1.
         -1    1    6    6    0  503 -0.78628564185E+02  0.37818324008E+02  0.13058972008E+02  0.88222522558E+02  0.00000000000E+00 0. -1.
<mgrwt>
<rscale>  0 0.11991809E+04</rscale>
<asrwt>0</asrwt>
<pdfrwt beam="1">  1        2 0.55123479E-01 0.11991809E+04</pdfrwt>
<pdfrwt beam="2">  1       -1 0.15436401E+00 0.11991809E+04</pdfrwt>
<totfact> 0.32825237E+01</totfact>
</mgrwt>
</event>
<event>
12    6  0.1611689E-007  0.1559799E+04  0.7818608E-02  0.8845633E-01
          2   -1    0    0  501    0  0.00000000000E+00  0.00000000000E+00  0.38530102302E+04  0.38530102302E+04  0.00000000000E+00 0. -1.
         -1   -1    0    0    0  501 -0.00000000000E+00 -0.00000000000E+00 -0.15786173749E+03  0.15786173749E+03  0.00000000000E+00 0.  1.
         24    2    1    2    0    0 -0.19378367842E+03  0.47737106450E+03  0.99262378650E+03  0.11211908363E+04  0.79571744923E+02 0.  0.
        254    2    1    2    0    0  0.19378367842E+03 -0.47737106450E+03  0.27025247062E+04  0.28896811314E+04  0.88384501261E+03 0.  0.
         23    2    4    4    0    0 -0.15303602268E+03 -0.19680473114E+01  0.17956809332E+04  0.18048288614E+04  0.97536186399E+02 0.  0.
         23    2    4    4    0    0  0.34681970109E+03 -0.47540301719E+03  0.90684377301E+03  0.10848522700E+04  0.90812363004E+02 0.  0.
          4    1    3    3  502    0 -0.52879963789E+02  0.19645873155E+03  0.45572560198E+03  0.49907729669E+03  0.00000000000E+00 0. -1.
         -3    1    3    3    0  502 -0.14090371463E+03  0.28091233295E+03  0.53689818452E+03  0.62211353959E+03  0.00000000000E+00 0.  1.
         11    1    5    5    0    0 -0.36534911795E+02 -0.33606487310E+02  0.28151497504E+03  0.28585814129E+03  0.00000000000E+00 0.  1.
        -11    1    5    5    0    0 -0.11650111088E+03  0.31638439998E+02  0.15141659582E+04  0.15189707201E+04  0.00000000000E+00 0. -1.
          1    1    6    6  503    0  0.34928677571E+03 -0.45071393188E+03  0.87649255982E+03  0.10456498016E+04  0.00000000000E+00 0. -1.
         -1    1    6    6    0  503 -0.24670746140E+01 -0.24689085309E+02  0.30351213186E+02  0.39202468448E+02  0.00000000000E+00 0.  1.
<mgrwt>
<rscale>  0 0.15597986E+04</rscale>
<asrwt>0</asrwt>
<pdfrwt beam="1">  1        2 0.59277073E+00 0.15597986E+04</pdfrwt>
<pdfrwt beam="2">  1       -1 0.24286424E-01 0.15597986E+04</pdfrwt>
<totfact> 0.73462798E+00</totfact>
</mgrwt>
</event>
<event>
12    6  0.1611689E-007  0.2920422E+04  0.7818608E-02  0.8266827E-01
          2   -1    0    0  501    0  0.00000000000E+00  0.00000000000E+00  0.28226236993E+04  0.28226236993E+04  0.00000000000E+00 0. -1.
         -1   -1    0    0    0  501 -0.00000000000E+00 -0.00000000000E+00 -0.75540242105E+03  0.75540242105E+03  0.00000000000E+00 0.  1.
         24    2    1    2    0    0 -0.10952179264E+04 -0.45381104071E+03  0.22439205638E+03  0.12089563958E+04  0.76006610114E+02 0.  0.
        254    2    1    2    0    0  0.10952179264E+04  0.45381104071E+03  0.18428292219E+04  0.23690697246E+04  0.90056929325E+03 0.  0.
         23    2    4    4    0    0  0.10759159118E+04  0.71677348083E+02  0.12030937103E+04  0.16181526309E+04  0.90833746828E+02 0.  0.
         23    2    4    4    0    0  0.19302014624E+02  0.38213369263E+03  0.63973551158E+03  0.75091709371E+03  0.90643422516E+02 0.  0.
          4    1    3    3  502    0 -0.80350010851E+02 -0.54244278777E+02  0.25938739546E+02  0.10035628646E+03  0.00000000000E+00 0. -1.
         -3    1    3    3    0  502 -0.10148679156E+04 -0.39956676193E+03  0.19845331683E+03  0.11086001093E+04  0.00000000000E+00 0.  1.
         11    1    5    5    0    0  0.52457108208E+03  0.72326386250E+02  0.62816501693E+03  0.82158214124E+03  0.00000000000E+00 0.  1.
        -11    1    5    5    0    0  0.55134482974E+03 -0.64903816735E+00  0.57492869339E+03  0.79657048967E+03  0.00000000000E+00 0. -1.
          2    1    6    6  503    0  0.88293093165E+00  0.34800096016E+03  0.60905046920E+03  0.70146127610E+03  0.00000000000E+00 0. -1.
         -2    1    6    6    0  503  0.18419083692E+02  0.34132732463E+02  0.30685042379E+02  0.49455817608E+02  0.00000000000E+00 0.  1.
<mgrwt>
<rscale>  0 0.29204224E+04</rscale>
<asrwt>0</asrwt>
<pdfrwt beam="1">  1        2 0.43424979E+00 0.29204224E+04</pdfrwt>
<pdfrwt beam="2">  1       -1 0.11621576E+00 0.29204224E+04</pdfrwt>
<totfact> 0.14675282E+00</totfact>
</mgrwt>
</event>
<event>
12    6  0.1611689E-007  0.2017542E+04  0.7818608E-02  0.8598463E-01
         -1   -1    0    0    0  501 -0.00000000000E+00  0.00000000000E+00  0.73256360301E+03  0.73256360301E+03  0.00000000000E+00 0.  1.
          2   -1    0    0  501    0  0.00000000000E+00 -0.00000000000E+00 -0.13891202103E+04  0.13891202103E+04  0.00000000000E+00 0. -1.
         24    2    1    2    0    0  0.47472666398E+03  0.58760950839E+02  0.41516271705E+03  0.63843762604E+03  0.80151518320E+02 0.  0.
        254    2    1    2    0    0 -0.47472666398E+03 -0.58760950839E+02 -0.10717193243E+04  0.14832461872E+04  0.90698328927E+03 0.  0.
         23    2    4    4    0    0 -0.24751953138E+03  0.21551912956E+03  0.10415848261E+02  0.34025181569E+03  0.89153769208E+02 0.  0.
         23    2    4    4    0    0 -0.22720713259E+03 -0.27428008040E+03 -0.10821351726E+04  0.11429943715E+04  0.92557863334E+02 0.  0.
          2    1    3    3  502    0  0.86239780147E+02  0.19491160816E+02  0.11954697409E+03  0.14868989221E+03  0.00000000000E+00 0. -1.
         -1    1    3    3    0  502  0.38848688383E+03  0.39269790023E+02  0.29561574295E+03  0.48974773384E+03  0.00000000000E+00 0.  1.
         11    1    5    5    0    0 -0.23433081494E+03  0.22299692708E+03  0.16537873273E+02  0.32390131455E+03  0.00000000000E+00 0. -1.
        -11    1    5    5    0    0 -0.13188716445E+02 -0.74777975206E+01 -0.61220250123E+01  0.16350501138E+02  0.00000000000E+00 0.  1.
          4    1    6    6  503    0 -0.17196289814E+03 -0.17154460263E+03 -0.60805235274E+03  0.65477206164E+03  0.00000000000E+00 0. -1.
         -4    1    6    6    0  503 -0.55244234448E+02 -0.10273547777E+03 -0.47408281983E+03  0.48822230991E+03  0.00000000000E+00 0.  1.
<mgrwt>
<rscale>  0 0.20175420E+04</rscale>
<asrwt>0</asrwt>
<pdfrwt beam="1">  1        2 0.21371080E+00 0.20175420E+04</pdfrwt>
<pdfrwt beam="2">  1       -1 0.11270209E+00 0.20175420E+04</pdfrwt>
<totfact> 0.11181920E+01</totfact>
</mgrwt>
</event>
<event>
12    6  0.1611689E-007  0.3429829E+04  0.7818608E-02  0.8130624E-01
          2   -1    0    0  501    0  0.00000000000E+00  0.00000000000E+00  0.15672172573E+04  0.15672172573E+04  0.00000000000E+00 0. -1.
         -1   -1    0    0    0  501 -0.00000000000E+00 -0.00000000000E+00 -0.18765312861E+04  0.18765312861E+04  0.00000000000E+00 0.  1.
         24    2    1    2    0    0  0.10782400413E+04  0.99925141678E+03  0.48002818892E+03  0.15480820747E+04  0.70894761412E+02 0.  0.
        254    2    1    2    0    0 -0.10782400413E+04 -0.99925141678E+03 -0.78934221767E+03  0.18956664687E+04  0.89965840383E+03 0.  0.
         23    2    4    4    0    0 -0.20497810350E+03 -0.59547851060E+02 -0.53457996109E+03  0.58459502941E+03  0.10204726421E+03 0.  0.
         23    2    4    4    0    0 -0.87326193778E+03 -0.93970356572E+03 -0.25476225658E+03  0.13110714393E+04  0.91516710310E+02 0.  0.
          4    1    3    3  502    0  0.43943104302E+03  0.37153313014E+03  0.16404956967E+03  0.59837176543E+03  0.00000000000E+00 0. -1.
         -3    1    3    3    0  502  0.63880899826E+03  0.62771828664E+03  0.31597861926E+03  0.94971030923E+03  0.00000000000E+00 0.  1.
         11    1    5    5    0    0  0.11444387268E+02 -0.84211994612E+01 -0.32853216562E+02  0.35794195602E+02  0.00000000000E+00 0.  1.
        -11    1    5    5    0    0 -0.21642249077E+03 -0.51126651599E+02 -0.50172674453E+03  0.54880083381E+03  0.00000000000E+00 0. -1.
          4    1    6    6  503    0 -0.11579943080E+03 -0.16269794580E+03 -0.60811489982E+02  0.20875384321E+03  0.00000000000E+00 0.  1.
         -4    1    6    6    0  503 -0.75746250698E+03 -0.77700561992E+03 -0.19395076660E+03  0.11023175961E+04  0.00000000000E+00 0. -1.
<mgrwt>
<rscale>  0 0.34298293E+04</rscale>
<asrwt>0</asrwt>
<pdfrwt beam="1">  1        2 0.24111035E+00 0.34298293E+04</pdfrwt>
<pdfrwt beam="2">  1       -1 0.28869712E+00 0.34298293E+04</pdfrwt>
<totfact> 0.42784666E-01</totfact>
</mgrwt>
</event>
<event>
12    6  0.1611689E-007  0.2157657E+04  0.7818608E-02  0.8536262E-01
          2   -1    0    0  501    0  0.00000000000E+00  0.00000000000E+00  0.10346921687E+04  0.10346921687E+04  0.00000000000E+00 0. -1.
         -1   -1    0    0    0  501 -0.00000000000E+00 -0.00000000000E+00 -0.11248472356E+04  0.11248472356E+04  0.00000000000E+00 0.  1.
         24    2    1    2    0    0 -0.41519522079E+03  0.69230228297E+03 -0.40900472659E+03  0.90852056091E+03  0.80344389090E+02 0.  0.
        254    2    1    2    0    0  0.41519522079E+03 -0.69230228297E+03  0.31884965967E+03  0.12510188434E+04  0.90095145196E+03 0.  0.
         23    2    4    4    0    0  0.27278084996E+03  0.99068827871E+02 -0.12372366673E+03  0.32870510750E+03  0.92279343434E+02 0.  0.
         23    2    4    4    0    0  0.14241437083E+03 -0.79137111084E+03  0.44257332640E+03  0.92231373593E+03  0.90782102672E+02 0.  0.
          2    1    3    3  502    0 -0.26452868613E+03  0.40577000368E+03 -0.28396911511E+03  0.56148301845E+03  0.00000000000E+00 0. -1.
         -1    1    3    3    0  502 -0.15066653466E+03  0.28653227929E+03 -0.12503561149E+03  0.34703754246E+03  0.00000000000E+00 0.  1.
         11    1    5    5    0    0  0.62504129545E+02 -0.16404859666E+02 -0.27534317800E+02  0.70242610198E+02  0.00000000000E+00 0.  1.
        -11    1    5    5    0    0  0.21027672042E+03  0.11547368754E+03 -0.96189348932E+02  0.25846249730E+03  0.00000000000E+00 0. -1.
          4    1    6    6  503    0  0.36256758563E+02 -0.21114241766E+03  0.73429730341E+02  0.22646765414E+03  0.00000000000E+00 0.  1.
         -4    1    6    6    0  503  0.10615761227E+03 -0.58022869318E+03  0.36914359606E+03  0.69584608179E+03  0.00000000000E+00 0. -1.
<mgrwt>
<rscale>  0 0.21576567E+04</rscale>
<asrwt>0</asrwt>
<pdfrwt beam="1">  1        2 0.15918341E+00 0.21576567E+04</pdfrwt>
<pdfrwt beam="2">  1       -1 0.17305342E+00 0.21576567E+04</pdfrwt>
<totfact> 0.58514479E+00</totfact>
</mgrwt>
</event>
<event>
12    6  0.1611689E-007  0.2087426E+04  0.7818608E-02  0.8566803E-01
         -1   -1    0    0    0  501 -0.00000000000E+00  0.00000000000E+00  0.71684869427E+03  0.71684869427E+03  0.00000000000E+00 0.  1.
          2   -1    0    0  501    0  0.00000000000E+00 -0.00000000000E+00 -0.15196182250E+04  0.15196182250E+04  0.00000000000E+00 0. -1.
         24    2    1    2    0    0  0.79734217967E+03 -0.15631172057E+03 -0.57337119726E+03  0.99752846999E+03  0.78234347431E+02 0.  0.
        254    2    1    2    0    0 -0.79734217967E+03  0.15631172057E+03 -0.22939833346E+03  0.12389384493E+04  0.90672872473E+03 0.  0.
         23    2    4    4    0    0 -0.72502106528E+03 -0.92273554876E+02 -0.47043649243E+03  0.87412488450E+03  0.92810916764E+02 0.  0.
         23    2    4    4    0    0 -0.72321114395E+02  0.24858527545E+03  0.24103815897E+03  0.36481356478E+03  0.89244384751E+02 0.  0.
          2    1    3    3  502    0  0.66311156500E+03 -0.11535854746E+03 -0.44148311934E+03  0.80494216362E+03  0.00000000000E+00 0. -1.
         -1    1    3    3    0  502  0.13423061467E+03 -0.40953173115E+02 -0.13188807793E+03  0.19258630637E+03  0.00000000000E+00 0.  1.
         11    1    5    5    0    0 -0.13120187842E+03  0.42293349638E+01 -0.12022672883E+03  0.17800642264E+03  0.00000000000E+00 0.  1.
        -11    1    5    5    0    0 -0.59381918686E+03 -0.96502889840E+02 -0.35020976360E+03  0.69611846186E+03  0.00000000000E+00 0. -1.
          1    1    6    6  503    0  0.14351858168E+02  0.31076503722E+02  0.95026489979E+01  0.35524994785E+02  0.00000000000E+00 0. -1.
         -1    1    6    6    0  503 -0.86672972562E+02  0.21750877173E+03  0.23153550997E+03  0.32928856999E+03  0.00000000000E+00 0.  1.
<mgrwt>
<rscale>  0 0.20874255E+04</rscale>
<asrwt>0</asrwt>
<pdfrwt beam="1">  1        2 0.23378742E+00 0.20874255E+04</pdfrwt>
<pdfrwt beam="2">  1       -1 0.11028442E+00 0.20874255E+04</pdfrwt>
<totfact> 0.98646467E+00</totfact>
</mgrwt>
</event>
<event>
12    6  0.1611689E-007  0.1622930E+04  0.7818608E-02  0.8806584E-01
         -1   -1    0    0    0  501 -0.00000000000E+00  0.00000000000E+00  0.58706970705E+03  0.58706970705E+03  0.00000000000E+00 0.  1.
          2   -1    0    0  501    0  0.00000000000E+00 -0.00000000000E+00 -0.11216309311E+04  0.11216309311E+04  0.00000000000E+00 0. -1.
         24    2    1    2    0    0  0.29637543304E+03 -0.31049550323E+02 -0.66937762177E+03  0.73711299821E+03  0.80415792724E+02 0.  0.
        254    2    1    2    0    0 -0.29637543304E+03  0.31049550323E+02  0.13481639775E+03  0.97158763991E+03  0.91487955985E+03 0.  0.
         23    2    4    4    0    0 -0.54192025238E+03  0.12565777100E+03  0.30955773248E+03  0.64290240925E+03  0.89610728919E+02 0.  0.
         23    2    4    4    0    0  0.24554481934E+03 -0.94608220673E+02 -0.17474133473E+03  0.32868523066E+03  0.90865136691E+02 0.  0.
          4    1    3    3  502    0  0.25553885050E+03 -0.53926910369E+02 -0.58423005493E+03  0.63994763291E+03  0.00000000000E+00 0. -1.
         -3    1    3    3    0  502  0.40836582533E+02  0.22877360046E+02 -0.85147566834E+02  0.97165365298E+02  0.00000000000E+00 0.  1.
         11    1    5    5    0    0 -0.48615001912E+03  0.11947073881E+03  0.30588672230E+03  0.58667008225E+03  0.00000000000E+00 0. -1.
        -11    1    5    5    0    0 -0.55770233253E+02  0.61870321878E+01  0.36710101745E+01  0.56232327002E+02  0.00000000000E+00 0.  1.
          1    1    6    6  503    0  0.24580382347E+03 -0.98812070246E+02 -0.18120878709E+03  0.32096724035E+03  0.00000000000E+00 0. -1.
         -1    1    6    6    0  503 -0.25900413266E+00  0.42038495736E+01  0.64674523585E+01  0.77179903075E+01  0.00000000000E+00 0.  1.
<mgrwt>
<rscale>  0 0.16229301E+04</rscale>
<asrwt>0</asrwt>
<pdfrwt beam="1">  1        2 0.17255860E+00 0.16229301E+04</pdfrwt>
<pdfrwt beam="2">  1       -1 0.90318417E-01 0.16229301E+04</pdfrwt>
<totfact> 0.27651381E+01</totfact>
</mgrwt>
</event>
<event>
12    6  0.1611689E-007  0.1058010E+04  0.7818608E-02  0.9247113E-01
          2   -1    0    0  501    0  0.00000000000E+00  0.00000000000E+00  0.93531256956E+03  0.93531256956E+03  0.00000000000E+00 0. -1.
         -1   -1    0    0    0  501 -0.00000000000E+00 -0.00000000000E+00 -0.29920070052E+03  0.29920070052E+03  0.00000000000E+00 0.  1.
         24    2    1    2    0    0  0.10691469220E+03  0.54288875374E+02  0.13861590239E+03  0.19977282732E+03  0.79478177773E+02 0.  0.
        254    2    1    2    0    0 -0.10691469220E+03 -0.54288875374E+02  0.49749596664E+03  0.10347404428E+04  0.89933726358E+03 0.  0.
         23    2    4    4    0    0  0.18691029117E+03  0.60051136047E+02 -0.18001306415E+03  0.28165834791E+03  0.91570332529E+02 0.  0.
         23    2    4    4    0    0 -0.29382498337E+03 -0.11434001142E+03  0.67750903079E+03  0.75308209485E+03  0.93313427285E+02 0.  0.
          2    1    3    3  502    0  0.11830789817E+03  0.38558073830E+02  0.11964375318E+03  0.17262129504E+03  0.00000000000E+00 0. -1.
         -1    1    3    3    0  502 -0.11393205968E+02  0.15730801544E+02  0.18972149207E+02  0.27151532277E+02  0.00000000000E+00 0.  1.
         11    1    5    5    0    0  0.11483629844E+03  0.79252686624E+02 -0.96288782893E+02  0.16952844448E+03  0.00000000000E+00 0.  1.
        -11    1    5    5    0    0  0.72073992735E+02 -0.19201550576E+02 -0.83724281254E+02  0.11212990344E+03  0.00000000000E+00 0. -1.
          2    1    6    6  503    0 -0.58894003092E+02 -0.61905199492E+02  0.13801486652E+03  0.16232332151E+03  0.00000000000E+00 0.  1.
         -2    1    6    6    0  503 -0.23493098028E+03 -0.52434811929E+02  0.53949416427E+03  0.59075877334E+03  0.00000000000E+00 0. -1.
<mgrwt>
<rscale>  0 0.10580098E+04</rscale>
<asrwt>0</asrwt>
<pdfrwt beam="1">  1        2 0.14389424E+00 0.10580098E+04</pdfrwt>
<pdfrwt beam="2">  1       -1 0.46030878E-01 0.10580098E+04</pdfrwt>
<totfact> 0.14787085E+02</totfact>
</mgrwt>
</event>
<event>
12    6  0.1611689E-007  0.2792862E+04  0.7818608E-02  0.8305488E-01
         -1   -1    0    0    0  501 -0.00000000000E+00  0.00000000000E+00  0.13785414769E+04  0.13785414769E+04  0.00000000000E+00 0.  1.
          2   -1    0    0  501    0  0.00000000000E+00 -0.00000000000E+00 -0.14145523993E+04  0.14145523993E+04  0.00000000000E+00 0. -1.
         24    2    1    2    0    0 -0.50314333397E+03 -0.93798027017E+03  0.64040273312E+03  0.12446254151E+04  0.77566497524E+02 0.  0.
        254    2    1    2    0    0  0.50314333397E+03  0.93798027017E+03 -0.67641365551E+03  0.15484684612E+04  0.89847589849E+03 0.  0.
         23    2    4    4    0    0  0.70024163608E+03  0.84076761758E+03 -0.71159864183E+03  0.13083652191E+04  0.90655302393E+02 0.  0.
         23    2    4    4    0    0 -0.19709830211E+03  0.97212652595E+02  0.35184986316E+02  0.24010324207E+03  0.90075207862E+02 0.  0.
          4    1    3    3  502    0 -0.42424662887E+02 -0.55734220174E+02  0.24658534820E+02  0.74257650508E+02  0.00000000000E+00 0. -1.
         -3    1    3    3    0  502 -0.46071867108E+03 -0.88224605000E+03  0.61574419830E+03  0.11703677646E+04  0.00000000000E+00 0.  1.
         11    1    5    5    0    0  0.62486362495E+03  0.70345258317E+03 -0.59780417476E+03  0.11147510565E+04  0.00000000000E+00 0. -1.
        -11    1    5    5    0    0  0.75378011134E+02  0.13731503441E+03 -0.11379446707E+03  0.19361416264E+03  0.00000000000E+00 0.  1.
          1    1    6    6  503    0 -0.10567403111E+03  0.87559183284E+02 -0.10130390133E+02  0.13760899764E+03  0.00000000000E+00 0. -1.
         -1    1    6    6    0  503 -0.91424271006E+02  0.96534693107E+01  0.45315376449E+02  0.10249424443E+03  0.00000000000E+00 0.  1.
<mgrwt>
<rscale>  0 0.27928617E+04</rscale>
<asrwt>0</asrwt>
<pdfrwt beam="1">  1        2 0.21762345E+00 0.27928617E+04</pdfrwt>
<pdfrwt beam="2">  1       -1 0.21208330E+00 0.27928617E+04</pdfrwt>
<totfact> 0.17518269E+00</totfact>
</mgrwt>
</event>
<event>
12    6  0.1611689E-007  0.2343281E+04  0.7818608E-02  0.8461049E-01
          2   -1    0    0  501    0  0.00000000000E+00  0.00000000000E+00  0.17387857891E+04  0.17387857891E+04  0.00000000000E+00 0. -1.
         -1   -1    0    0    0  501 -0.00000000000E+00 -0.00000000000E+00 -0.78948302198E+03  0.78948302198E+03  0.00000000000E+00 0.  1.
         24    2    1    2    0    0 -0.93073334333E+03  0.39359390215E+03  0.18522389705E+03  0.10303817036E+04  0.78726405489E+02 0.  0.
        254    2    1    2    0    0  0.93073334333E+03 -0.39359390215E+03  0.76407887010E+03  0.14978871075E+04  0.79916741105E+03 0.  0.
         23    2    4    4    0    0  0.13226278607E+03 -0.19713768798E+03 -0.12514696685E+03  0.28335745850E+03  0.90955886948E+02 0.  0.
         23    2    4    4    0    0  0.79847055726E+03 -0.19645621417E+03  0.88922583696E+03  0.12145296490E+04  0.90605763081E+02 0.  0.
          2    1    3    3  502    0 -0.48961347872E+03  0.19523298528E+03  0.58152963665E+02  0.53030089974E+03  0.00000000000E+00 0. -1.
         -1    1    3    3    0  502 -0.44111986461E+03  0.19836091686E+03  0.12707093339E+03  0.50008080388E+03  0.00000000000E+00 0.  1.
         11    1    5    5    0    0 -0.73055676081E+01  0.19571653799E+01 -0.14221392939E+02  0.16107446462E+02  0.00000000000E+00 0.  1.
        -11    1    5    5    0    0  0.13956835368E+03 -0.19909485336E+03 -0.11092557392E+03  0.26725001203E+03  0.00000000000E+00 0. -1.
          1    1    6    6  503    0  0.54378196943E+03 -0.10895148065E+03  0.64871133331E+03  0.85346098292E+03  0.00000000000E+00 0. -1.
         -1    1    6    6    0  503  0.25468858783E+03 -0.87504733519E+02  0.24051450365E+03  0.36106866608E+03  0.00000000000E+00 0.  1.
<mgrwt>
<rscale>  0 0.23432813E+04</rscale>
<asrwt>0</asrwt>
<pdfrwt beam="1">  1        2 0.26750551E+00 0.23432813E+04</pdfrwt>
<pdfrwt beam="2">  1       -1 0.12145893E+00 0.23432813E+04</pdfrwt>
<totfact> 0.57680900E+00</totfact>
</mgrwt>
</event>
<event>
12    6  0.1611689E-007  0.1595986E+04  0.7818608E-02  0.8823018E-01
         -1   -1    0    0    0  501 -0.00000000000E+00  0.00000000000E+00  0.91494688954E+03  0.91494688954E+03  0.00000000000E+00 0.  1.
          2   -1    0    0  501    0  0.00000000000E+00 -0.00000000000E+00 -0.69598920341E+03  0.69598920341E+03  0.00000000000E+00 0. -1.
         24    2    1    2    0    0 -0.44001312780E+03  0.27287018698E+03 -0.81733583394E+02  0.53019980971E+03  0.79760691991E+02 0.  0.
        254    2    1    2    0    0  0.44001312780E+03 -0.27287018698E+03  0.30069126953E+03  0.10807362832E+04  0.89972550411E+03 0.  0.
         23    2    4    4    0    0  0.50689285599E+03 -0.19356400631E+03  0.56132980809E+03  0.78597970042E+03  0.90915037457E+02 0.  0.
         23    2    4    4    0    0 -0.66879728192E+02 -0.79306180677E+02 -0.26063853856E+03  0.29475658281E+03  0.90479981174E+02 0.  0.
          2    1    3    3  502    0 -0.43906204829E+03  0.26449031349E+03 -0.87494364257E+02  0.51998641516E+03  0.00000000000E+00 0. -1.
         -1    1    3    3    0  502 -0.95107950511E+00  0.83798734970E+01  0.57607808632E+01  0.10213394549E+02  0.00000000000E+00 0.  1.
         11    1    5    5    0    0  0.19589232775E+03 -0.11467873435E+03  0.19748505203E+03  0.30087432918E+03  0.00000000000E+00 0. -1.
        -11    1    5    5    0    0  0.31100052824E+03 -0.78885271951E+02  0.36384475605E+03  0.48510537124E+03  0.00000000000E+00 0.  1.
          2    1    6    6  503    0 -0.56952351577E+02 -0.41911947481E+01 -0.75117622226E+02  0.94359915390E+02  0.00000000000E+00 0. -1.
         -2    1    6    6    0  503 -0.99273766158E+01 -0.75114985929E+02 -0.18552091633E+03  0.20039666742E+03  0.00000000000E+00 0.  1.
<mgrwt>
<rscale>  0 0.15959864E+04</rscale>
<asrwt>0</asrwt>
<pdfrwt beam="1">  1        2 0.10707526E+00 0.15959864E+04</pdfrwt>
<pdfrwt beam="2">  1       -1 0.14076106E+00 0.15959864E+04</pdfrwt>
<totfact> 0.18687558E+01</totfact>
</mgrwt>
</event>
<event>
12    6  0.1801554E-007  0.2265443E+04  0.7818608E-02  0.8491673E-01
          2   -1    0    0  501    0  0.00000000000E+00  0.00000000000E+00  0.23433024591E+04  0.23433024591E+04  0.00000000000E+00 0. -1.
         -1   -1    0    0    0  501 -0.00000000000E+00 -0.00000000000E+00 -0.54754239667E+03  0.54754239667E+03  0.00000000000E+00 0.  1.
         24    2    1    2    0    0  0.48013120412E+02 -0.52714345066E+03 -0.24894898684E+03  0.59047235979E+03  0.80601069015E+02 0.  0.
        254    2    1    2    0    0 -0.48013120412E+02  0.52714345066E+03  0.20447090492E+04  0.23003724959E+04  0.91142363737E+03 0.  0.
         23    2    4    4    0    0  0.22034591828E+03  0.88034848528E+02  0.15816560824E+04  0.16021343597E+04  0.94319061794E+02 0.  0.
         23    2    4    4    0    0 -0.26835903870E+03  0.43910860213E+03  0.46305296685E+03  0.69823813621E+03  0.91024758386E+02 0.  0.
          2    1    3    3  502    0  0.31934512663E+02 -0.91591900868E+02 -0.23668851600E+02  0.99845400193E+02  0.00000000000E+00 0. -1.
         -1    1    3    3    0  502  0.16078607749E+02 -0.43555154979E+03 -0.22528013524E+03  0.49062695960E+03  0.00000000000E+00 0.  1.
         11    1    5    5    0    0  0.19736620826E+03  0.44506258090E+02  0.13680876415E+04  0.13829671081E+04  0.00000000000E+00 0. -1.
        -11    1    5    5    0    0  0.22979710025E+02  0.43528590438E+02  0.21356844084E+03  0.21916725162E+03  0.00000000000E+00 0.  1.
          1    1    6    6  503    0 -0.20771464755E+03  0.39891227157E+03  0.40323046094E+03  0.60404567696E+03  0.00000000000E+00 0. -1.
         -1    1    6    6    0  503 -0.60644391147E+02  0.40196330559E+02  0.59822505905E+02  0.94192459256E+02  0.00000000000E+00 0.  1.
<mgrwt>
<rscale>  0 0.22654425E+04</rscale>
<asrwt>0</asrwt>
<pdfrwt beam="1">  1        2 0.36050807E+00 0.22654425E+04</pdfrwt>
<pdfrwt beam="2">  1       -1 0.84237293E-01 0.22654425E+04</pdfrwt>
<totfact> 0.61864216E+00</totfact>
</mgrwt>
</event>
<event>
12    6  0.1611689E-007  0.1389985E+04  0.7818608E-02  0.8961100E-01
          4   -1    0    0  501    0  0.00000000000E+00  0.00000000000E+00  0.18921217766E+04  0.18921217766E+04  0.00000000000E+00 0. -1.
         -3   -1    0    0    0  501 -0.00000000000E+00 -0.00000000000E+00 -0.25527680822E+03  0.25527680822E+03  0.00000000000E+00 0.  1.
         24    2    1    2    0    0 -0.17410862334E+03 -0.37477569387E+03  0.37101384755E+03  0.56224192148E+03  0.87715846662E+02 0.  0.
        254    2    1    2    0    0  0.17410862334E+03  0.37477569387E+03  0.12658311208E+04  0.15851566634E+04  0.86001313212E+03 0.  0.
         23    2    4    4    0    0 -0.53744803018E+01  0.16223523817E+03  0.12787640404E+04  0.12923292990E+04  0.92349274896E+02 0.  0.
         23    2    4    4    0    0  0.17948310364E+03  0.21254045570E+03 -0.12932919517E+02  0.29282736435E+03  0.90515054572E+02 0.  0.
          2    1    3    3  502    0 -0.94931399047E+02 -0.19930285379E+03  0.13946997337E+03  0.26112347946E+03  0.00000000000E+00 0. -1.
         -1    1    3    3    0  502 -0.79177224292E+02 -0.17547284008E+03  0.23154387418E+03  0.30111844201E+03  0.00000000000E+00 0.  1.
         11    1    5    5    0    0  0.36742008120E+02  0.10335882277E+03  0.90462356735E+03  0.91125014129E+03  0.00000000000E+00 0.  1.
        -11    1    5    5    0    0 -0.42116488422E+02  0.58876415399E+02  0.37414047302E+03  0.38107915771E+03  0.00000000000E+00 0. -1.
          3    1    6    6  503    0  0.68194875556E+02  0.23214606592E+02 -0.13078661498E+02  0.73215506540E+02  0.00000000000E+00 0. -1.
         -3    1    6    6    0  503  0.11128822808E+03  0.18932584911E+03  0.14574198091E+00  0.21961185781E+03  0.00000000000E+00 0.  1.
<mgrwt>
<rscale>  0 0.13899853E+04</rscale>
<asrwt>0</asrwt>
<pdfrwt beam="1">  1        4 0.29109565E+00 0.13899853E+04</pdfrwt>
<pdfrwt beam="2">  1       -3 0.39273356E-01 0.13899853E+04</pdfrwt>
<totfact> 0.50710500E-01</totfact>
</mgrwt>
</event>
<event>
12    6  0.1611689E-007  0.2244583E+04  0.7818608E-02  0.8500098E-01
         -1   -1    0    0    0  501 -0.00000000000E+00  0.00000000000E+00  0.11651151026E+04  0.11651151026E+04  0.00000000000E+00 0.  1.
          2   -1    0    0  501    0  0.00000000000E+00 -0.00000000000E+00 -0.10810417206E+04  0.10810417206E+04  0.00000000000E+00 0. -1.
         24    2    1    2    0    0 -0.89062606942E+03  0.22622630423E+03 -0.13983443050E+03  0.93290155872E+03  0.79740291273E+02 0.  0.
        254    2    1    2    0    0  0.89062606942E+03 -0.22622630423E+03  0.22390781250E+03  0.13132552645E+04  0.91110457413E+03 0.  0.
         23    2    4    4    0    0  0.35248693454E+03  0.30861332413E+03  0.26835713791E+03  0.54767906850E+03  0.91910748830E+02 0.  0.
         23    2    4    4    0    0  0.53813913488E+03 -0.53483962836E+03 -0.44449325416E+02  0.76557619601E+03  0.92108701076E+02 0.  0.
          4    1    3    3  502    0 -0.48059911236E+01 -0.13969864799E+01  0.48038546236E+01  0.69373007106E+01  0.00000000000E+00 0. -1.
         -3    1    3    3    0  502 -0.88582007830E+03  0.22762329071E+03 -0.14463828512E+03  0.92596425801E+03  0.00000000000E+00 0.  1.
         11    1    5    5    0    0  0.26219255554E+03  0.27421322924E+03  0.23036248072E+03  0.44385211928E+03  0.00000000000E+00 0. -1.
        -11    1    5    5    0    0  0.90294379004E+02  0.34400094886E+02  0.37994657198E+02  0.10382694922E+03  0.00000000000E+00 0.  1.
          3    1    6    6  503    0  0.47619866118E+03 -0.45016455276E+03 -0.10748854107E+02  0.65538448817E+03  0.00000000000E+00 0. -1.
         -3    1    6    6    0  503  0.61940473699E+02 -0.84675075594E+02 -0.33700471309E+02  0.11019170783E+03  0.00000000000E+00 0.  1.
<mgrwt>
<rscale>  0 0.22445828E+04</rscale>
<asrwt>0</asrwt>
<pdfrwt beam="1">  1        2 0.16631411E+00 0.22445828E+04</pdfrwt>
<pdfrwt beam="2">  1       -1 0.17924848E+00 0.22445828E+04</pdfrwt>
<totfact> 0.48979864E+00</totfact>
</mgrwt>
</event>
<event>
12    6  0.1611689E-007  0.2029131E+04  0.7818608E-02  0.8593121E-01
          2   -1    0    0  501    0  0.00000000000E+00  0.00000000000E+00  0.90821344545E+03  0.90821344545E+03  0.00000000000E+00 0. -1.
         -1   -1    0    0    0  501 -0.00000000000E+00 -0.00000000000E+00 -0.11333712709E+04  0.11333712709E+04  0.00000000000E+00 0.  1.
         24    2    1    2    0    0 -0.54734217037E+03  0.58961776876E+03 -0.21178628782E+03  0.83580957161E+03  0.80570736539E+02 0.  0.
        254    2    1    2    0    0  0.54734217037E+03 -0.58961776876E+03 -0.13371537627E+02  0.12057751447E+04  0.89804361639E+03 0.  0.
         23    2    4    4    0    0  0.24701495206E+02  0.16752425231E+03 -0.18319416295E+03  0.26564212455E+03  0.91274848778E+02 0.  0.
         23    2    4    4    0    0  0.52264067516E+03 -0.75714202107E+03  0.16982262532E+03  0.94013302018E+03  0.92698738696E+02 0.  0.
          4    1    3    3  502    0 -0.10505793042E+03  0.85029960607E+02 -0.59958905534E+02  0.14785916711E+03  0.00000000000E+00 0. -1.
         -3    1    3    3    0  502 -0.44228423994E+03  0.50458780816E+03 -0.15182738228E+03  0.68795040450E+03  0.00000000000E+00 0.  1.
         11    1    5    5    0    0  0.19237756407E+02  0.14676783045E+03 -0.19200609209E+03  0.24244015082E+03  0.00000000000E+00 0.  1.
        -11    1    5    5    0    0  0.54637387989E+01  0.20756421859E+02  0.88119291416E+01  0.23201973736E+02  0.00000000000E+00 0. -1.
          4    1    6    6  503    0  0.17989270018E+03 -0.24931766517E+03  0.10102290944E+03  0.32361444649E+03  0.00000000000E+00 0.  1.
         -4    1    6    6    0  503  0.34274797497E+03 -0.50782435591E+03  0.68799715879E+02  0.61651857369E+03  0.00000000000E+00 0. -1.
<mgrwt>
<rscale>  0 0.20291309E+04</rscale>
<asrwt>0</asrwt>
<pdfrwt beam="1">  1        2 0.13972514E+00 0.20291309E+04</pdfrwt>
<pdfrwt beam="2">  1       -1 0.17436481E+00 0.20291309E+04</pdfrwt>
<totfact> 0.69983892E+00</totfact>
</mgrwt>
</event>
<event>
12    6  0.1611689E-007  0.1629680E+04  0.7818608E-02  0.8802519E-01
         -1   -1    0    0    0  501 -0.00000000000E+00  0.00000000000E+00  0.38854054613E+03  0.38854054613E+03  0.00000000000E+00 0.  1.
          2   -1    0    0  501    0  0.00000000000E+00 -0.00000000000E+00 -0.17088674585E+04  0.17088674585E+04  0.00000000000E+00 0. -1.
         24    2    1    2    0    0 -0.16271985910E+02 -0.55158096101E+03 -0.59780991040E+03  0.81738861069E+03  0.79000745762E+02 0.  0.
        254    2    1    2    0    0  0.16271985910E+02  0.55158096101E+03 -0.72251700198E+03  0.12800193940E+04  0.90106187173E+03 0.  0.
         23    2    4    4    0    0 -0.18158983292E+03  0.73730400021E+03 -0.46169460253E+03  0.89333696455E+03  0.91087705422E+02 0.  0.
         23    2    4    4    0    0  0.19786181883E+03 -0.18572303920E+03 -0.26082239944E+03  0.38668242940E+03  0.88615069323E+02 0.  0.
          2    1    3    3  502    0  0.10067826913E+02 -0.39153560273E+03 -0.37898750069E+03  0.54500735318E+03  0.00000000000E+00 0. -1.
         -1    1    3    3    0  502 -0.26339812823E+02 -0.16004535828E+03 -0.21882240972E+03  0.27238125751E+03  0.00000000000E+00 0.  1.
         11    1    5    5    0    0 -0.88553232205E+02  0.47335668406E+03 -0.25119595184E+03  0.54314604988E+03  0.00000000000E+00 0.  1.
        -11    1    5    5    0    0 -0.93036600719E+02  0.26394731616E+03 -0.21049865069E+03  0.35019091468E+03  0.00000000000E+00 0. -1.
          1    1    6    6  503    0  0.98666691060E+02 -0.87196105451E+02 -0.67123875108E+02  0.14779679070E+03  0.00000000000E+00 0. -1.
         -1    1    6    6    0  503  0.99195127774E+02 -0.98526933754E+02 -0.19369852434E+03  0.23888563870E+03  0.00000000000E+00 0.  1.
<mgrwt>
<rscale>  0 0.16296801E+04</rscale>
<asrwt>0</asrwt>
<pdfrwt beam="1">  1        2 0.26290269E+00 0.16296801E+04</pdfrwt>
<pdfrwt beam="2">  1       -1 0.59775469E-01 0.16296801E+04</pdfrwt>
<totfact> 0.29986050E+01</totfact>
</mgrwt>
</event>
<event>
12    6  0.1611689E-007  0.1328851E+04  0.7818608E-02  0.9006994E-01
         -1   -1    0    0    0  501 -0.00000000000E+00  0.00000000000E+00  0.75239888149E+03  0.75239888149E+03  0.00000000000E+00 0.  1.
          2   -1    0    0  501    0  0.00000000000E+00 -0.00000000000E+00 -0.58673843494E+03  0.58673843494E+03  0.00000000000E+00 0. -1.
         24    2    1    2    0    0 -0.27423521951E+03  0.21089064736E+03  0.46340541448E+02  0.35805288309E+03  0.79841095600E+02 0.  0.
        254    2    1    2    0    0  0.27423521951E+03 -0.21089064736E+03  0.11931990510E+03  0.98108443334E+03  0.91027995959E+03 0.  0.
         23    2    4    4    0    0 -0.28945559647E+03 -0.16724177060E+03 -0.10997323850E+03  0.36390486836E+03  0.92619046988E+02 0.  0.
         23    2    4    4    0    0  0.56369081598E+03 -0.43648876759E+02  0.22929314360E+03  0.61717956499E+03  0.93181056360E+02 0.  0.
          4    1    3    3  502    0 -0.87400002333E+02  0.72365924552E+02  0.53293128039E+02  0.12536245427E+03  0.00000000000E+00 0. -1.
         -3    1    3    3    0  502 -0.18683521718E+03  0.13852472281E+03 -0.69525865908E+01  0.23269042882E+03  0.00000000000E+00 0.  1.
         11    1    5    5    0    0 -0.18714010276E+03 -0.89338399069E+02 -0.22967034950E+02  0.20863904789E+03  0.00000000000E+00 0.  1.
        -11    1    5    5    0    0 -0.10231549371E+03 -0.77903371530E+02 -0.87006203550E+02  0.15526582047E+03  0.00000000000E+00 0. -1.
          3    1    6    6  503    0  0.27008614461E+03  0.15194699546E+02  0.14064038716E+03  0.30488870577E+03  0.00000000000E+00 0. -1.
         -3    1    6    6    0  503  0.29360467137E+03 -0.58843576305E+02  0.88652756441E+02  0.31229085921E+03  0.00000000000E+00 0.  1.
<mgrwt>
<rscale>  0 0.13288511E+04</rscale>
<asrwt>0</asrwt>
<pdfrwt beam="1">  1        2 0.90267451E-01 0.13288511E+04</pdfrwt>
<pdfrwt beam="2">  1       -1 0.11575367E+00 0.13288511E+04</pdfrwt>
<totfact> 0.38509133E+01</totfact>
</mgrwt>
</event>
<event>
12    6  0.1611689E-007  0.1542832E+04  0.7818608E-02  0.8856460E-01
         -3   -1    0    0    0  501 -0.00000000000E+00  0.00000000000E+00  0.53979356820E+03  0.53979356820E+03  0.00000000000E+00 0.  1.
          4   -1    0    0  501    0  0.00000000000E+00 -0.00000000000E+00 -0.11024256310E+04  0.11024256310E+04  0.00000000000E+00 0. -1.
         24    2    1    2    0    0 -0.45126526449E+03  0.18375132627E+03 -0.24620323034E+03  0.55132821941E+03  0.77083630176E+02 0.  0.
        254    2    1    2    0    0  0.45126526449E+03 -0.18375132627E+03 -0.31642883248E+03  0.10908909798E+04  0.92331524139E+03 0.  0.
         23    2    4    4    0    0 -0.19754460034E+03  0.16157536835E+03  0.31305607041E+02  0.27289195184E+03  0.91430342687E+02 0.  0.
         23    2    4    4    0    0  0.64880986483E+03 -0.34532669462E+03 -0.34773443952E+03  0.81799902798E+03  0.89433789044E+02 0.  0.
          2    1    3    3  502    0 -0.35893876642E+03  0.12243372519E+03 -0.21604123710E+03  0.43646405491E+03  0.00000000000E+00 0. -1.
         -1    1    3    3    0  502 -0.92326498077E+02  0.61317601087E+02 -0.30161993242E+02  0.11486416450E+03  0.00000000000E+00 0.  1.
         11    1    5    5    0    0 -0.16931651996E+03  0.92818330694E+02  0.22882459748E+01  0.19310246636E+03  0.00000000000E+00 0.  1.
        -11    1    5    5    0    0 -0.28228080376E+02  0.68757037657E+02  0.29017361066E+02  0.79789485474E+02  0.00000000000E+00 0. -1.
          3    1    6    6  503    0  0.50064028006E+03 -0.29838651809E+03 -0.24842242362E+03  0.63355260614E+03  0.00000000000E+00 0. -1.
         -3    1    6    6    0  503  0.14816958477E+03 -0.46940176532E+02 -0.99312015906E+02  0.18444642184E+03  0.00000000000E+00 0.  1.
<mgrwt>
<rscale>  0 0.15428315E+04</rscale>
<asrwt>0</asrwt>
<pdfrwt beam="1">  1        4 0.16960394E+00 0.15428315E+04</pdfrwt>
<pdfrwt beam="2">  1       -3 0.83045165E-01 0.15428315E+04</pdfrwt>
<totfact> 0.62683291E-01</totfact>
</mgrwt>
</event>
<event>
12    6  0.1611689E-007  0.2310105E+04  0.7818608E-02  0.8473947E-01
         -1   -1    0    0    0  501 -0.00000000000E+00  0.00000000000E+00  0.64028475534E+03  0.64028475534E+03  0.00000000000E+00 0.  1.
          2   -1    0    0  501    0  0.00000000000E+00 -0.00000000000E+00 -0.20836767808E+04  0.20836767808E+04  0.00000000000E+00 0. -1.
         24    2    1    2    0    0  0.70142397036E+03 -0.39790244498E+03  0.44174240357E+02  0.81197880732E+03  0.83882525626E+02 0.  0.
        254    2    1    2    0    0 -0.70142397036E+03  0.39790244498E+03 -0.14875662658E+04  0.19119827288E+04  0.89022616126E+03 0.  0.
         23    2    4    4    0    0 -0.71400260447E+03  0.61513398888E+03 -0.13136954572E+04  0.16190894730E+04  0.86402684951E+02 0.  0.
         23    2    4    4    0    0  0.12578634113E+02 -0.21723154389E+03 -0.17387080857E+03  0.29289325575E+03  0.90596001511E+02 0.  0.
          2    1    3    3  502    0  0.20614111883E+03 -0.15059182318E+03 -0.11801774043E+02  0.25556083415E+03  0.00000000000E+00 0. -1.
         -1    1    3    3    0  502  0.49528285153E+03 -0.24731062180E+03  0.55976014400E+02  0.55641797317E+03  0.00000000000E+00 0.  1.
         11    1    5    5    0    0 -0.44976101924E+03  0.36620090094E+03 -0.87333316507E+03  0.10483791735E+04  0.00000000000E+00 0. -1.
        -11    1    5    5    0    0 -0.26424158523E+03  0.24893308794E+03 -0.44036229215E+03  0.57071029952E+03  0.00000000000E+00 0.  1.
          4    1    6    6  503    0  0.41135843285E+01 -0.21168162807E+03 -0.18255414373E+03  0.27955687906E+03  0.00000000000E+00 0.  1.
         -4    1    6    6    0  503  0.84650497844E+01 -0.55499158254E+01  0.86833351609E+01  0.13336376683E+02  0.00000000000E+00 0. -1.
<mgrwt>
<rscale>  0 0.23101052E+04</rscale>
<asrwt>0</asrwt>
<pdfrwt beam="1">  1        2 0.32056566E+00 0.23101052E+04</pdfrwt>
<pdfrwt beam="2">  1       -1 0.98505348E-01 0.23101052E+04</pdfrwt>
<totfact> 0.61015931E+00</totfact>
</mgrwt>
</event>
<event>
12    6  0.1611689E-007  0.4010545E+04  0.7818608E-02  0.8002423E-01
          2   -1    0    0  501    0  0.00000000000E+00  0.00000000000E+00  0.24024384885E+04  0.24024384885E+04  0.00000000000E+00 0. -1.
         -1   -1    0    0    0  501 -0.00000000000E+00 -0.00000000000E+00 -0.16737652734E+04  0.16737652734E+04  0.00000000000E+00 0.  1.
         24    2    1    2    0    0  0.13684188777E+04 -0.97354186988E+03 -0.56440935310E+03  0.17736470529E+04  0.83138156546E+02 0.  0.
        254    2    1    2    0    0 -0.13684188777E+04  0.97354186988E+03  0.12930825683E+04  0.23025567090E+04  0.89963930135E+03 0.  0.
         23    2    4    4    0    0 -0.64176879937E+03  0.66266602503E+03  0.11773177249E+04  0.14985251763E+04  0.92234625353E+02 0.  0.
         23    2    4    4    0    0 -0.72665007836E+03  0.31087584485E+03  0.11576484340E+03  0.80403153273E+03  0.91657402082E+02 0.  0.
          2    1    3    3  502    0  0.45147467465E+03 -0.29150085915E+03 -0.14871015671E+03  0.55759917813E+03  0.00000000000E+00 0. -1.
         -1    1    3    3    0  502  0.91694420307E+03 -0.68204101073E+03 -0.41569919639E+03  0.12160478748E+04  0.00000000000E+00 0.  1.
         11    1    5    5    0    0 -0.53707662534E+03  0.50603992660E+03  0.91257760650E+03  0.11735951588E+04  0.00000000000E+00 0. -1.
        -11    1    5    5    0    0 -0.10469217402E+03  0.15662609843E+03  0.26474011836E+03  0.32493001751E+03  0.00000000000E+00 0.  1.
          1    1    6    6  503    0 -0.63745174344E+03  0.30301627397E+03  0.95680674419E+02  0.71226285806E+03  0.00000000000E+00 0. -1.
         -1    1    6    6    0  503 -0.89198334919E+02  0.78595708745E+01  0.20084168981E+02  0.91768674668E+02  0.00000000000E+00 0.  1.
<mgrwt>
<rscale>  0 0.40105452E+04</rscale>
<asrwt>0</asrwt>
<pdfrwt beam="1">  1        2 0.36960592E+00 0.40105452E+04</pdfrwt>
<pdfrwt beam="2">  1       -1 0.25750235E+00 0.40105452E+04</pdfrwt>
<totfact> 0.22118583E-01</totfact>
</mgrwt>
</event>
<event>
12    6  0.1611689E-007  0.1619472E+04  0.7818608E-02  0.8808674E-01
          2   -1    0    0  501    0  0.00000000000E+00  0.00000000000E+00  0.51267846486E+03  0.51267846486E+03  0.00000000000E+00 0. -1.
         -1   -1    0    0    0  501 -0.00000000000E+00 -0.00000000000E+00 -0.12789158014E+04  0.12789158014E+04  0.00000000000E+00 0.  1.
         24    2    1    2    0    0  0.52249113734E+03  0.12196225297E+03 -0.43060460518E+03  0.69255532497E+03  0.79628966963E+02 0.  0.
        254    2    1    2    0    0 -0.52249113734E+03 -0.12196225297E+03 -0.33563273139E+03  0.10990389413E+04  0.89853518820E+03 0.  0.
         23    2    4    4    0    0  0.16300712673E+03  0.83097713495E+02 -0.31515826941E+03  0.37582644894E+03  0.91892500213E+02 0.  0.
         23    2    4    4    0    0 -0.68549826407E+03 -0.20505996647E+03 -0.20474461980E+02  0.72321249239E+03  0.10324556000E+03 0.  0.
          4    1    3    3  502    0  0.62843285971E+02  0.24846620877E+02 -0.25530481213E+02  0.72238761282E+02  0.00000000000E+00 0. -1.
         -1    1    3    3    0  502  0.45964785137E+03  0.97115632096E+02 -0.40507412397E+03  0.62031656368E+03  0.00000000000E+00 0.  1.
         11    1    5    5    0    0  0.11874963259E+02 -0.13246177513E+02 -0.69470260345E+02  0.71711875192E+02  0.00000000000E+00 0. -1.
        -11    1    5    5    0    0  0.15113216347E+03  0.96343891008E+02 -0.24568800906E+03  0.30411457375E+03  0.00000000000E+00 0.  1.
          3    1    6    6  503    0 -0.27270472399E+03 -0.10147975411E+03 -0.55362789194E+02  0.29619426970E+03  0.00000000000E+00 0. -1.
         -3    1    6    6    0  503 -0.41279354009E+03 -0.10358021236E+03  0.34888327213E+02  0.42701822268E+03  0.00000000000E+00 0.  1.
<mgrwt>
<rscale>  0 0.16194722E+04</rscale>
<asrwt>0</asrwt>
<pdfrwt beam="1">  1        2 0.78873612E-01 0.16194722E+04</pdfrwt>
<pdfrwt beam="2">  1       -1 0.19675627E+00 0.16194722E+04</pdfrwt>
<totfact> 0.10372102E+01</totfact>
</mgrwt>
</event>
<event>
12    6  0.1611689E-007  0.2441810E+04  0.7818608E-02  0.8424014E-01
         -1   -1    0    0    0  501 -0.00000000000E+00  0.00000000000E+00  0.14866660861E+04  0.14866660861E+04  0.00000000000E+00 0.  1.
          2   -1    0    0  501    0  0.00000000000E+00 -0.00000000000E+00 -0.10026525056E+04  0.10026525056E+04  0.00000000000E+00 0. -1.
         24    2    1    2    0    0  0.10228667002E+03 -0.76278702136E+03 -0.52689181131E+03  0.93611787474E+03  0.79969317623E+02 0.  0.
        254    2    1    2    0    0 -0.10228667002E+03  0.76278702136E+03  0.10109053918E+04  0.15532007170E+04  0.89341824100E+03 0.  0.
         23    2    4    4    0    0 -0.28697073328E+03  0.87945204823E+03  0.89408457390E+03  0.12898369046E+04  0.92216637848E+02 0.  0.
         23    2    4    4    0    0  0.18468406326E+03 -0.11666502686E+03  0.11682081792E+03  0.26336381243E+03  0.89411758089E+02 0.  0.
          2    1    3    3  502    0  0.52050059635E+02 -0.62358255706E+03 -0.42380102628E+03  0.75575903836E+03  0.00000000000E+00 0. -1.
         -1    1    3    3    0  502  0.50236610386E+02 -0.13920446430E+03 -0.10309078503E+03  0.18035883639E+03  0.00000000000E+00 0.  1.
         11    1    5    5    0    0 -0.42753826189E+02  0.18369252904E+03  0.23057394463E+03  0.29788450584E+03  0.00000000000E+00 0. -1.
        -11    1    5    5    0    0 -0.24421690709E+03  0.69575951919E+03  0.66351062927E+03  0.99195239876E+03  0.00000000000E+00 0.  1.
          4    1    6    6  503    0  0.11054647251E+02 -0.18269655602E+02 -0.13265276115E+02  0.25138677213E+02  0.00000000000E+00 0. -1.
         -4    1    6    6    0  503  0.17362941601E+03 -0.98395371260E+02  0.13008609403E+03  0.23822513522E+03  0.00000000000E+00 0.  1.
<mgrwt>
<rscale>  0 0.24418104E+04</rscale>
<asrwt>0</asrwt>
<pdfrwt beam="1">  1        2 0.15425423E+00 0.24418104E+04</pdfrwt>
<pdfrwt beam="2">  1       -1 0.22871786E+00 0.24418104E+04</pdfrwt>
<totfact> 0.24676228E+00</totfact>
</mgrwt>
</event>
<event>
12    6  0.1611689E-007  0.1422185E+04  0.7818608E-02  0.8937915E-01
         -1   -1    0    0    0  501 -0.00000000000E+00  0.00000000000E+00  0.27236626654E+03  0.27236626654E+03  0.00000000000E+00 0.  1.
          2   -1    0    0  501    0  0.00000000000E+00 -0.00000000000E+00 -0.18565157725E+04  0.18565157725E+04  0.00000000000E+00 0. -1.
         24    2    1    2    0    0 -0.17137524108E+03  0.10710074737E+03  0.68442884474E+02  0.23984056404E+03  0.10954005835E+03 0.  0.
        254    2    1    2    0    0  0.17137524108E+03 -0.10710074737E+03 -0.16525923905E+04  0.18890414750E+04  0.89251108792E+03 0.  0.
         23    2    4    4    0    0 -0.58215241333E+02 -0.10067647860E+03 -0.16356589412E+04  0.16421170327E+04  0.87426594654E+02 0.  0.
         23    2    4    4    0    0  0.22959048241E+03 -0.64242687633E+01 -0.16933449280E+02  0.24692444236E+03  0.89061089656E+02 0.  0.
          2    1    3    3  502    0 -0.49874253019E+02  0.47456857073E+02 -0.27289192505E+02  0.74056022206E+02  0.00000000000E+00 0. -1.
         -3    1    3    3    0  502 -0.12150098806E+03  0.59643890292E+02  0.95732076979E+02  0.16578454183E+03  0.00000000000E+00 0.  1.
         11    1    5    5    0    0 -0.26214397574E+02  0.11634159985E+02 -0.30899885355E+03  0.31032698853E+03  0.00000000000E+00 0. -1.
        -11    1    5    5    0    0 -0.32000843759E+02 -0.11231063859E+03 -0.13266600876E+04  0.13317900441E+04  0.00000000000E+00 0.  1.
          1    1    6    6  503    0  0.62063802379E+02  0.15192218917E+02 -0.41560164799E+02  0.76223135460E+02  0.00000000000E+00 0. -1.
         -1    1    6    6    0  503  0.16752668003E+03 -0.21616487680E+02  0.24626715519E+02  0.17070130690E+03  0.00000000000E+00 0.  1.
<mgrwt>
<rscale>  0 0.14221846E+04</rscale>
<asrwt>0</asrwt>
<pdfrwt beam="1">  1        2 0.28561781E+00 0.14221846E+04</pdfrwt>
<pdfrwt beam="2">  1       -1 0.41902503E-01 0.14221846E+04</pdfrwt>
<totfact> 0.49698076E+01</totfact>
</mgrwt>
</event>
<event>
12    6  0.1611689E-007  0.2296202E+04  0.7818608E-02  0.8479420E-01
         -1   -1    0    0    0  501 -0.00000000000E+00  0.00000000000E+00  0.11160089572E+04  0.11160089572E+04  0.00000000000E+00 0.  1.
          2   -1    0    0  501    0  0.00000000000E+00 -0.00000000000E+00 -0.11811163831E+04  0.11811163831E+04  0.00000000000E+00 0. -1.
         24    2    1    2    0    0 -0.83440296287E+03  0.17046795121E+02 -0.52524788775E+03  0.98952742826E+03  0.82220982941E+02 0.  0.
        254    2    1    2    0    0  0.83440296287E+03 -0.17046795121E+02  0.46014046183E+03  0.13075979120E+04  0.89530115442E+03 0.  0.
         23    2    4    4    0    0  0.72297083849E+03  0.36565651881E+03  0.29966116481E+03  0.86846382878E+03  0.89672097920E+02 0.  0.
         23    2    4    4    0    0  0.11143212438E+03 -0.38270331393E+03  0.16047929702E+03  0.43913408319E+03  0.90588042321E+02 0.  0.
          2    1    3    3  502    0 -0.60570192652E+03  0.68680870546E+00 -0.42108390884E+03  0.73769028310E+03  0.00000000000E+00 0. -1.
         -1    1    3    3    0  502 -0.22870103635E+03  0.16359986415E+02 -0.10416397891E+03  0.25183714516E+03  0.00000000000E+00 0.  1.
         11    1    5    5    0    0  0.30592742614E+03  0.20204564888E+03  0.11954861994E+03  0.38562404856E+03  0.00000000000E+00 0.  1.
        -11    1    5    5    0    0  0.41704341234E+03  0.16361086993E+03  0.18011254487E+03  0.48283978022E+03  0.00000000000E+00 0. -1.
          1    1    6    6  503    0  0.38726122498E+02 -0.32826412992E+02  0.28288490706E+02  0.58116474945E+02  0.00000000000E+00 0. -1.
         -1    1    6    6    0  503  0.72706001883E+02 -0.34987690094E+03  0.13219080632E+03  0.38101760825E+03  0.00000000000E+00 0.  1.
<mgrwt>
<rscale>  0 0.22962025E+04</rscale>
<asrwt>0</asrwt>
<pdfrwt beam="1">  1        2 0.18171021E+00 0.22962025E+04</pdfrwt>
<pdfrwt beam="2">  1       -1 0.17169369E+00 0.22962025E+04</pdfrwt>
<totfact> 0.48061492E+00</totfact>
</mgrwt>
</event>
<event>
12    6  0.1611689E-007  0.1447661E+04  0.7818608E-02  0.8920024E-01
         -1   -1    0    0    0  501 -0.00000000000E+00  0.00000000000E+00  0.37961665269E+03  0.37961665269E+03  0.00000000000E+00 0.  1.
          2   -1    0    0  501    0  0.00000000000E+00 -0.00000000000E+00 -0.13801571929E+04  0.13801571929E+04  0.00000000000E+00 0. -1.
         24    2    1    2    0    0  0.12432294015E+02  0.28335439937E+03 -0.71784122260E+03  0.77578691986E+03  0.78134797496E+02 0.  0.
        254    2    1    2    0    0 -0.12432294015E+02 -0.28335439937E+03 -0.28269931757E+03  0.98398692570E+03  0.89881426792E+03 0.  0.
         23    2    4    4    0    0  0.26192433771E+03 -0.50092231029E+03 -0.10800008809E+03  0.58249581508E+03  0.90054627455E+02 0.  0.
         23    2    4    4    0    0 -0.27435663172E+03  0.21756791092E+03 -0.17469922948E+03  0.40149111062E+03  0.89821678297E+02 0.  0.
          4    1    3    3  502    0  0.48960234508E+01  0.23474487933E+03 -0.49892266717E+03  0.55140997201E+03  0.00000000000E+00 0. -1.
         -3    1    3    3    0  502  0.75362705644E+01  0.48609520036E+02 -0.21891855543E+03  0.22437694784E+03  0.00000000000E+00 0.  1.
         11    1    5    5    0    0  0.52979208246E+02 -0.10109357992E+03 -0.59641710627E+02  0.12877826701E+03  0.00000000000E+00 0.  1.
        -11    1    5    5    0    0  0.20894512946E+03 -0.39982873037E+03 -0.48358377465E+02  0.45371754807E+03  0.00000000000E+00 0. -1.
          2    1    6    6  503    0 -0.31875301798E+02 -0.48317035873E+01 -0.19712418407E+02  0.37788353546E+02  0.00000000000E+00 0. -1.
         -2    1    6    6    0  503 -0.24248132993E+03  0.22239961451E+03 -0.15498681108E+03  0.36370275707E+03  0.00000000000E+00 0.  1.
<mgrwt>
<rscale>  0 0.14476611E+04</rscale>
<asrwt>0</asrwt>
<pdfrwt beam="1">  1        2 0.21233187E+00 0.14476611E+04</pdfrwt>
<pdfrwt beam="2">  1       -1 0.58402562E-01 0.14476611E+04</pdfrwt>
<totfact> 0.48784598E+01</totfact>
</mgrwt>
</event>
<event>
12    6  0.1611689E-007  0.1425325E+04  0.7818608E-02  0.8935688E-01
          2   -1    0    0  501    0  0.00000000000E+00  0.00000000000E+00  0.27628507231E+04  0.27628507231E+04  0.00000000000E+00 0. -1.
         -1   -1    0    0    0  501 -0.00000000000E+00 -0.00000000000E+00 -0.18382752088E+03  0.18382752088E+03  0.00000000000E+00 0.  1.
         24    2    1    2    0    0 -0.38147473577E+03 -0.98337892907E+02  0.48163381794E+03  0.62734767336E+03  0.80004084119E+02 0.  0.
        254    2    1    2    0    0  0.38147473577E+03  0.98337892907E+02  0.20973893843E+04  0.23193305706E+04  0.90832744718E+03 0.  0.
         23    2    4    4    0    0  0.48233063225E+03 -0.27304231358E+03  0.92545960075E+03  0.10825605662E+04  0.90922840909E+02 0.  0.
         23    2    4    4    0    0 -0.10085589648E+03  0.37138020648E+03  0.11719297835E+04  0.12367700044E+04  0.89919167864E+02 0.  0.
          4    1    3    3  502    0 -0.38193599367E+03 -0.10408587333E+03  0.47111721199E+03  0.61535388170E+03  0.00000000000E+00 0. -1.
         -3    1    3    3    0  502  0.46125790135E+00  0.57479804194E+01  0.10516605945E+02  0.11993791659E+02  0.00000000000E+00 0.  1.
         11    1    5    5    0    0  0.43390586633E+03 -0.22690354074E+03  0.85586822146E+03  0.98603748922E+03  0.00000000000E+00 0. -1.
        -11    1    5    5    0    0  0.48424765922E+02 -0.46138772839E+02  0.69591379294E+02  0.96523076960E+02  0.00000000000E+00 0.  1.
          3    1    6    6  503    0 -0.94577895255E+02  0.29400921356E+03  0.81643667493E+03  0.87290047549E+03  0.00000000000E+00 0. -1.
         -3    1    6    6    0  503 -0.62780012286E+01  0.77370992924E+02  0.35549310859E+03  0.36386952895E+03  0.00000000000E+00 0.  1.
<mgrwt>
<rscale>  0 0.14253252E+04</rscale>
<asrwt>0</asrwt>
<pdfrwt beam="1">  1        2 0.42505393E+00 0.14253252E+04</pdfrwt>
<pdfrwt beam="2">  1       -1 0.28281159E-01 0.14253252E+04</pdfrwt>
<totfact> 0.30662807E+01</totfact>
</mgrwt>
</event>
<event>
12    6  0.1611689E-007  0.1288399E+04  0.7818608E-02  0.9038816E-01
          2   -1    0    0  501    0  0.00000000000E+00  0.00000000000E+00  0.13453534092E+04  0.13453534092E+04  0.00000000000E+00 0. -1.
         -1   -1    0    0    0  501 -0.00000000000E+00 -0.00000000000E+00 -0.30846379796E+03  0.30846379796E+03  0.00000000000E+00 0.  1.
         24    2    1    2    0    0 -0.56960129805E+02 -0.20948744802E+03  0.57448406584E+03  0.61986967473E+03  0.84125052666E+02 0.  0.
        254    2    1    2    0    0  0.56960129805E+02  0.20948744802E+03  0.46240554545E+03  0.10339475325E+04  0.89894335983E+03 0.  0.
         23    2    4    4    0    0 -0.27979530548E+03 -0.11977900224E+03  0.45433864433E+03  0.55390024050E+03  0.88030962406E+02 0.  0.
         23    2    4    4    0    0  0.33675543528E+03  0.32926645025E+03  0.80669011114E+01  0.48004729197E+03  0.92518696409E+02 0.  0.
          2    1    3    3  502    0 -0.88931236118E+01 -0.13067198254E+03  0.41954097772E+03  0.43950982543E+03  0.00000000000E+00 0. -1.
         -1    1    3    3    0  502 -0.48067006193E+02 -0.78815465474E+02  0.15494308812E+03  0.18035984930E+03  0.00000000000E+00 0.  1.
         11    1    5    5    0    0 -0.26849575058E+03 -0.90454389266E+02  0.42581807726E+03  0.51146163056E+03  0.00000000000E+00 0. -1.
        -11    1    5    5    0    0 -0.11299554896E+02 -0.29324612970E+02  0.28520567073E+02  0.42438609931E+02  0.00000000000E+00 0.  1.
          1    1    6    6  503    0  0.18926151638E+03  0.16182685358E+03 -0.38862037698E+02  0.25202799467E+03  0.00000000000E+00 0. -1.
         -1    1    6    6    0  503  0.14749391890E+03  0.16743959667E+03  0.46928938809E+02  0.22801929731E+03  0.00000000000E+00 0.  1.
<mgrwt>
<rscale>  0 0.12883987E+04</rscale>
<asrwt>0</asrwt>
<pdfrwt beam="1">  1        2 0.20697744E+00 0.12883987E+04</pdfrwt>
<pdfrwt beam="2">  1       -1 0.47455970E-01 0.12883987E+04</pdfrwt>
<totfact> 0.77067814E+01</totfact>
</mgrwt>
</event>
<event>
12    6  0.1611689E-007  0.2502447E+04  0.7818608E-02  0.8402114E-01
          2   -1    0    0  501    0  0.00000000000E+00  0.00000000000E+00  0.33538985136E+04  0.33538985136E+04  0.00000000000E+00 0. -1.
         -1   -1    0    0    0  501 -0.00000000000E+00 -0.00000000000E+00 -0.46678806408E+03  0.46678806408E+03  0.00000000000E+00 0.  1.
         24    2    1    2    0    0  0.39369699064E+02 -0.85995901624E+03  0.24195455423E+03  0.89773745459E+03  0.79442106232E+02 0.  0.
        254    2    1    2    0    0 -0.39369699064E+02  0.85995901624E+03  0.26451558953E+04  0.29229491231E+04  0.89760925962E+03 0.  0.
         23    2    4    4    0    0  0.35918844916E+03  0.31728354627E+03  0.16310677865E+04  0.17022011864E+04  0.86148498967E+02 0.  0.
         23    2    4    4    0    0 -0.39855814822E+03  0.54267546997E+03  0.10140881087E+04  0.12207479367E+04  0.92225644213E+02 0.  0.
          4    1    3    3  502    0  0.34971343039E+02 -0.16493679601E+03  0.31343510333E+02  0.17149214895E+03  0.00000000000E+00 0. -1.
         -3    1    3    3    0  502  0.43983560251E+01 -0.69502222024E+03  0.21061104390E+03  0.72624530564E+03  0.00000000000E+00 0.  1.
         11    1    5    5    0    0  0.12424425072E+03  0.59793290180E+02  0.42881951062E+03  0.45044205407E+03  0.00000000000E+00 0. -1.
        -11    1    5    5    0    0  0.23494419844E+03  0.25749025609E+03  0.12022482759E+04  0.12517591323E+04  0.00000000000E+00 0.  1.
          1    1    6    6  503    0 -0.34431258632E+03  0.43196021912E+03  0.87605803559E+03  0.10356729550E+04  0.00000000000E+00 0. -1.
         -1    1    6    6    0  503 -0.54245561908E+02  0.11071525085E+03  0.13803007315E+03  0.18507498170E+03  0.00000000000E+00 0.  1.
<mgrwt>
<rscale>  0 0.25024466E+04</rscale>
<asrwt>0</asrwt>
<pdfrwt beam="1">  1        2 0.51598437E+00 0.25024466E+04</pdfrwt>
<pdfrwt beam="2">  1       -1 0.71813551E-01 0.25024466E+04</pdfrwt>
<totfact> 0.20355017E+00</totfact>
</mgrwt>
</event>
<event>
12    6  0.1611689E-007  0.1812674E+04  0.7818608E-02  0.8699588E-01
         -1   -1    0    0    0  501 -0.00000000000E+00  0.00000000000E+00  0.10831813602E+04  0.10831813602E+04  0.00000000000E+00 0.  1.
          2   -1    0    0  501    0  0.00000000000E+00 -0.00000000000E+00 -0.75836496652E+03  0.75836496652E+03  0.00000000000E+00 0. -1.
         24    2    1    2    0    0 -0.58208192162E+03  0.29126528442E+03  0.72199106409E+02  0.65985785700E+03  0.80900253975E+02 0.  0.
        254    2    1    2    0    0  0.58208192162E+03 -0.29126528442E+03  0.25261728732E+03  0.11816884698E+04  0.95337155210E+03 0.  0.
         23    2    4    4    0    0  0.70229915435E+03 -0.32175381531E+03 -0.11066737482E+03  0.78646427630E+03  0.97617468603E+02 0.  0.
         23    2    4    4    0    0 -0.12021723274E+03  0.30488530895E+02  0.36328466214E+03  0.39522419346E+03  0.94046179040E+02 0.  0.
          2    1    3    3  502    0 -0.43508325413E+03  0.17821674943E+03  0.60536411972E+02  0.47404989714E+03  0.00000000000E+00 0. -1.
         -1    1    3    3    0  502 -0.14699866749E+03  0.11304853498E+03  0.11662694437E+02  0.18580795986E+03  0.00000000000E+00 0.  1.
         11    1    5    5    0    0  0.38145956626E+03 -0.19787923912E+03 -0.17230925649E+02  0.43007499203E+03  0.00000000000E+00 0.  1.
        -11    1    5    5    0    0  0.32083958809E+03 -0.12387457619E+03 -0.93436449169E+02  0.35638928427E+03  0.00000000000E+00 0. -1.
          1    1    6    6  503    0 -0.32297752528E+02 -0.32560368637E+02  0.83781321991E+02  0.95512472163E+02  0.00000000000E+00 0. -1.
         -1    1    6    6    0  503 -0.87919480209E+02  0.63048899532E+02  0.27950334015E+03  0.29971172130E+03  0.00000000000E+00 0.  1.
<mgrwt>
<rscale>  0 0.18126740E+04</rscale>
<asrwt>0</asrwt>
<pdfrwt beam="1">  1        2 0.11667153E+00 0.18126740E+04</pdfrwt>
<pdfrwt beam="2">  1       -1 0.16664329E+00 0.18126740E+04</pdfrwt>
<totfact> 0.10368243E+01</totfact>
</mgrwt>
</event>
<event>
12    6  0.1611689E-007  0.1988481E+04  0.7818608E-02  0.8612025E-01
          2   -1    0    0  501    0  0.00000000000E+00  0.00000000000E+00  0.38481451067E+03  0.38481451067E+03  0.00000000000E+00 0. -1.
         -3   -1    0    0    0  501 -0.00000000000E+00 -0.00000000000E+00 -0.25688075684E+04  0.25688075684E+04  0.00000000000E+00 0.  1.
         24    2    1    2    0    0  0.20207067332E+03 -0.18548710787E+03 -0.19932249675E+04  0.20143661562E+04  0.97402341345E+02 0.  0.
        254    2    1    2    0    0 -0.20207067332E+03  0.18548710787E+03 -0.19076809026E+03  0.93925592286E+03  0.87782184990E+03 0.  0.
         23    2    4    4    0    0 -0.22058278772E+03  0.48495584043E+03  0.51201298209E+02  0.54302900360E+03  0.91760516584E+02 0.  0.
         23    2    4    4    0    0  0.18512114396E+02 -0.29946873256E+03 -0.24196938847E+03  0.39622691927E+03  0.91773451677E+02 0.  0.
          4    1    3    3  502    0  0.11999736272E+02  0.74664448294E+01 -0.23271057174E+03  0.23313933960E+03  0.00000000000E+00 0. -1.
         -3    1    3    3    0  502  0.19007093705E+03 -0.19295355270E+03 -0.17605143957E+04  0.17812268166E+04  0.00000000000E+00 0.  1.
         11    1    5    5    0    0 -0.18085661506E+03  0.43518630171E+03  0.70439974018E+02  0.47650605698E+03  0.00000000000E+00 0.  1.
        -11    1    5    5    0    0 -0.39726172663E+02  0.49769538725E+02 -0.19238675809E+02  0.66522946615E+02  0.00000000000E+00 0. -1.
          1    1    6    6  503    0  0.40791673528E+02 -0.71309213327E+02 -0.86140433266E+02  0.11903419163E+03  0.00000000000E+00 0. -1.
         -1    1    6    6    0  503 -0.22279559132E+02 -0.22815951923E+03 -0.15582895521E+03  0.27719272763E+03  0.00000000000E+00 0.  1.
<mgrwt>
<rscale>  0 0.19884813E+04</rscale>
<asrwt>0</asrwt>
<pdfrwt beam="1">  1        2 0.59202233E-01 0.19884813E+04</pdfrwt>
<pdfrwt beam="2">  1       -3 0.39520116E+00 0.19884813E+04</pdfrwt>
<totfact> 0.54003831E-01</totfact>
</mgrwt>
</event>
<event>
12    6  0.1611689E-007  0.1018565E+04  0.7818608E-02  0.9288414E-01
          2   -1    0    0  501    0  0.00000000000E+00  0.00000000000E+00  0.10264665745E+04  0.10264665745E+04  0.00000000000E+00 0. -1.
         -1   -1    0    0    0  501 -0.00000000000E+00 -0.00000000000E+00 -0.25268113548E+03  0.25268113548E+03  0.00000000000E+00 0.  1.
         24    2    1    2    0    0  0.51777525691E+02 -0.47296873209E+02  0.14822736069E+03  0.18273197377E+03  0.80633227641E+02 0.  0.
        254    2    1    2    0    0 -0.51777525691E+02  0.47296873209E+02  0.62555807837E+03  0.10964157363E+04  0.89771189750E+03 0.  0.
         23    2    4    4    0    0  0.11180934679E+03 -0.38873665018E+03  0.20469958405E+03  0.46221165747E+03  0.90112060043E+02 0.  0.
         23    2    4    4    0    0 -0.16358687248E+03  0.43603352339E+03  0.42085849432E+03  0.63420407879E+03  0.90592731225E+02 0.  0.
          2    1    3    3  502    0  0.23618412404E+02 -0.26304105184E+02  0.14289917712E+03  0.14720703168E+03  0.00000000000E+00 0. -1.
         -1    1    3    3    0  502  0.28159113287E+02 -0.20992768024E+02  0.53281835670E+01  0.35524942091E+02  0.00000000000E+00 0.  1.
         11    1    5    5    0    0  0.10164559098E+03 -0.39086183157E+03  0.19743443305E+03  0.44953882246E+03  0.00000000000E+00 0. -1.
        -11    1    5    5    0    0  0.10163755800E+02  0.21251813942E+01  0.72651510024E+01  0.12672835003E+02  0.00000000000E+00 0.  1.
          3    1    6    6  503    0 -0.13897670525E+03  0.35515584085E+03  0.38639520506E+03  0.54291016788E+03  0.00000000000E+00 0. -1.
         -3    1    6    6    0  503 -0.24610167228E+02  0.80877682534E+02  0.34463289261E+02  0.91293910913E+02  0.00000000000E+00 0.  1.
<mgrwt>
<rscale>  0 0.10185651E+04</rscale>
<asrwt>0</asrwt>
<pdfrwt beam="1">  1        2 0.15791793E+00 0.10185651E+04</pdfrwt>
<pdfrwt beam="2">  1       -1 0.38874021E-01 0.10185651E+04</pdfrwt>
<totfact> 0.17661701E+02</totfact>
</mgrwt>
</event>
<event>
12    6  0.1611689E-007  0.2186255E+04  0.7818608E-02  0.8524171E-01
          2   -1    0    0  501    0  0.00000000000E+00  0.00000000000E+00  0.19132531499E+04  0.19132531499E+04  0.00000000000E+00 0. -1.
         -1   -1    0    0    0  501 -0.00000000000E+00 -0.00000000000E+00 -0.62455294235E+03  0.62455294235E+03  0.00000000000E+00 0.  1.
         24    2    1    2    0    0  0.30249116753E+03  0.29474479380E+03  0.14693506686E+04  0.15308711457E+04  0.78738029568E+02 0.  0.
        254    2    1    2    0    0 -0.30249116753E+03 -0.29474479380E+03 -0.18065046111E+03  0.10069349466E+04  0.89605133647E+03 0.  0.
         23    2    4    4    0    0  0.26279681798E+03 -0.30697870309E+03 -0.12087692756E+03  0.43150483566E+03  0.91033509723E+02 0.  0.
         23    2    4    4    0    0 -0.56528798551E+03  0.12233909289E+02 -0.59773533549E+02  0.57543011090E+03  0.88581951451E+02 0.  0.
          2    1    3    3  502    0  0.30519306597E+03  0.28853001423E+03  0.14607092888E+04  0.15198894707E+04  0.00000000000E+00 0. -1.
         -1    1    3    3    0  502 -0.27018984443E+01  0.62147795686E+01  0.86413797899E+01  0.10981674962E+02  0.00000000000E+00 0.  1.
         11    1    5    5    0    0  0.10548022947E+03 -0.97745177125E+02 -0.85618596693E+02  0.16736410177E+03  0.00000000000E+00 0.  1.
        -11    1    5    5    0    0  0.15731658851E+03 -0.20923352596E+03 -0.35258330870E+02  0.26414073389E+03  0.00000000000E+00 0. -1.
          2    1    6    6  503    0 -0.35532061749E+03  0.12172067768E+02 -0.80228244618E+02  0.36446875268E+03  0.00000000000E+00 0. -1.
         -2    1    6    6    0  503 -0.20996736802E+03  0.61841521322E-01  0.20454711069E+02  0.21096135822E+03  0.00000000000E+00 0.  1.
<mgrwt>
<rscale>  0 0.21862551E+04</rscale>
<asrwt>0</asrwt>
<pdfrwt beam="1">  1        2 0.29434664E+00 0.21862551E+04</pdfrwt>
<pdfrwt beam="2">  1       -1 0.96085069E-01 0.21862551E+04</pdfrwt>
<totfact> 0.81166332E+00</totfact>
</mgrwt>
</event>
<event>
12    6  0.1611689E-007  0.2292210E+04  0.7818608E-02  0.8480999E-01
         -1   -1    0    0    0  501 -0.00000000000E+00  0.00000000000E+00  0.12759820034E+04  0.12759820034E+04  0.00000000000E+00 0.  1.
          2   -1    0    0  501    0  0.00000000000E+00 -0.00000000000E+00 -0.10294473055E+04  0.10294473055E+04  0.00000000000E+00 0. -1.
         24    2    1    2    0    0  0.58114457868E+03  0.62420612332E+03  0.56304327931E+03  0.10252121980E+04  0.81731332826E+02 0.  0.
        254    2    1    2    0    0 -0.58114457868E+03 -0.62420612332E+03 -0.31650858136E+03  0.12802171109E+04  0.90078624723E+03 0.  0.
         23    2    4    4    0    0 -0.44265877855E+03  0.98452011764E+02  0.26979402798E+02  0.46301931113E+03  0.89551110852E+02 0.  0.
         23    2    4    4    0    0 -0.13848580013E+03 -0.72265813509E+03 -0.34348798416E+03  0.81719779975E+03  0.91734135492E+02 0.  0.
          4    1    3    3  502    0  0.58296053795E+03  0.61809885965E+03  0.56215893041E+03  0.10187795896E+04  0.00000000000E+00 0. -1.
         -3    1    3    3    0  502 -0.18159592759E+01  0.61072636737E+01  0.88434890254E+00  0.64326083864E+01  0.00000000000E+00 0.  1.
         11    1    5    5    0    0 -0.11140798015E+03 -0.10061908291E+02 -0.10919710143E+02  0.11239314974E+03  0.00000000000E+00 0. -1.
        -11    1    5    5    0    0 -0.33125079841E+03  0.10851392005E+03  0.37899112941E+02  0.35062616139E+03  0.00000000000E+00 0.  1.
          4    1    6    6  503    0 -0.67979934231E+01 -0.26273567879E+03 -0.11115575698E+03  0.28536266738E+03  0.00000000000E+00 0. -1.
         -4    1    6    6    0  503 -0.13168780670E+03 -0.45992245629E+03 -0.23233222718E+03  0.53183513237E+03  0.00000000000E+00 0.  1.
<mgrwt>
<rscale>  0 0.22922096E+04</rscale>
<asrwt>0</asrwt>
<pdfrwt beam="1">  1        2 0.15837651E+00 0.22922096E+04</pdfrwt>
<pdfrwt beam="2">  1       -1 0.19630492E+00 0.22922096E+04</pdfrwt>
<totfact> 0.39831306E+00</totfact>
</mgrwt>
</event>
<event>
12    6  0.1611689E-007  0.1609274E+04  0.7818608E-02  0.8814871E-01
         -1   -1    0    0    0  501 -0.00000000000E+00  0.00000000000E+00  0.33851949155E+03  0.33851949155E+03  0.00000000000E+00 0.  1.
          2   -1    0    0  501    0  0.00000000000E+00 -0.00000000000E+00 -0.19125650488E+04  0.19125650488E+04  0.00000000000E+00 0. -1.
         24    2    1    2    0    0 -0.36007409026E+03 -0.20093751361E+03 -0.45744424595E+02  0.42232448271E+03  0.78969497050E+02 0.  0.
        254    2    1    2    0    0  0.36007409026E+03  0.20093751361E+03 -0.15283011327E+04  0.18287600576E+04  0.91576730749E+03 0.  0.
         23    2    4    4    0    0 -0.22653807497E+03  0.13963051577E+03 -0.13213148171E+03  0.31047327462E+03  0.90104081194E+02 0.  0.
         23    2    4    4    0    0  0.58661216523E+03  0.61306997842E+02 -0.13961696509E+04  0.15182867830E+04  0.89625224567E+02 0.  0.
          4    1    3    3  502    0 -0.25589258624E+03 -0.11362756903E+03 -0.35919328961E+01  0.28000918220E+03  0.00000000000E+00 0. -1.
         -3    1    3    3    0  502 -0.10418150402E+03 -0.87309944580E+02 -0.42152491699E+02  0.14231530051E+03  0.00000000000E+00 0.  1.
         11    1    5    5    0    0 -0.17231986389E+03  0.11432094010E+03 -0.57151700115E+02  0.21454540233E+03  0.00000000000E+00 0. -1.
        -11    1    5    5    0    0 -0.54218211082E+02  0.25309575670E+02 -0.74979781592E+02  0.95927872285E+02  0.00000000000E+00 0.  1.
          3    1    6    6  503    0  0.35706388516E+03  0.24458754470E+02 -0.94995278445E+03  0.10151370062E+04  0.00000000000E+00 0. -1.
         -3    1    6    6    0  503  0.22954828007E+03  0.36848243372E+02 -0.44621686649E+03  0.50314977677E+03  0.00000000000E+00 0.  1.
<mgrwt>
<rscale>  0 0.16092738E+04</rscale>
<asrwt>0</asrwt>
<pdfrwt beam="1">  1        2 0.29424078E+00 0.16092738E+04</pdfrwt>
<pdfrwt beam="2">  1       -1 0.52079922E-01 0.16092738E+04</pdfrwt>
<totfact> 0.30283600E+01</totfact>
</mgrwt>
</event>
<event>
12    6  0.1611689E-007  0.1897115E+04  0.7818608E-02  0.8656294E-01
          2   -1    0    0  501    0  0.00000000000E+00  0.00000000000E+00  0.18893433475E+04  0.18893433475E+04  0.00000000000E+00 0. -1.
         -1   -1    0    0    0  501 -0.00000000000E+00 -0.00000000000E+00 -0.47622987174E+03  0.47622987174E+03  0.00000000000E+00 0.  1.
         24    2    1    2    0    0 -0.22847353052E+02 -0.77667879172E+02  0.14314925703E+04  0.14360139235E+04  0.80066901909E+02 0.  0.
        254    2    1    2    0    0  0.22847353052E+02  0.77667879172E+02 -0.18379094564E+02  0.92955929568E+03  0.92584469112E+03 0.  0.
         23    2    4    4    0    0 -0.31371473365E+03 -0.22259852686E+03  0.17445631858E+03  0.43209394745E+03  0.91121534572E+02 0.  0.
         23    2    4    4    0    0  0.33656208670E+03  0.30026640603E+03 -0.19283541314E+03  0.49746534823E+03  0.82778761342E+02 0.  0.
          4    1    3    3  502    0 -0.17823506932E+02 -0.19052530291E+02  0.10203688608E+04  0.10207023505E+04  0.00000000000E+00 0. -1.
         -3    1    3    3    0  502 -0.50238461195E+01 -0.58615348881E+02  0.41112370951E+03  0.41531157301E+03  0.00000000000E+00 0.  1.
         11    1    5    5    0    0 -0.37740217198E+02 -0.51120449982E+01  0.41712353167E+02  0.56483425931E+02  0.00000000000E+00 0. -1.
        -11    1    5    5    0    0 -0.27597451645E+03 -0.21748648186E+03  0.13274396541E+03  0.37561052152E+03  0.00000000000E+00 0.  1.
          4    1    6    6  503    0  0.31313938209E+03  0.26100743167E+03 -0.14871638529E+03  0.43393284648E+03  0.00000000000E+00 0.  1.
         -4    1    6    6    0  503  0.23422704611E+02  0.39258974365E+02 -0.44119027855E+02  0.63532501748E+02  0.00000000000E+00 0. -1.
<mgrwt>
<rscale>  0 0.18971154E+04</rscale>
<asrwt>0</asrwt>
<pdfrwt beam="1">  1        2 0.29066820E+00 0.18971154E+04</pdfrwt>
<pdfrwt beam="2">  1       -1 0.73266135E-01 0.18971154E+04</pdfrwt>
<totfact> 0.15416049E+01</totfact>
</mgrwt>
</event>
<event>
12    6  0.1611689E-007  0.1037723E+04  0.7818608E-02  0.9268112E-01
          2   -1    0    0  501    0  0.00000000000E+00  0.00000000000E+00  0.94303986121E+03  0.94303986121E+03  0.00000000000E+00 0. -1.
         -1   -1    0    0    0  501 -0.00000000000E+00 -0.00000000000E+00 -0.28547805844E+03  0.28547805844E+03  0.00000000000E+00 0.  1.
         24    2    1    2    0    0 -0.77136022986E+01  0.10207423612E+03  0.87523224351E+02  0.15695304238E+03  0.80593382918E+02 0.  0.
        254    2    1    2    0    0  0.77136022986E+01 -0.10207423612E+03  0.57003857842E+03  0.10715648773E+04  0.90157010597E+03 0.  0.
         23    2    4    4    0    0  0.26166831797E+03  0.11209346048E+03  0.65252785610E+03  0.71784248737E+03  0.92032500636E+02 0.  0.
         23    2    4    4    0    0 -0.25395471567E+03 -0.21416769661E+03 -0.82489277678E+02  0.35372238991E+03  0.89186592658E+02 0.  0.
          4    1    3    3  502    0 -0.20961235436E+02  0.56786470046E+02  0.91379941524E+02  0.10961008295E+03  0.00000000000E+00 0. -1.
         -3    1    3    3    0  502  0.13247633137E+02  0.45287766078E+02 -0.38567171731E+01  0.47342959429E+02  0.00000000000E+00 0.  1.
         11    1    5    5    0    0  0.76505949716E+01  0.24692904809E+02  0.28657679446E+02  0.38594478136E+02  0.00000000000E+00 0. -1.
        -11    1    5    5    0    0  0.25401772300E+03  0.87400555672E+02  0.62387017665E+03  0.67924800923E+03  0.00000000000E+00 0.  1.
          4    1    6    6  503    0 -0.13627625135E+01 -0.24296091556E+02  0.69587997445E+01  0.25309723042E+02  0.00000000000E+00 0. -1.
         -4    1    6    6    0  503 -0.25259195315E+03 -0.18987160505E+03 -0.89448077422E+02  0.32841266686E+03  0.00000000000E+00 0.  1.
<mgrwt>
<rscale>  0 0.10377229E+04</rscale>
<asrwt>0</asrwt>
<pdfrwt beam="1">  1        2 0.14508305E+00 0.10377229E+04</pdfrwt>
<pdfrwt beam="2">  1       -1 0.43919702E-01 0.10377229E+04</pdfrwt>
<totfact> 0.15969157E+02</totfact>
</mgrwt>
</event>
<event>
12    6  0.1611689E-007  0.1137369E+04  0.7818608E-02  0.9169516E-01
         -1   -1    0    0    0  501 -0.00000000000E+00  0.00000000000E+00  0.23378344466E+03  0.23378344466E+03  0.00000000000E+00 0.  1.
          2   -1    0    0  501    0  0.00000000000E+00 -0.00000000000E+00 -0.13833411492E+04  0.13833411492E+04  0.00000000000E+00 0. -1.
         24    2    1    2    0    0 -0.10320539007E+03 -0.16064785731E+03 -0.15150897336E+03  0.25736827258E+03  0.82609758018E+02 0.  0.
        254    2    1    2    0    0  0.10320539007E+03  0.16064785731E+03 -0.99804873121E+03  0.13597563213E+04  0.90353577511E+03 0.  0.
         23    2    4    4    0    0  0.26531537681E+03 -0.82051701151E+02  0.24252720084E+02  0.29271258499E+03  0.89262154054E+02 0.  0.
         23    2    4    4    0    0 -0.16210998674E+03  0.24269955846E+03 -0.10223014513E+04  0.10670437363E+04  0.91100792835E+02 0.  0.
          4    1    3    3  502    0 -0.35255381197E+02 -0.11233984804E+03 -0.12034309681E+03  0.16836164739E+03  0.00000000000E+00 0. -1.
         -3    1    3    3    0  502 -0.67950008875E+02 -0.48308009276E+02 -0.31165876551E+02  0.89006625189E+02  0.00000000000E+00 0.  1.
         11    1    5    5    0    0  0.55777521625E+02 -0.33188064688E+02 -0.28956822406E+02  0.71070930205E+02  0.00000000000E+00 0.  1.
        -11    1    5    5    0    0  0.20953785518E+03 -0.48863636464E+02  0.53209542490E+02  0.22164165478E+03  0.00000000000E+00 0. -1.
          3    1    6    6  503    0 -0.53735261415E+02  0.15019854155E+03 -0.62238975096E+03  0.64250765155E+03  0.00000000000E+00 0. -1.
         -3    1    6    6    0  503 -0.10837472532E+03  0.92501016913E+02 -0.39991170034E+03  0.42453608478E+03  0.00000000000E+00 0.  1.
<mgrwt>
<rscale>  0 0.11373693E+04</rscale>
<asrwt>0</asrwt>
<pdfrwt beam="1">  1        2 0.21282171E+00 0.11373693E+04</pdfrwt>
<pdfrwt beam="2">  1       -1 0.35966685E-01 0.11373693E+04</pdfrwt>
<totfact> 0.12329196E+02</totfact>
</mgrwt>
</event>
<event>
12    6  0.1611689E-007  0.1704935E+04  0.7818608E-02  0.8758555E-01
          2   -1    0    0  501    0  0.00000000000E+00  0.00000000000E+00  0.12438103648E+04  0.12438103648E+04  0.00000000000E+00 0. -1.
         -3   -1    0    0    0  501 -0.00000000000E+00 -0.00000000000E+00 -0.58425355419E+03  0.58425355419E+03  0.00000000000E+00 0.  1.
         24    2    1    2    0    0  0.25735227169E+03  0.49599795657E+03  0.50517937785E+03  0.75746440292E+03  0.79384842478E+02 0.  0.
        254    2    1    2    0    0 -0.25735227169E+03 -0.49599795657E+03  0.15437743274E+03  0.10705995161E+04  0.90005931326E+03 0.  0.
         23    2    4    4    0    0 -0.33481833992E+03 -0.15970101923E+03 -0.30520874650E+03  0.48832701976E+03  0.87767664914E+02 0.  0.
         23    2    4    4    0    0  0.77466068227E+02 -0.33629693734E+03  0.45958617924E+03  0.58227249630E+03  0.93408682660E+02 0.  0.
          4    1    3    3  502    0  0.19479062424E+03  0.38828977676E+03  0.43372785580E+03  0.61386659050E+03  0.00000000000E+00 0. -1.
         -3    1    3    3    0  502  0.62561647451E+02  0.10770817981E+03  0.71451522057E+02  0.14359781243E+03  0.00000000000E+00 0.  1.
         11    1    5    5    0    0 -0.88980168098E+02 -0.87449483742E+02 -0.10745375699E+03  0.16465476736E+03  0.00000000000E+00 0.  1.
        -11    1    5    5    0    0 -0.24583817182E+03 -0.72251535485E+02 -0.19775498951E+03  0.32367225241E+03  0.00000000000E+00 0. -1.
          3    1    6    6  503    0  0.40461258070E+02 -0.28137051948E+03  0.32165450650E+03  0.42926460859E+03  0.00000000000E+00 0. -1.
         -3    1    6    6    0  503  0.37004810157E+02 -0.54926417869E+02  0.13793167275E+03  0.15300788771E+03  0.00000000000E+00 0.  1.
<mgrwt>
<rscale>  0 0.17049348E+04</rscale>
<asrwt>0</asrwt>
<pdfrwt beam="1">  1        2 0.19135544E+00 0.17049348E+04</pdfrwt>
<pdfrwt beam="2">  1       -3 0.89885163E-01 0.17049348E+04</pdfrwt>
<totfact> 0.12060178E+01</totfact>
</mgrwt>
</event>
<event>
12    6  0.1611689E-007  0.2343290E+04  0.7818608E-02  0.8461045E-01
          2   -1    0    0  501    0  0.00000000000E+00  0.00000000000E+00  0.15827745548E+04  0.15827745548E+04  0.00000000000E+00 0. -1.
         -1   -1    0    0    0  501 -0.00000000000E+00 -0.00000000000E+00 -0.86730743170E+03  0.86730743170E+03  0.00000000000E+00 0.  1.
         24    2    1    2    0    0 -0.81656517982E+03  0.34583168731E+03  0.78247033052E+03  0.11854595353E+04  0.81708279630E+02 0.  0.
        254    2    1    2    0    0  0.81656517982E+03 -0.34583168731E+03 -0.67003207414E+02  0.12646224512E+04  0.89911193148E+03 0.  0.
         23    2    4    4    0    0  0.43347078406E+03 -0.63492622441E+03 -0.35617229484E+02  0.77508113577E+03  0.91945358345E+02 0.  0.
         23    2    4    4    0    0  0.38309439576E+03  0.28909453710E+03 -0.31385977930E+02  0.48954131538E+03  0.91261450882E+02 0.  0.
          4    1    3    3  502    0 -0.76481723436E+03  0.33038437876E+03  0.75729590722E+03  0.11258758061E+04  0.00000000000E+00 0. -1.
         -3    1    3    3    0  502 -0.51747945463E+02  0.15447308553E+02  0.25174423301E+02  0.59583729236E+02  0.00000000000E+00 0.  1.
         11    1    5    5    0    0  0.13046395299E+03 -0.17214381075E+03 -0.50123819613E+02  0.22173572536E+03  0.00000000000E+00 0. -1.
        -11    1    5    5    0    0  0.30300683107E+03 -0.46278241366E+03  0.14506590129E+02  0.55334541041E+03  0.00000000000E+00 0.  1.
          1    1    6    6  503    0  0.32970144792E+03  0.26275243276E+03  0.13518864151E+01  0.42159662390E+03  0.00000000000E+00 0. -1.
         -1    1    6    6    0  503  0.53392947836E+02  0.26342104333E+02 -0.32737864345E+02  0.67944691486E+02  0.00000000000E+00 0.  1.
<mgrwt>
<rscale>  0 0.23432901E+04</rscale>
<asrwt>0</asrwt>
<pdfrwt beam="1">  1        2 0.24350378E+00 0.23432901E+04</pdfrwt>
<pdfrwt beam="2">  1       -1 0.13343191E+00 0.23432901E+04</pdfrwt>
<totfact> 0.55686592E+00</totfact>
</mgrwt>
</event>
<event>
12    6  0.1611689E-007  0.1574390E+04  0.7818608E-02  0.8836438E-01
         -1   -1    0    0    0  501 -0.00000000000E+00  0.00000000000E+00  0.72783884202E+03  0.72783884202E+03  0.00000000000E+00 0.  1.
          2   -1    0    0  501    0  0.00000000000E+00 -0.00000000000E+00 -0.85139151051E+03  0.85139151051E+03  0.00000000000E+00 0. -1.
         24    2    1    2    0    0 -0.43361470167E+03 -0.23810190856E+03  0.15235263353E+03  0.52417866960E+03  0.82690533670E+02 0.  0.
        254    2    1    2    0    0  0.43361470167E+03  0.23810190856E+03 -0.27590530202E+03  0.10550516829E+04  0.89011015588E+03 0.  0.
         23    2    4    4    0    0  0.63054145910E+03  0.51090079093E+02 -0.38687016421E+03  0.74709828088E+03  0.91074637049E+02 0.  0.
         23    2    4    4    0    0 -0.19692675743E+03  0.18701182947E+03  0.11096486219E+03  0.30795340205E+03  0.93640402823E+02 0.  0.
          4    1    3    3  502    0 -0.40199510916E+03 -0.19528859176E+03  0.12365667010E+03  0.46371184363E+03  0.00000000000E+00 0. -1.
         -1    1    3    3    0  502 -0.31619592508E+02 -0.42813316808E+02  0.28695963434E+02  0.60466825978E+02  0.00000000000E+00 0.  1.
         11    1    5    5    0    0  0.14371533051E+03  0.31870835668E+02 -0.12965509971E+03  0.19616393978E+03  0.00000000000E+00 0.  1.
        -11    1    5    5    0    0  0.48682612859E+03  0.19219243425E+02 -0.25721506450E+03  0.55093434110E+03  0.00000000000E+00 0. -1.
          1    1    6    6  503    0 -0.49401600711E+02  0.85068432223E+02  0.25481652365E+01  0.98405535717E+02  0.00000000000E+00 0. -1.
         -1    1    6    6    0  503 -0.14752515672E+03  0.10194339725E+03  0.10841669695E+03  0.20954786633E+03  0.00000000000E+00 0.  1.
<mgrwt>
<rscale>  0 0.15743898E+04</rscale>
<asrwt>0</asrwt>
<pdfrwt beam="1">  1        2 0.13098331E+00 0.15743898E+04</pdfrwt>
<pdfrwt beam="2">  1       -1 0.11197521E+00 0.15743898E+04</pdfrwt>
<totfact> 0.25416195E+01</totfact>
</mgrwt>
</event>
<event>
12    6  0.1611689E-007  0.2437956E+04  0.7818608E-02  0.8425428E-01
          2   -1    0    0  501    0  0.00000000000E+00  0.00000000000E+00  0.22425863630E+04  0.22425863630E+04  0.00000000000E+00 0. -1.
         -1   -1    0    0    0  501 -0.00000000000E+00 -0.00000000000E+00 -0.66258665866E+03  0.66258665866E+03  0.00000000000E+00 0.  1.
         24    2    1    2    0    0 -0.45131992036E+03 -0.10873550952E+03 -0.43649100069E+03  0.64222910088E+03  0.80129537566E+02 0.  0.
        254    2    1    2    0    0  0.45131992036E+03  0.10873550952E+03  0.20164907050E+04  0.22629439208E+04  0.91606077506E+03 0.  0.
         23    2    4    4    0    0 -0.16325909848E+03  0.22009783232E+03  0.11835738385E+04  0.12180241974E+04  0.87403232534E+02 0.  0.
         23    2    4    4    0    0  0.61457901884E+03 -0.11136232279E+03  0.83291686646E+03  0.10449197234E+04  0.89430333641E+02 0.  0.
          2    1    3    3  502    0 -0.13469679880E+03 -0.30698624502E+02 -0.82411846543E+02  0.16086437022E+03  0.00000000000E+00 0. -1.
         -1    1    3    3    0  502 -0.31662312156E+03 -0.78036885023E+02 -0.35407915414E+03  0.48136473066E+03  0.00000000000E+00 0.  1.
         11    1    5    5    0    0 -0.14068088168E+03  0.17469701271E+03  0.10755887268E+04  0.10987271117E+04  0.00000000000E+00 0.  1.
        -11    1    5    5    0    0 -0.22578216802E+02  0.45400819604E+02  0.10798511172E+03  0.11929708567E+03  0.00000000000E+00 0. -1.
          3    1    6    6  503    0  0.31958785466E+02 -0.25755700328E+02  0.70306337195E+02  0.81410694123E+02  0.00000000000E+00 0. -1.
         -3    1    6    6    0  503  0.58262023338E+03 -0.85606622466E+02  0.76261052927E+03  0.96350902928E+03  0.00000000000E+00 0.  1.
<mgrwt>
<rscale>  0 0.24379564E+04</rscale>
<asrwt>0</asrwt>
<pdfrwt beam="1">  1        2 0.34501328E+00 0.24379564E+04</pdfrwt>
<pdfrwt beam="2">  1       -1 0.10193641E+00 0.24379564E+04</pdfrwt>
<totfact> 0.45435353E+00</totfact>
</mgrwt>
</event>
<event>
12    6  0.1611689E-007  0.3288527E+04  0.7818608E-02  0.8165821E-01
         -1   -1    0    0    0  501 -0.00000000000E+00  0.00000000000E+00  0.22918385574E+04  0.22918385574E+04  0.00000000000E+00 0.  1.
          2   -1    0    0  501    0  0.00000000000E+00 -0.00000000000E+00 -0.11796655613E+04  0.11796655613E+04  0.00000000000E+00 0. -1.
         24    2    1    2    0    0  0.14631678018E+03 -0.27828570065E+03 -0.10545724150E+04  0.11033291237E+04  0.79753653672E+02 0.  0.
        254    2    1    2    0    0 -0.14631678018E+03  0.27828570065E+03  0.21667454111E+04  0.23681749951E+04  0.90256057939E+03 0.  0.
         23    2    4    4    0    0  0.32524179471E+03  0.23343548443E+03  0.58653800111E+03  0.71597460541E+03  0.91205583272E+02 0.  0.
         23    2    4    4    0    0 -0.47155857490E+03  0.44850216216E+02  0.15802074099E+04  0.16522003896E+04  0.91277804633E+02 0.  0.
          2    1    3    3  502    0  0.10849555836E+03 -0.22640431090E+03 -0.92858911738E+03  0.96192928383E+03  0.00000000000E+00 0. -1.
         -1    1    3    3    0  502  0.37821221818E+02 -0.51881389752E+02 -0.12598329763E+03  0.14139983983E+03  0.00000000000E+00 0.  1.
         11    1    5    5    0    0  0.65922993866E+02  0.12930038342E+02  0.67179215159E+02  0.95005652259E+02  0.00000000000E+00 0. -1.
        -11    1    5    5    0    0  0.25931880085E+03  0.22050544609E+03  0.51935878596E+03  0.62096895315E+03  0.00000000000E+00 0.  1.
          2    1    6    6  503    0 -0.13548770391E+03  0.22399091464E+02  0.33040877416E+03  0.35781083725E+03  0.00000000000E+00 0. -1.
         -2    1    6    6    0  503 -0.33607087099E+03  0.22451124752E+02  0.12497986358E+04  0.12943895524E+04  0.00000000000E+00 0.  1.
<mgrwt>
<rscale>  0 0.32885273E+04</rscale>
<asrwt>0</asrwt>
<pdfrwt beam="1">  1        2 0.18148701E+00 0.32885273E+04</pdfrwt>
<pdfrwt beam="2">  1       -1 0.35259055E+00 0.32885273E+04</pdfrwt>
<totfact> 0.27695182E-01</totfact>
</mgrwt>
</event>
<event>
12    6  0.1611689E-007  0.1252958E+04  0.7818608E-02  0.9067725E-01
         -1   -1    0    0    0  501 -0.00000000000E+00  0.00000000000E+00  0.55667463700E+03  0.55667463700E+03  0.00000000000E+00 0.  1.
          2   -1    0    0  501    0  0.00000000000E+00 -0.00000000000E+00 -0.70503618927E+03  0.70503618927E+03  0.00000000000E+00 0. -1.
         24    2    1    2    0    0 -0.16956122309E+03  0.16216074977E+03  0.13910176887E+03  0.28556050906E+03  0.84548122926E+02 0.  0.
        254    2    1    2    0    0  0.16956122309E+03 -0.16216074977E+03 -0.28746332115E+03  0.97615031721E+03  0.90287715867E+03 0.  0.
         23    2    4    4    0    0 -0.13223658720E+03 -0.45784795154E+03 -0.63161488575E+02  0.48879512692E+03  0.88430994222E+02 0.  0.
         23    2    4    4    0    0  0.30179781029E+03  0.29568720177E+03 -0.22430183257E+03  0.48735519029E+03  0.93225156620E+02 0.  0.
          4    1    3    3  502    0  0.10203174448E+01  0.35890881756E+02  0.30734734928E+02  0.47263308940E+02  0.00000000000E+00 0. -1.
         -3    1    3    3    0  502 -0.17058154054E+03  0.12626986801E+03  0.10836703394E+03  0.23829720012E+03  0.00000000000E+00 0.  1.
         11    1    5    5    0    0 -0.11945249317E+03 -0.43640511367E+03 -0.39135859996E+02  0.45414748364E+03  0.00000000000E+00 0. -1.
        -11    1    5    5    0    0 -0.12784094031E+02 -0.21442837870E+02 -0.24025628579E+02  0.34647643278E+02  0.00000000000E+00 0.  1.
          1    1    6    6  503    0  0.15135092829E+03  0.11739985909E+03 -0.55559499989E+02  0.19944093974E+03  0.00000000000E+00 0. -1.
         -1    1    6    6    0  503  0.15044688200E+03  0.17828734268E+03 -0.16874233258E+03  0.28791425055E+03  0.00000000000E+00 0.  1.
<mgrwt>
<rscale>  0 0.12529577E+04</rscale>
<asrwt>0</asrwt>
<pdfrwt beam="1">  1        2 0.10846711E+00 0.12529577E+04</pdfrwt>
<pdfrwt beam="2">  1       -1 0.85642252E-01 0.12529577E+04</pdfrwt>
<totfact> 0.61448322E+01</totfact>
</mgrwt>
</event>
<event>
12    6  0.1611689E-007  0.1967782E+04  0.7818608E-02  0.8621833E-01
         -1   -1    0    0    0  501 -0.00000000000E+00  0.00000000000E+00  0.31111774149E+03  0.31111774149E+03  0.00000000000E+00 0.  1.
          2   -1    0    0  501    0  0.00000000000E+00 -0.00000000000E+00 -0.31114968007E+04  0.31114968007E+04  0.00000000000E+00 0. -1.
         24    2    1    2    0    0  0.10419040507E+03  0.53400250714E+03 -0.15295261400E+03  0.57125684692E+03  0.83219978876E+02 0.  0.
        254    2    1    2    0    0 -0.10419040507E+03 -0.53400250714E+03 -0.26474264452E+04  0.28513576953E+04  0.90849304096E+03 0.  0.
         23    2    4    4    0    0  0.23938984990E+02  0.14120129506E+03 -0.15103492218E+04  0.15195668392E+04  0.86126223961E+02 0.  0.
         23    2    4    4    0    0 -0.12812939006E+03 -0.67520380221E+03 -0.11370772235E+04  0.13317908561E+04  0.91678553010E+02 0.  0.
          4    1    3    3  502    0 -0.63446233118E+00  0.53747643233E+02 -0.39685117643E+02  0.66814072305E+02  0.00000000000E+00 0. -1.
         -3    1    3    3    0  502  0.10482486740E+03  0.48025486391E+03 -0.11326749636E+03  0.50444277462E+03  0.00000000000E+00 0.  1.
         11    1    5    5    0    0  0.21897749944E+02  0.37566088503E+02 -0.17968029336E+03  0.18486679063E+03  0.00000000000E+00 0.  1.
        -11    1    5    5    0    0  0.20412350461E+01  0.10363520656E+03 -0.13306689284E+04  0.13347000486E+04  0.00000000000E+00 0. -1.
          1    1    6    6  503    0 -0.29878548657E+01 -0.25160460611E+03 -0.41772934129E+03  0.48765931517E+03  0.00000000000E+00 0. -1.
         -1    1    6    6    0  503 -0.12514153519E+03 -0.42359919609E+03 -0.71934788219E+03  0.84413154091E+03  0.00000000000E+00 0.  1.
<mgrwt>
<rscale>  0 0.19677824E+04</rscale>
<asrwt>0</asrwt>
<pdfrwt beam="1">  1        2 0.47869181E+00 0.19677824E+04</pdfrwt>
<pdfrwt beam="2">  1       -1 0.47864268E-01 0.19677824E+04</pdfrwt>
<totfact> 0.68630099E+00</totfact>
</mgrwt>
</event>
<event>
12    6  0.1611689E-007  0.1895378E+04  0.7818608E-02  0.8657161E-01
         -1   -1    0    0    0  501 -0.00000000000E+00  0.00000000000E+00  0.84026708189E+03  0.84026708189E+03  0.00000000000E+00 0.  1.
          2   -1    0    0  501    0  0.00000000000E+00 -0.00000000000E+00 -0.10688438045E+04  0.10688438045E+04  0.00000000000E+00 0. -1.
         24    2    1    2    0    0 -0.48608724168E+03 -0.15643824746E+03  0.44316919023E+03  0.68133147747E+03  0.84023325504E+02 0.  0.
        254    2    1    2    0    0  0.48608724168E+03  0.15643824746E+03 -0.67174591282E+03  0.12277794089E+04  0.89187777959E+03 0.  0.
         23    2    4    4    0    0 -0.18342857639E+02  0.40116970695E+03 -0.10522164580E+03  0.42536007941E+03  0.92660715538E+02 0.  0.
         23    2    4    4    0    0  0.50443009932E+03 -0.24473145949E+03 -0.56652426702E+03  0.80241932949E+03  0.92648922600E+02 0.  0.
          2    1    3    3  502    0 -0.41552575852E+03 -0.10296689287E+03  0.35173640095E+03  0.55405986389E+03  0.00000000000E+00 0. -1.
         -1    1    3    3    0  502 -0.70561483162E+02 -0.53471354591E+02  0.91432789284E+02  0.12727161358E+03  0.00000000000E+00 0.  1.
         11    1    5    5    0    0  0.38555481946E+01  0.36733384587E+03 -0.11260346271E+03  0.38422462101E+03  0.00000000000E+00 0. -1.
        -11    1    5    5    0    0 -0.22198405834E+02  0.33835861086E+02  0.73818169107E+01  0.41135458401E+02  0.00000000000E+00 0.  1.
          4    1    6    6  503    0  0.25052262278E+03 -0.17271756587E+03 -0.30887182515E+03  0.43358360953E+03  0.00000000000E+00 0. -1.
         -4    1    6    6    0  503  0.25390747655E+03 -0.72013893622E+02 -0.25765244186E+03  0.36883571996E+03  0.00000000000E+00 0.  1.
<mgrwt>
<rscale>  0 0.18953778E+04</rscale>
<asrwt>0</asrwt>
<pdfrwt beam="1">  1        2 0.16443751E+00 0.18953778E+04</pdfrwt>
<pdfrwt beam="2">  1       -1 0.12927186E+00 0.18953778E+04</pdfrwt>
<totfact> 0.12523214E+01</totfact>
</mgrwt>
</event>
<event>
12    6  0.1611689E-007  0.2844589E+04  0.7818608E-02  0.8289557E-01
         -1   -1    0    0    0  501 -0.00000000000E+00  0.00000000000E+00  0.20862002801E+04  0.20862002801E+04  0.00000000000E+00 0.  1.
          2   -1    0    0  501    0  0.00000000000E+00 -0.00000000000E+00 -0.96966793157E+03  0.96966793157E+03  0.00000000000E+00 0. -1.
         24    2    1    2    0    0  0.16559032405E+03  0.31124023478E+03 -0.81241350093E+03  0.88925056642E+03  0.80375582214E+02 0.  0.
        254    2    1    2    0    0 -0.16559032405E+03 -0.31124023478E+03  0.19289458494E+04  0.21666176452E+04  0.92147126454E+03 0.  0.
         23    2    4    4    0    0  0.24729007850E+03 -0.29001327861E+03  0.15479761005E+04  0.15968418447E+04  0.91726683723E+02 0.  0.
         23    2    4    4    0    0 -0.41288040255E+03 -0.21226956174E+02  0.38096974889E+03  0.56977580051E+03  0.92659067518E+02 0.  0.
          4    1    3    3  502    0  0.10937231345E+03  0.12552232973E+03 -0.40937849653E+03  0.44193767845E+03  0.00000000000E+00 0. -1.
         -3    1    3    3    0  502  0.56218010595E+02  0.18571790506E+03 -0.40303500440E+03  0.44731288797E+03  0.00000000000E+00 0.  1.
         11    1    5    5    0    0  0.23007266340E+03 -0.26816921499E+03  0.15028849206E+04  0.15438624430E+04  0.00000000000E+00 0. -1.
        -11    1    5    5    0    0  0.17217415099E+02 -0.21844063621E+02  0.45091179875E+02  0.52979401664E+02  0.00000000000E+00 0.  1.
          4    1    6    6  503    0 -0.29675430835E+03 -0.40128169154E+01  0.21496257322E+03  0.36645344876E+03  0.00000000000E+00 0. -1.
         -4    1    6    6    0  503 -0.11612609420E+03 -0.17214139259E+02  0.16600717567E+03  0.20332235174E+03  0.00000000000E+00 0.  1.
<mgrwt>
<rscale>  0 0.28445889E+04</rscale>
<asrwt>0</asrwt>
<pdfrwt beam="1">  1        2 0.14917968E+00 0.28445889E+04</pdfrwt>
<pdfrwt beam="2">  1       -1 0.32095389E+00 0.28445889E+04</pdfrwt>
<totfact> 0.62831108E-01</totfact>
</mgrwt>
</event>
<event>
12    6  0.1611689E-007  0.1207309E+04  0.7818608E-02  0.9106483E-01
         -1   -1    0    0    0  501 -0.00000000000E+00  0.00000000000E+00  0.68188549968E+03  0.68188549968E+03  0.00000000000E+00 0.  1.
          2   -1    0    0  501    0  0.00000000000E+00 -0.00000000000E+00 -0.53439867228E+03  0.53439867228E+03  0.00000000000E+00 0. -1.
         24    2    1    2    0    0 -0.18801704779E+03  0.21297762275E+02  0.21271591195E+03  0.29556962582E+03  0.79431351329E+02 0.  0.
        254    2    1    2    0    0  0.18801704779E+03 -0.21297762275E+02 -0.65229084549E+02  0.92071454613E+03  0.89869707747E+03 0.  0.
         23    2    4    4    0    0 -0.28010196835E+03 -0.53718847432E+02 -0.26622751795E+03  0.40056151031E+03  0.90717170321E+02 0.  0.
         23    2    4    4    0    0  0.46811901614E+03  0.32421085157E+02  0.20099843340E+03  0.52015303582E+03  0.99861255775E+02 0.  0.
          2    1    3    3  502    0 -0.14306833956E+03 -0.10899436224E+02  0.11745895213E+03  0.18542910486E+03  0.00000000000E+00 0. -1.
         -1    1    3    3    0  502 -0.44948708230E+02  0.32197198499E+02  0.95256959823E+02  0.11014052096E+03  0.00000000000E+00 0.  1.
         11    1    5    5    0    0 -0.22911535273E+03 -0.10657487735E+02 -0.18020810379E+03  0.29168885404E+03  0.00000000000E+00 0. -1.
        -11    1    5    5    0    0 -0.50986615613E+02 -0.43061359697E+02 -0.86019414162E+02  0.10887265627E+03  0.00000000000E+00 0.  1.
          1    1    6    6  503    0  0.39428074462E+03 -0.10303406926E+02  0.16320813782E+03  0.42684934348E+03  0.00000000000E+00 0. -1.
         -1    1    6    6    0  503  0.73838271516E+02  0.42724492084E+02  0.37790295575E+02  0.93303692338E+02  0.00000000000E+00 0.  1.
<mgrwt>
<rscale>  0 0.12073089E+04</rscale>
<asrwt>0</asrwt>
<pdfrwt beam="1">  1        2 0.82215181E-01 0.12073089E+04</pdfrwt>
<pdfrwt beam="2">  1       -1 0.10490546E+00 0.12073089E+04</pdfrwt>
<totfact> 0.54825991E+01</totfact>
</mgrwt>
</event>
<event>
12    6  0.1611689E-007  0.1355847E+04  0.7818608E-02  0.8986414E-01
          2   -1    0    0  501    0  0.00000000000E+00  0.00000000000E+00  0.15513276704E+04  0.15513276704E+04  0.00000000000E+00 0. -1.
         -1   -1    0    0    0  501 -0.00000000000E+00 -0.00000000000E+00 -0.29624952628E+03  0.29624952628E+03  0.00000000000E+00 0.  1.
         24    2    1    2    0    0 -0.30010176572E+03  0.11113746134E+03  0.99089785234E+02  0.34409688603E+03  0.78557471532E+02 0.  0.
        254    2    1    2    0    0  0.30010176572E+03 -0.11113746134E+03  0.11559883589E+04  0.15034803107E+04  0.90649398980E+03 0.  0.
         23    2    4    4    0    0 -0.13255886760E+03 -0.39969958088E+03  0.56975081115E+03  0.71439757433E+03  0.91740389479E+02 0.  0.
         23    2    4    4    0    0  0.43266063332E+03  0.28856211954E+03  0.58623754775E+03  0.78908273634E+03  0.92270157292E+02 0.  0.
          2    1    3    3  502    0 -0.12565213354E+03  0.73158579270E+02  0.76033370937E+02  0.16407836505E+03  0.00000000000E+00 0. -1.
         -1    1    3    3    0  502 -0.17444963219E+03  0.37978882072E+02  0.23056414298E+02  0.18001852097E+03  0.00000000000E+00 0.  1.
         11    1    5    5    0    0  0.41895947000E+01 -0.30491570819E+01 -0.17088579685E+01  0.54562128089E+01  0.00000000000E+00 0. -1.
        -11    1    5    5    0    0 -0.13674846230E+03 -0.39665042380E+03  0.57145966912E+03  0.70894136152E+03  0.00000000000E+00 0.  1.
          4    1    6    6  503    0  0.35934559289E+02  0.16764526495E+01  0.62749723259E+02  0.72330013230E+02  0.00000000000E+00 0. -1.
         -4    1    6    6    0  503  0.39672607403E+03  0.28688566689E+03  0.52348782449E+03  0.71675272311E+03  0.00000000000E+00 0.  1.
<mgrwt>
<rscale>  0 0.13558467E+04</rscale>
<asrwt>0</asrwt>
<pdfrwt beam="1">  1        2 0.23866579E+00 0.13558467E+04</pdfrwt>
<pdfrwt beam="2">  1       -1 0.45576851E-01 0.13558467E+04</pdfrwt>
<totfact> 0.63166498E+01</totfact>
</mgrwt>
</event>
<event>
12    6  0.1611689E-007  0.1848351E+04  0.7818608E-02  0.8681001E-01
          2   -1    0    0  501    0  0.00000000000E+00  0.00000000000E+00  0.41199054125E+03  0.41199054125E+03  0.00000000000E+00 0. -1.
         -1   -1    0    0    0  501 -0.00000000000E+00 -0.00000000000E+00 -0.20731060841E+04  0.20731060841E+04  0.00000000000E+00 0.  1.
         24    2    1    2    0    0  0.52582230921E+03  0.96172027546E+02 -0.28454895102E+02  0.54154160634E+03  0.81972377050E+02 0.  0.
        254    2    1    2    0    0 -0.52582230921E+03 -0.96172027546E+02 -0.16326606478E+04  0.19435550190E+04  0.90889337191E+03 0.  0.
         23    2    4    4    0    0 -0.15259827556E+02 -0.41208717217E+03 -0.47622713840E+03  0.63738498300E+03  0.97049623422E+02 0.  0.
         23    2    4    4    0    0 -0.51056248165E+03  0.31591514462E+03 -0.11564335094E+04  0.13061700360E+04  0.90913558754E+02 0.  0.
          2    1    3    3  502    0  0.21444333945E+03  0.58295928294E+02 -0.47663287568E+02  0.22727989368E+03  0.00000000000E+00 0. -1.
         -3    1    3    3    0  502  0.31137896976E+03  0.37876099252E+02  0.19208392466E+02  0.31426171266E+03  0.00000000000E+00 0.  1.
         11    1    5    5    0    0 -0.19919440219E+02 -0.41663438865E+03 -0.46823478993E+03  0.62707640396E+03  0.00000000000E+00 0. -1.
        -11    1    5    5    0    0  0.46596126632E+01  0.45472164767E+01 -0.79923484700E+01  0.10308579045E+02  0.00000000000E+00 0.  1.
          4    1    6    6  503    0 -0.81727388081E+02  0.84794360063E+02 -0.18255426547E+03  0.21724527452E+03  0.00000000000E+00 0.  1.
         -4    1    6    6    0  503 -0.42883509357E+03  0.23112078456E+03 -0.97387924388E+03  0.10889247615E+04  0.00000000000E+00 0. -1.
<mgrwt>
<rscale>  0 0.18483507E+04</rscale>
<asrwt>0</asrwt>
<pdfrwt beam="1">  1        2 0.63383161E-01 0.18483507E+04</pdfrwt>
<pdfrwt beam="2">  1       -1 0.31893939E+00 0.18483507E+04</pdfrwt>
<totfact> 0.20591348E+00</totfact>
</mgrwt>
</event>
<event>
12    6  0.1611689E-007  0.1440866E+04  0.7818608E-02  0.8924758E-01
         -1   -1    0    0    0  501 -0.00000000000E+00  0.00000000000E+00  0.79027702323E+03  0.79027702323E+03  0.00000000000E+00 0.  1.
          2   -1    0    0  501    0  0.00000000000E+00 -0.00000000000E+00 -0.65676131959E+03  0.65676131959E+03  0.00000000000E+00 0. -1.
         24    2    1    2    0    0 -0.31427657618E+03 -0.13871463775E+03 -0.22649099212E+03  0.41904185992E+03  0.79286781954E+02 0.  0.
        254    2    1    2    0    0  0.31427657618E+03  0.13871463775E+03  0.36000669576E+03  0.10279964829E+04  0.89953345175E+03 0.  0.
         23    2    4    4    0    0  0.23102329185E+03  0.61910994662E+02 -0.27533638473E+03  0.37615194769E+03  0.92062100536E+02 0.  0.
         23    2    4    4    0    0  0.83253284323E+02  0.76803643087E+02  0.63534308049E+03  0.65184453522E+03  0.91709101122E+02 0.  0.
          4    1    3    3  502    0 -0.30859450583E+03 -0.14700298220E+03 -0.21516963766E+03  0.40390397222E+03  0.00000000000E+00 0. -1.
         -3    1    3    3    0  502 -0.56820703473E+01  0.82883444519E+01 -0.11321354455E+02  0.15137887696E+02  0.00000000000E+00 0.  1.
         11    1    5    5    0    0  0.18375648041E+03  0.51426807463E+02 -0.15299381934E+03  0.24457773687E+03  0.00000000000E+00 0. -1.
        -11    1    5    5    0    0  0.47266811447E+02  0.10484187199E+02 -0.12234256539E+03  0.13157421082E+03  0.00000000000E+00 0.  1.
          3    1    6    6  503    0  0.63322588015E+02  0.35871415590E+02  0.55287507847E+03  0.55764447545E+03  0.00000000000E+00 0. -1.
         -3    1    6    6    0  503  0.19930696308E+02  0.40932227498E+02  0.82468002022E+02  0.94200059770E+02  0.00000000000E+00 0.  1.
<mgrwt>
<rscale>  0 0.14408655E+04</rscale>
<asrwt>0</asrwt>
<pdfrwt beam="1">  1        2 0.10104020E+00 0.14408655E+04</pdfrwt>
<pdfrwt beam="2">  1       -1 0.12158108E+00 0.14408655E+04</pdfrwt>
<totfact> 0.29509586E+01</totfact>
</mgrwt>
</event>
<event>
12    6  0.1611689E-007  0.1204172E+04  0.7818608E-02  0.9109213E-01
          2   -1    0    0  501    0  0.00000000000E+00  0.00000000000E+00  0.10788426517E+04  0.10788426517E+04  0.00000000000E+00 0. -1.
         -1   -1    0    0    0  501 -0.00000000000E+00 -0.00000000000E+00 -0.33601497994E+03  0.33601497994E+03  0.00000000000E+00 0.  1.
         24    2    1    2    0    0  0.11420090554E+03  0.21142495370E+03  0.73566609747E+02  0.26456797908E+03  0.82715244155E+02 0.  0.
        254    2    1    2    0    0 -0.11420090554E+03 -0.21142495370E+03  0.66926106205E+03  0.11502896526E+04  0.90416456345E+03 0.  0.
         23    2    4    4    0    0  0.24425486198E+03  0.23561521241E+03  0.30202613311E+03  0.46319863153E+03  0.90322872254E+02 0.  0.
         23    2    4    4    0    0 -0.35845576752E+03 -0.44704016611E+03  0.36723492894E+03  0.68709102105E+03  0.94324603389E+02 0.  0.
          4    1    3    3  502    0  0.20863068995E+02  0.27644695533E+01  0.21585472563E+02  0.30147015865E+02  0.00000000000E+00 0. -1.
         -3    1    3    3    0  502  0.93337836541E+02  0.20866048414E+03  0.51981137184E+02  0.23442096322E+03  0.00000000000E+00 0.  1.
         11    1    5    5    0    0  0.19548122740E+03  0.22733676833E+03  0.27492424977E+03  0.40679019115E+03  0.00000000000E+00 0. -1.
        -11    1    5    5    0    0  0.48773634576E+02  0.82784440785E+01  0.27101883345E+02  0.56408440388E+02  0.00000000000E+00 0.  1.
          3    1    6    6  503    0 -0.33903941732E+03 -0.42525034294E+03  0.36997938863E+03  0.65777680765E+03  0.00000000000E+00 0. -1.
         -3    1    6    6    0  503 -0.19416350191E+02 -0.21789823163E+02 -0.27444596982E+01  0.29314213400E+02  0.00000000000E+00 0.  1.
<mgrwt>
<rscale>  0 0.12041716E+04</rscale>
<asrwt>0</asrwt>
<pdfrwt beam="1">  1        2 0.16597579E+00 0.12041716E+04</pdfrwt>
<pdfrwt beam="2">  1       -1 0.51694613E-01 0.12041716E+04</pdfrwt>
<totfact> 0.95107437E+01</totfact>
</mgrwt>
</event>
<event>
12    6  0.1611689E-007  0.1652271E+04  0.7818608E-02  0.8789064E-01
         -1   -1    0    0    0  501 -0.00000000000E+00  0.00000000000E+00  0.26123559064E+03  0.26123559064E+03  0.00000000000E+00 0.  1.
          2   -1    0    0  501    0  0.00000000000E+00 -0.00000000000E+00 -0.26125840246E+04  0.26125840246E+04  0.00000000000E+00 0. -1.
         24    2    1    2    0    0 -0.50537884811E+03  0.24599355247E+03 -0.55314907014E+03  0.79261272212E+03  0.79626788823E+02 0.  0.
        254    2    1    2    0    0  0.50537884811E+03 -0.24599355247E+03 -0.17981993639E+04  0.20812068932E+04  0.88429665386E+03 0.  0.
         23    2    4    4    0    0  0.61739443030E+03  0.54823419955E+02 -0.15289042925E+04  0.16522965405E+04  0.91400394353E+02 0.  0.
         23    2    4    4    0    0 -0.11201558220E+03 -0.30081697242E+03 -0.26929507132E+03  0.42891035266E+03  0.91683769727E+02 0.  0.
          4    1    3    3  502    0 -0.26162938218E+03  0.11892521764E+03 -0.33717034530E+03  0.44303158213E+03  0.00000000000E+00 0. -1.
         -3    1    3    3    0  502 -0.24374946593E+03  0.12706833482E+03 -0.21597872484E+03  0.34958113999E+03  0.00000000000E+00 0.  1.
         11    1    5    5    0    0  0.28041370701E+03  0.54339908011E+02 -0.61028412252E+03  0.67381850886E+03  0.00000000000E+00 0. -1.
        -11    1    5    5    0    0  0.33698072330E+03  0.48351194330E+00 -0.91862017001E+03  0.97847803164E+03  0.00000000000E+00 0.  1.
          4    1    6    6  503    0  0.70753902377E+01 -0.17864772651E+02 -0.44325038619E+02  0.48310664428E+02  0.00000000000E+00 0. -1.
         -4    1    6    6    0  503 -0.11909097243E+03 -0.28295219977E+03 -0.22497003271E+03  0.38059968824E+03  0.00000000000E+00 0.  1.
<mgrwt>
<rscale>  0 0.16522711E+04</rscale>
<asrwt>0</asrwt>
<pdfrwt beam="1">  1        2 0.40193600E+00 0.16522711E+04</pdfrwt>
<pdfrwt beam="2">  1       -1 0.40190091E-01 0.16522711E+04</pdfrwt>
<totfact> 0.19696326E+01</totfact>
</mgrwt>
</event>
<event>
12    6  0.1611689E-007  0.3170868E+04  0.7818608E-02  0.8196554E-01
         -1   -1    0    0    0  501 -0.00000000000E+00  0.00000000000E+00  0.19872157626E+04  0.19872157626E+04  0.00000000000E+00 0.  1.
          2   -1    0    0  501    0  0.00000000000E+00 -0.00000000000E+00 -0.12648856101E+04  0.12648856101E+04  0.00000000000E+00 0. -1.
         24    2    1    2    0    0  0.16147774320E+03 -0.95886227154E+03  0.14433652497E+04  0.17421227928E+04  0.78718891937E+02 0.  0.
        254    2    1    2    0    0 -0.16147774320E+03  0.95886227154E+03 -0.72103509712E+03  0.15099785799E+04  0.90258062414E+03 0.  0.
         23    2    4    4    0    0 -0.32254503576E+03  0.71329249005E+03 -0.86524118166E+03  0.11702498020E+04  0.89559031407E+02 0.  0.
         23    2    4    4    0    0  0.16106729256E+03  0.24556978149E+03  0.14420608455E+03  0.33972877791E+03  0.91504411944E+02 0.  0.
          4    1    3    3  502    0  0.63803578039E+01 -0.32080152920E+02  0.78742915593E+02  0.85266006902E+02  0.00000000000E+00 0. -1.
         -3    1    3    3    0  502  0.15509738540E+03 -0.92678211863E+03  0.13646223341E+04  0.16568567859E+04  0.00000000000E+00 0.  1.
         11    1    5    5    0    0 -0.27836827433E+02  0.11647680673E+03 -0.99872588589E+02  0.15593674814E+03  0.00000000000E+00 0. -1.
        -11    1    5    5    0    0 -0.29470820833E+03  0.59681568332E+03 -0.76536859308E+03  0.10143130538E+04  0.00000000000E+00 0.  1.
          1    1    6    6  503    0  0.19638434178E+02  0.39328427267E+02 -0.11117331389E+02  0.45343007680E+02  0.00000000000E+00 0. -1.
         -1    1    6    6    0  503  0.14142885838E+03  0.20624135423E+03  0.15532341593E+03  0.29438577023E+03  0.00000000000E+00 0.  1.
<mgrwt>
<rscale>  0 0.31708678E+04</rscale>
<asrwt>0</asrwt>
<pdfrwt beam="1">  1        2 0.19459779E+00 0.31708678E+04</pdfrwt>
<pdfrwt beam="2">  1       -1 0.30572550E+00 0.31708678E+04</pdfrwt>
<totfact> 0.50515576E-01</totfact>
</mgrwt>
</event>
<event>
12    6  0.1611689E-007  0.2084076E+04  0.7818608E-02  0.8568291E-01
         -1   -1    0    0    0  501 -0.00000000000E+00  0.00000000000E+00  0.58067195773E+03  0.58067195773E+03  0.00000000000E+00 0.  1.
          2   -1    0    0  501    0  0.00000000000E+00 -0.00000000000E+00 -0.18699770341E+04  0.18699770341E+04  0.00000000000E+00 0. -1.
         24    2    1    2    0    0 -0.35976675341E+03 -0.71229682217E+03 -0.78074620398E+03  0.11193826406E+04  0.81571939296E+02 0.  0.
        254    2    1    2    0    0  0.35976675341E+03  0.71229682217E+03 -0.50855887244E+03  0.13312663513E+04  0.93639686651E+03 0.  0.
         23    2    4    4    0    0  0.50533382853E+02 -0.19423530261E+03 -0.25420879496E+03  0.33664669562E+03  0.91803652847E+02 0.  0.
         23    2    4    4    0    0  0.30923337056E+03  0.90653212478E+03 -0.25435007748E+03  0.99461965567E+03  0.84548960970E+02 0.  0.
          4    1    3    3  502    0 -0.32679049852E+03 -0.68638762415E+03 -0.74100200808E+03  0.10616044350E+04  0.00000000000E+00 0. -1.
         -3    1    3    3    0  502 -0.32976254894E+02 -0.25909198021E+02 -0.39744195896E+02  0.57778205548E+02  0.00000000000E+00 0.  1.
         11    1    5    5    0    0  0.12687883337E+02  0.63094398307E+01 -0.62105318413E+01  0.15471332209E+02  0.00000000000E+00 0.  1.
        -11    1    5    5    0    0  0.37845499515E+02 -0.20054474244E+03 -0.24799826311E+03  0.32117536341E+03  0.00000000000E+00 0. -1.
          1    1    6    6  503    0  0.22401346375E+03  0.67336623651E+03 -0.15001000842E+03  0.72533242243E+03  0.00000000000E+00 0. -1.
         -1    1    6    6    0  503  0.85219906812E+02  0.23316588828E+03 -0.10434006906E+03  0.26928723324E+03  0.00000000000E+00 0.  1.
<mgrwt>
<rscale>  0 0.20840760E+04</rscale>
<asrwt>0</asrwt>
<pdfrwt beam="1">  1        2 0.28768878E+00 0.20840760E+04</pdfrwt>
<pdfrwt beam="2">  1       -1 0.89334147E-01 0.20840760E+04</pdfrwt>
<totfact> 0.10178810E+01</totfact>
</mgrwt>
</event>
<event>
12    6  0.1611689E-007  0.1700147E+04  0.7818608E-02  0.8761280E-01
          2   -1    0    0  501    0  0.00000000000E+00  0.00000000000E+00  0.26883501406E+04  0.26883501406E+04  0.00000000000E+00 0. -1.
         -1   -1    0    0    0  501 -0.00000000000E+00 -0.00000000000E+00 -0.26879873748E+03  0.26879873748E+03  0.00000000000E+00 0.  1.
         24    2    1    2    0    0  0.17435476060E+03 -0.43673675841E+03  0.19692627434E+03  0.51591022365E+03  0.79024190284E+02 0.  0.
        254    2    1    2    0    0 -0.17435476060E+03  0.43673675841E+03  0.22226251288E+04  0.24412386544E+04  0.89355756733E+03 0.  0.
         23    2    4    4    0    0 -0.44823969150E+03  0.33276885902E+03  0.76307799432E+03  0.94995049402E+03  0.91999897288E+02 0.  0.
         23    2    4    4    0    0  0.27388493090E+03  0.10396789939E+03  0.14595471344E+04  0.14912881604E+04  0.88545243876E+02 0.  0.
          4    1    3    3  502    0  0.99679076488E+02 -0.23158111073E+03  0.14736687359E+03  0.29203206086E+03  0.00000000000E+00 0. -1.
         -3    1    3    3    0  502  0.74675684115E+02 -0.20515564768E+03  0.49559400750E+02  0.22387816279E+03  0.00000000000E+00 0.  1.
         11    1    5    5    0    0 -0.29663829406E+03  0.18582161018E+03  0.41569606957E+03  0.54344012602E+03  0.00000000000E+00 0.  1.
        -11    1    5    5    0    0 -0.15160139744E+03  0.14694724885E+03  0.34738192475E+03  0.40651036800E+03  0.00000000000E+00 0. -1.
          2    1    6    6  503    0  0.15823408857E+03  0.16264811840E+02  0.68141855741E+03  0.69973839488E+03  0.00000000000E+00 0. -1.
         -2    1    6    6    0  503  0.11565084233E+03  0.87703087550E+02  0.77812857701E+03  0.79154976550E+03  0.00000000000E+00 0.  1.
<mgrwt>
<rscale>  0 0.17001472E+04</rscale>
<asrwt>0</asrwt>
<pdfrwt beam="1">  1        2 0.41359231E+00 0.17001472E+04</pdfrwt>
<pdfrwt beam="2">  1       -1 0.41353654E-01 0.17001472E+04</pdfrwt>
<totfact> 0.16794292E+01</totfact>
</mgrwt>
</event>
<event>
12    6  0.1611689E-007  0.1587333E+04  0.7818608E-02  0.8828368E-01
         -1   -1    0    0    0  501 -0.00000000000E+00  0.00000000000E+00  0.44291073910E+03  0.44291073910E+03  0.00000000000E+00 0.  1.
          2   -1    0    0  501    0  0.00000000000E+00 -0.00000000000E+00 -0.14221970024E+04  0.14221970024E+04  0.00000000000E+00 0. -1.
         24    2    1    2    0    0 -0.43055398466E+03 -0.82118609107E+02 -0.75150647257E+03  0.87375458604E+03  0.81024062147E+02 0.  0.
        254    2    1    2    0    0  0.43055398466E+03  0.82118609107E+02 -0.22777979068E+03  0.99135315541E+03  0.85952152157E+03 0.  0.
         23    2    4    4    0    0 -0.14780384360E+03 -0.23062859540E+03  0.10753598515E+02  0.28538079754E+03  0.79316042040E+02 0.  0.
         23    2    4    4    0    0  0.57835782826E+03  0.31274720451E+03 -0.23853338920E+03  0.70597235787E+03  0.95865535407E+02 0.  0.
          2    1    3    3  502    0 -0.38801766786E+03 -0.50024753073E+02 -0.68096843491E+03  0.78535227499E+03  0.00000000000E+00 0. -1.
         -3    1    3    3    0  502 -0.42536316803E+02 -0.32093856035E+02 -0.70538037662E+02  0.88402311053E+02  0.00000000000E+00 0.  1.
         11    1    5    5    0    0 -0.72288895268E+00 -0.13643811756E+02 -0.16965892957E+02  0.21783426992E+02  0.00000000000E+00 0.  1.
        -11    1    5    5    0    0 -0.14708095465E+03 -0.21698478364E+03  0.27719491472E+02  0.26359737055E+03  0.00000000000E+00 0. -1.
          2    1    6    6  503    0  0.11218810632E+03  0.46691378126E+02 -0.79072509332E+01  0.12177348073E+03  0.00000000000E+00 0.  1.
         -2    1    6    6    0  503  0.46616972194E+03  0.26605582638E+03 -0.23062613826E+03  0.58419887714E+03  0.00000000000E+00 0. -1.
<mgrwt>
<rscale>  0 0.15873328E+04</rscale>
<asrwt>0</asrwt>
<pdfrwt beam="1">  1        2 0.21879954E+00 0.15873328E+04</pdfrwt>
<pdfrwt beam="2">  1       -1 0.68140114E-01 0.15873328E+04</pdfrwt>
<totfact> 0.33519933E+01</totfact>
</mgrwt>
</event>
<event>
12    6  0.1611689E-007  0.3493152E+04  0.7818608E-02  0.8115415E-01
          2   -1    0    0  501    0  0.00000000000E+00  0.00000000000E+00  0.23175990240E+04  0.23175990240E+04  0.00000000000E+00 0. -1.
         -1   -1    0    0    0  501 -0.00000000000E+00 -0.00000000000E+00 -0.13162450271E+04  0.13162450271E+04  0.00000000000E+00 0.  1.
         24    2    1    2    0    0 -0.37550673651E+03  0.50180957943E+03  0.20298759393E+04  0.21259257656E+04  0.79660960360E+02 0.  0.
        254    2    1    2    0    0  0.37550673651E+03 -0.50180957943E+03 -0.10285219425E+04  0.15079182854E+04  0.90727173778E+03 0.  0.
         23    2    4    4    0    0  0.55619345670E+03 -0.39684053952E+03 -0.10705022400E+04  0.12732381585E+04  0.91251231587E+02 0.  0.
         23    2    4    4    0    0 -0.18068672019E+03 -0.10496903991E+03  0.41980297546E+02  0.23468012693E+03  0.98215204534E+02 0.  0.
          2    1    3    3  502    0 -0.22973597588E+03  0.30606016716E+03  0.11051099844E+04  0.11694954135E+04  0.00000000000E+00 0. -1.
         -1    1    3    3    0  502 -0.14577076064E+03  0.19574941227E+03  0.92476595491E+03  0.95643035211E+03  0.00000000000E+00 0.  1.
         11    1    5    5    0    0  0.23029222379E+03 -0.19820190298E+03 -0.54159556940E+03  0.62100262759E+03  0.00000000000E+00 0. -1.
        -11    1    5    5    0    0  0.32590123291E+03 -0.19863863655E+03 -0.52890667060E+03  0.65223553088E+03  0.00000000000E+00 0.  1.
          4    1    6    6  503    0 -0.15790937159E+03 -0.12146269706E+03  0.50074005590E+02  0.20541655836E+03  0.00000000000E+00 0. -1.
         -4    1    6    6    0  503 -0.22777348594E+02  0.16493657152E+02 -0.80937080440E+01  0.29263568564E+02  0.00000000000E+00 0.  1.
<mgrwt>
<rscale>  0 0.34931523E+04</rscale>
<asrwt>0</asrwt>
<pdfrwt beam="1">  1        2 0.35655370E+00 0.34931523E+04</pdfrwt>
<pdfrwt beam="2">  1       -1 0.20249923E+00 0.34931523E+04</pdfrwt>
<totfact> 0.59895989E-01</totfact>
</mgrwt>
</event>
<event>
12    6  0.1611689E-007  0.1376591E+04  0.7818608E-02  0.8970940E-01
         -1   -1    0    0    0  501 -0.00000000000E+00  0.00000000000E+00  0.28753625508E+03  0.28753625508E+03  0.00000000000E+00 0.  1.
          2   -1    0    0  501    0  0.00000000000E+00 -0.00000000000E+00 -0.16476206783E+04  0.16476206783E+04  0.00000000000E+00 0. -1.
         24    2    1    2    0    0  0.57970511534E+00 -0.16809467514E+03  0.97135098446E+02  0.20968014971E+03  0.79210996501E+02 0.  0.
        254    2    1    2    0    0 -0.57970511534E+00  0.16809467514E+03 -0.14572195216E+04  0.17254767836E+04  0.90858419574E+03 0.  0.
         23    2    4    4    0    0  0.38045903226E+03  0.25199176769E+03 -0.10743840207E+04  0.11708431611E+04  0.91234629770E+02 0.  0.
         23    2    4    4    0    0 -0.38103873738E+03 -0.83897092555E+02 -0.38283550090E+03  0.55463362253E+03  0.93947820488E+02 0.  0.
          4    1    3    3  502    0  0.73619672614E+01 -0.10135614470E+03  0.13576973807E+02  0.10252609838E+03  0.00000000000E+00 0. -1.
         -3    1    3    3    0  502 -0.67822621461E+01 -0.66738530432E+02  0.83558124639E+02  0.10715405133E+03  0.00000000000E+00 0.  1.
         11    1    5    5    0    0 -0.51252647880E+01  0.58765079269E+01 -0.14618907017E+02  0.16568467852E+02  0.00000000000E+00 0.  1.
        -11    1    5    5    0    0  0.38558429705E+03  0.24611525976E+03 -0.10597651137E+04  0.11542746932E+04  0.00000000000E+00 0. -1.
          1    1    6    6  503    0 -0.34048277222E+03 -0.55771121367E+02 -0.29527487640E+03  0.45412133708E+03  0.00000000000E+00 0. -1.
         -1    1    6    6    0  503 -0.40555965161E+02 -0.28125971188E+02 -0.87560624492E+02  0.10051228545E+03  0.00000000000E+00 0.  1.
<mgrwt>
<rscale>  0 0.13765910E+04</rscale>
<asrwt>0</asrwt>
<pdfrwt beam="1">  1        2 0.25348010E+00 0.13765910E+04</pdfrwt>
<pdfrwt beam="2">  1       -1 0.44236348E-01 0.13765910E+04</pdfrwt>
<totfact> 0.58905022E+01</totfact>
</mgrwt>
</event>
<event>
12    6  0.1611689E-007  0.1649366E+04  0.7818608E-02  0.8790782E-01
          2   -1    0    0  501    0  0.00000000000E+00  0.00000000000E+00  0.15259025108E+04  0.15259025108E+04  0.00000000000E+00 0. -1.
         -1   -1    0    0    0  501 -0.00000000000E+00 -0.00000000000E+00 -0.44570474652E+03  0.44570474652E+03  0.00000000000E+00 0.  1.
         24    2    1    2    0    0  0.34297719306E+03 -0.44605078318E+03  0.23340100444E+03  0.61424305259E+03  0.78891334426E+02 0.  0.
        254    2    1    2    0    0 -0.34297719306E+03  0.44605078318E+03  0.84679675988E+03  0.13573642048E+04  0.89932095256E+03 0.  0.
         23    2    4    4    0    0 -0.55046204125E+03  0.24552934899E+03  0.86035884522E+03  0.10545502464E+04  0.92551389024E+02 0.  0.
         23    2    4    4    0    0  0.20748484818E+03  0.20052143419E+03 -0.13562085339E+02  0.30281395835E+03  0.90849080439E+02 0.  0.
          2    1    3    3  502    0  0.58132920744E+02 -0.64843430464E+02  0.67840791752E+02  0.11039239093E+03  0.00000000000E+00 0. -1.
         -1    1    3    3    0  502  0.28484427232E+03 -0.38120735272E+03  0.16556021269E+03  0.50385066167E+03  0.00000000000E+00 0.  1.
         11    1    5    5    0    0 -0.18360669748E+03  0.48883388993E+02  0.21865964137E+03  0.28967748246E+03  0.00000000000E+00 0. -1.
        -11    1    5    5    0    0 -0.36685534377E+03  0.19664596000E+03  0.64169920384E+03  0.76487276396E+03  0.00000000000E+00 0.  1.
          4    1    6    6  503    0  0.13566277969E+02  0.11849609224E+02  0.23629357749E+02  0.29712012458E+02  0.00000000000E+00 0. -1.
         -4    1    6    6    0  503  0.19391857022E+03  0.18867182496E+03 -0.37191443088E+02  0.27310194589E+03  0.00000000000E+00 0.  1.
<mgrwt>
<rscale>  0 0.16493659E+04</rscale>
<asrwt>0</asrwt>
<pdfrwt beam="1">  1        2 0.23475423E+00 0.16493659E+04</pdfrwt>
<pdfrwt beam="2">  1       -1 0.68569962E-01 0.16493659E+04</pdfrwt>
<totfact> 0.28756993E+01</totfact>
</mgrwt>
</event>
<event>
12    6  0.1611689E-007  0.1170844E+04  0.7818608E-02  0.9138766E-01
          2   -1    0    0  501    0  0.00000000000E+00  0.00000000000E+00  0.65224457734E+03  0.65224457734E+03  0.00000000000E+00 0. -1.
         -1   -1    0    0    0  501 -0.00000000000E+00 -0.00000000000E+00 -0.52544564154E+03  0.52544564154E+03  0.00000000000E+00 0.  1.
         24    2    1    2    0    0  0.17977465053E+03 -0.83509017732E+01 -0.12444145960E+03  0.23299575727E+03  0.80079232681E+02 0.  0.
        254    2    1    2    0    0 -0.17977465053E+03  0.83509017732E+01  0.25124039540E+03  0.94469446160E+03  0.89271340696E+03 0.  0.
         23    2    4    4    0    0  0.67946805705E+02 -0.11800668253E+03 -0.28795506310E+03  0.33086615772E+03  0.89509499103E+02 0.  0.
         23    2    4    4    0    0 -0.24772145623E+03  0.12635758431E+03  0.53919545851E+03  0.61382830388E+03  0.93387821392E+02 0.  0.
          2    1    3    3  502    0  0.21055164169E+02 -0.62383562091E+01  0.10790277986E+02  0.24467675112E+02  0.00000000000E+00 0. -1.
         -1    1    3    3    0  502  0.15871948636E+03 -0.21125455641E+01 -0.13523173759E+03  0.20852808216E+03  0.00000000000E+00 0.  1.
         11    1    5    5    0    0  0.11337690766E+02 -0.66644823476E+01  0.36391894472E+01  0.13645594773E+02  0.00000000000E+00 0. -1.
        -11    1    5    5    0    0  0.56609114939E+02 -0.11134220018E+03 -0.29159425255E+03  0.31722056295E+03  0.00000000000E+00 0.  1.
          2    1    6    6  503    0 -0.93090357403E+02  0.29248884820E+02  0.10792523368E+03  0.14549628163E+03  0.00000000000E+00 0. -1.
         -2    1    6    6    0  503 -0.15463109883E+03  0.97108699485E+02  0.43127022483E+03  0.46833202225E+03  0.00000000000E+00 0.  1.
<mgrwt>
<rscale>  0 0.11708443E+04</rscale>
<asrwt>0</asrwt>
<pdfrwt beam="1">  1        2 0.10034532E+00 0.11708443E+04</pdfrwt>
<pdfrwt beam="2">  1       -1 0.80837791E-01 0.11708443E+04</pdfrwt>
<totfact> 0.77180755E+01</totfact>
</mgrwt>
</event>
<event>
12    6  0.1611689E-007  0.2895484E+04  0.7818608E-02  0.8274222E-01
         -1   -1    0    0    0  501 -0.00000000000E+00  0.00000000000E+00  0.77958117048E+03  0.77958117048E+03  0.00000000000E+00 0.  1.
          2   -1    0    0  501    0  0.00000000000E+00 -0.00000000000E+00 -0.26885676932E+04  0.26885676932E+04  0.00000000000E+00 0. -1.
         24    2    1    2    0    0  0.54371516960E+03  0.15800813228E+03  0.54563354844E+03  0.79064106278E+03  0.82489789931E+02 0.  0.
        254    2    1    2    0    0 -0.54371516960E+03 -0.15800813228E+03 -0.24546200712E+04  0.26775078009E+04  0.90735636584E+03 0.  0.
         23    2    4    4    0    0  0.74970525378E+02 -0.23793329432E+03 -0.18650142623E+03  0.32333853147E+03  0.86788200385E+02 0.  0.
         23    2    4    4    0    0 -0.61868569498E+03  0.79925162042E+02 -0.22681186450E+04  0.23541692695E+04  0.92686249986E+02 0.  0.
          4    1    3    3  502    0  0.76134495692E+02  0.46165508183E+02  0.60572672836E+02  0.10768827362E+03  0.00000000000E+00 0. -1.
         -3    1    3    3    0  502  0.46758067391E+03  0.11184262410E+03  0.48506087560E+03  0.68295278916E+03  0.00000000000E+00 0.  1.
         11    1    5    5    0    0  0.82319811471E+02 -0.18374221825E+03 -0.11038681476E+03  0.22961490153E+03  0.00000000000E+00 0. -1.
        -11    1    5    5    0    0 -0.73492860932E+01 -0.54191076069E+02 -0.76114611464E+02  0.93723629944E+02  0.00000000000E+00 0.  1.
          3    1    6    6  503    0 -0.56586365614E+03  0.56721018999E+02 -0.21269432514E+04  0.22016599524E+04  0.00000000000E+00 0. -1.
         -3    1    6    6    0  503 -0.52822038836E+02  0.23204143043E+02 -0.14117539356E+03  0.15250931706E+03  0.00000000000E+00 0.  1.
<mgrwt>
<rscale>  0 0.28954839E+04</rscale>
<asrwt>0</asrwt>
<pdfrwt beam="1">  1        2 0.41362579E+00 0.28954839E+04</pdfrwt>
<pdfrwt beam="2">  1       -1 0.11993557E+00 0.28954839E+04</pdfrwt>
<totfact> 0.16402871E+00</totfact>
</mgrwt>
</event>
<event>
12    6  0.1611689E-007  0.2467314E+04  0.7818608E-02  0.8414723E-01
         -1   -1    0    0    0  501 -0.00000000000E+00  0.00000000000E+00  0.11646663540E+04  0.11646663540E+04  0.00000000000E+00 0.  1.
          2   -1    0    0  501    0  0.00000000000E+00 -0.00000000000E+00 -0.13067347649E+04  0.13067347649E+04  0.00000000000E+00 0. -1.
         24    2    1    2    0    0  0.10594226291E+04  0.38340014036E+02  0.10004561034E+03  0.10677929875E+04  0.79539149305E+02 0.  0.
        254    2    1    2    0    0 -0.10594226291E+04 -0.38340014036E+02 -0.24211402127E+03  0.14036081314E+04  0.88749666112E+03 0.  0.
         23    2    4    4    0    0 -0.52836458098E+02 -0.30812700563E+03  0.14225051679E+02  0.32657387484E+03  0.93349883373E+02 0.  0.
         23    2    4    4    0    0 -0.10065861710E+04  0.26978699160E+03 -0.25633907295E+03  0.10770342566E+04  0.91062225839E+02 0.  0.
          2    1    3    3  502    0  0.82421938320E+03  0.53678981264E+02  0.54756767467E+02  0.82777855025E+03  0.00000000000E+00 0. -1.
         -1    1    3    3    0  502  0.23520324594E+03 -0.15338967227E+02  0.45288842876E+02  0.24001443729E+03  0.00000000000E+00 0.  1.
         11    1    5    5    0    0 -0.98364917320E+01 -0.25812169588E+03  0.25875344382E+02  0.25960181028E+03  0.00000000000E+00 0.  1.
        -11    1    5    5    0    0 -0.42999966366E+02 -0.50005309753E+02 -0.11650292703E+02  0.66972064557E+02  0.00000000000E+00 0. -1.
          3    1    6    6  503    0 -0.31977223574E+02  0.52951807219E+01 -0.25208012105E+02  0.41061242561E+02  0.00000000000E+00 0. -1.
         -3    1    6    6    0  503 -0.97460894747E+03  0.26449181087E+03 -0.23113106085E+03  0.10359730140E+04  0.00000000000E+00 0.  1.
<mgrwt>
<rscale>  0 0.24673143E+04</rscale>
<asrwt>0</asrwt>
<pdfrwt beam="1">  1        2 0.20103612E+00 0.24673143E+04</pdfrwt>
<pdfrwt beam="2">  1       -1 0.17917944E+00 0.24673143E+04</pdfrwt>
<totfact> 0.35218931E+00</totfact>
</mgrwt>
</event>
<event>
12    6  0.1611689E-007  0.1973889E+04  0.7818608E-02  0.8618926E-01
          2   -1    0    0  501    0  0.00000000000E+00  0.00000000000E+00  0.24027438578E+04  0.24027438578E+04  0.00000000000E+00 0. -1.
         -1   -1    0    0    0  501 -0.00000000000E+00 -0.00000000000E+00 -0.40539472822E+03  0.40539472822E+03  0.00000000000E+00 0.  1.
         24    2    1    2    0    0  0.57494115928E+03  0.99574622182E+02  0.57772854948E+02  0.59196011678E+03  0.81281209784E+02 0.  0.
        254    2    1    2    0    0 -0.57494115928E+03 -0.99574622182E+02  0.19395762746E+04  0.22161784692E+04  0.89945452383E+03 0.  0.
         23    2    4    4    0    0 -0.70117213996E+03  0.17910589682E+03  0.11178601270E+04  0.13347998796E+04  0.91422989351E+02 0.  0.
         23    2    4    4    0    0  0.12623098067E+03 -0.27868051901E+03  0.82171614765E+03  0.88137858964E+03  0.89519265050E+02 0.  0.
          4    1    3    3  502    0  0.57375072644E+02  0.34042937238E+02 -0.26975475935E+01  0.66768984564E+02  0.00000000000E+00 0. -1.
         -3    1    3    3    0  502  0.51756608664E+03  0.65531684944E+02  0.60470402541E+02  0.52519113221E+03  0.00000000000E+00 0.  1.
         11    1    5    5    0    0 -0.64547000766E+03  0.18892794544E+03  0.10413893748E+04  0.12396842862E+04  0.00000000000E+00 0. -1.
        -11    1    5    5    0    0 -0.55702132298E+02 -0.98220486187E+01  0.76470752146E+02  0.95115593440E+02  0.00000000000E+00 0.  1.
          3    1    6    6  503    0  0.13613301016E+03 -0.26335887097E+03  0.79910611825E+03  0.85232662730E+03  0.00000000000E+00 0. -1.
         -3    1    6    6    0  503 -0.99020294902E+01 -0.15321648039E+02  0.22610029398E+02  0.29051962344E+02  0.00000000000E+00 0.  1.
<mgrwt>
<rscale>  0 0.19738893E+04</rscale>
<asrwt>0</asrwt>
<pdfrwt beam="1">  1        2 0.36965289E+00 0.19738893E+04</pdfrwt>
<pdfrwt beam="2">  1       -1 0.62368421E-01 0.19738893E+04</pdfrwt>
<totfact> 0.10951496E+01</totfact>
</mgrwt>
</event>
<event>
12    6  0.1611689E-007  0.3925516E+04  0.7818608E-02  0.8019743E-01
         -1   -1    0    0    0  501 -0.00000000000E+00  0.00000000000E+00  0.19495309972E+04  0.19495309972E+04  0.00000000000E+00 0.  1.
          2   -1    0    0  501    0  0.00000000000E+00 -0.00000000000E+00 -0.19760750370E+04  0.19760750370E+04  0.00000000000E+00 0. -1.
         24    2    1    2    0    0 -0.10256279400E+04 -0.39087509852E+03 -0.15060492708E+04  0.18653536679E+04  0.81632630089E+02 0.  0.
        254    2    1    2    0    0  0.10256279400E+04  0.39087509852E+03  0.14795052310E+04  0.20602523663E+04  0.92250098654E+03 0.  0.
         23    2    4    4    0    0  0.11159614954E+04  0.15446506626E+03  0.13445806536E+04  0.17562269364E+04  0.84890531203E+02 0.  0.
         23    2    4    4    0    0 -0.90333555368E+02  0.23641003226E+03  0.13492457741E+03  0.30402542986E+03  0.10088094881E+03 0.  0.
          4    1    3    3  502    0 -0.90260489890E+03 -0.31814027622E+03 -0.13315953700E+04  0.16398338538E+04  0.00000000000E+00 0. -1.
         -3    1    3    3    0  502 -0.12302304112E+03 -0.72734822301E+02 -0.17445390084E+03  0.22551981408E+03  0.00000000000E+00 0.  1.
         11    1    5    5    0    0  0.19935492410E+03  0.29404834074E+02  0.19233475054E+03  0.27856720248E+03  0.00000000000E+00 0.  1.
        -11    1    5    5    0    0  0.91660657129E+03  0.12506023219E+03  0.11522459030E+04  0.14776597339E+04  0.00000000000E+00 0. -1.
          3    1    6    6  503    0 -0.10974432194E+03  0.17962130477E+03  0.11954546451E+03  0.24207178153E+03  0.00000000000E+00 0. -1.
         -3    1    6    6    0  503  0.19410766568E+02  0.56788727484E+02  0.15379112905E+02  0.61953648333E+02  0.00000000000E+00 0.  1.
<mgrwt>
<rscale>  0 0.39255163E+04</rscale>
<asrwt>0</asrwt>
<pdfrwt beam="1">  1        2 0.30401154E+00 0.39255163E+04</pdfrwt>
<pdfrwt beam="2">  1       -1 0.29992785E+00 0.39255163E+04</pdfrwt>
<totfact> 0.20564751E-01</totfact>
</mgrwt>
</event>
<event>
12    6  0.1611689E-007  0.1888293E+04  0.7818608E-02  0.8660706E-01
         -1   -1    0    0    0  501 -0.00000000000E+00  0.00000000000E+00  0.45556254874E+03  0.45556254874E+03  0.00000000000E+00 0.  1.
          2   -1    0    0  501    0  0.00000000000E+00 -0.00000000000E+00 -0.19567290367E+04  0.19567290367E+04  0.00000000000E+00 0. -1.
         24    2    1    2    0    0  0.18448929739E+03 -0.48009698716E+03  0.76999162653E+02  0.52576697014E+03  0.77282714203E+02 0.  0.
        254    2    1    2    0    0 -0.18448929739E+03  0.48009698716E+03 -0.15781656506E+04  0.18865246153E+04  0.89657062491E+03 0.  0.
         23    2    4    4    0    0 -0.24759760890E+03 -0.17268118080E+03 -0.24875680619E+03  0.40136474902E+03  0.89946356172E+02 0.  0.
         23    2    4    4    0    0  0.63108311516E+02  0.65277816796E+03 -0.13294088444E+04  0.14851598663E+04  0.90939305438E+02 0.  0.
          4    1    3    3  502    0  0.13424425670E+03 -0.24664832751E+03  0.30249736890E+02  0.28243931118E+03  0.00000000000E+00 0. -1.
         -1    1    3    3    0  502  0.50245040690E+02 -0.23344865965E+03  0.46749425763E+02  0.24332765896E+03  0.00000000000E+00 0.  1.
         11    1    5    5    0    0 -0.88129260594E+02 -0.65536169713E+02 -0.38075988225E+02  0.11623913710E+03  0.00000000000E+00 0. -1.
        -11    1    5    5    0    0 -0.15946834831E+03 -0.10714501108E+03 -0.21068081797E+03  0.28512561192E+03  0.00000000000E+00 0.  1.
          1    1    6    6  503    0  0.31074339785E+02  0.11222206572E+03 -0.30426936938E+03  0.32579020208E+03  0.00000000000E+00 0. -1.
         -1    1    6    6    0  503  0.32033971732E+02  0.54055610223E+03 -0.10251394751E+04  0.11593696642E+04  0.00000000000E+00 0.  1.
<mgrwt>
<rscale>  0 0.18882928E+04</rscale>
<asrwt>0</asrwt>
<pdfrwt beam="1">  1        2 0.30103524E+00 0.18882928E+04</pdfrwt>
<pdfrwt beam="2">  1       -1 0.70086546E-01 0.18882928E+04</pdfrwt>
<totfact> 0.15513893E+01</totfact>
</mgrwt>
</event>
<event>
12    6  0.1611689E-007  0.1502209E+04  0.7818608E-02  0.8882985E-01
         -1   -1    0    0    0  501 -0.00000000000E+00  0.00000000000E+00  0.25770310266E+03  0.25770310266E+03  0.00000000000E+00 0.  1.
          2   -1    0    0  501    0  0.00000000000E+00 -0.00000000000E+00 -0.21891782520E+04  0.21891782520E+04  0.00000000000E+00 0. -1.
         24    2    1    2    0    0 -0.46512496544E+03 -0.12797187827E+03 -0.68177680770E+03  0.83898351686E+03  0.79722587422E+02 0.  0.
        254    2    1    2    0    0  0.46512496544E+03  0.12797187827E+03 -0.12496983417E+04  0.16078978378E+04  0.88930955052E+03 0.  0.
         23    2    4    4    0    0  0.37248528198E+01 -0.19245772309E+03  0.22627071474E+02  0.21413467656E+03  0.91037495774E+02 0.  0.
         23    2    4    4    0    0  0.46140011262E+03  0.32042960137E+03 -0.12723254131E+04  0.13937631613E+04  0.90546117708E+02 0.  0.
          2    1    3    3  502    0 -0.37343905124E+03 -0.88336468367E+02 -0.58688720623E+03  0.70121084523E+03  0.00000000000E+00 0. -1.
         -1    1    3    3    0  502 -0.91685914202E+02 -0.39635409907E+02 -0.94889601474E+02  0.13777267164E+03  0.00000000000E+00 0.  1.
         11    1    5    5    0    0  0.51557208642E+01 -0.12093969742E+03  0.58121857554E+02  0.13428008860E+03  0.00000000000E+00 0. -1.
        -11    1    5    5    0    0 -0.14308680444E+01 -0.71518025670E+02 -0.35494786080E+02  0.79854587958E+02  0.00000000000E+00 0.  1.
          4    1    6    6  503    0  0.16458897149E+03  0.64111064774E+02 -0.41235217349E+03  0.44859120939E+03  0.00000000000E+00 0. -1.
         -4    1    6    6    0  503  0.29681114113E+03  0.25631853659E+03 -0.85997323965E+03  0.94517195188E+03  0.00000000000E+00 0.  1.
<mgrwt>
<rscale>  0 0.15022091E+04</rscale>
<asrwt>0</asrwt>
<pdfrwt beam="1">  1        2 0.33679666E+00 0.15022091E+04</pdfrwt>
<pdfrwt beam="2">  1       -1 0.39646630E-01 0.15022091E+04</pdfrwt>
<totfact> 0.35707602E+01</totfact>
</mgrwt>
</event>
<event>
12    6  0.1611689E-007  0.1357935E+04  0.7818608E-02  0.8984843E-01
         -1   -1    0    0    0  501 -0.00000000000E+00  0.00000000000E+00  0.49007503401E+03  0.49007503401E+03  0.00000000000E+00 0.  1.
          2   -1    0    0  501    0  0.00000000000E+00 -0.00000000000E+00 -0.94066618151E+03  0.94066618151E+03  0.00000000000E+00 0. -1.
         24    2    1    2    0    0 -0.29197265105E+03  0.21874546265E+03 -0.33008475917E+02  0.37459312490E+03  0.78312472499E+02 0.  0.
        254    2    1    2    0    0  0.29197265105E+03 -0.21874546265E+03 -0.41758267158E+03  0.10561480906E+04  0.89887479402E+03 0.  0.
         23    2    4    4    0    0  0.26263862376E+03  0.29517034152E+03 -0.33839635722E+03  0.52819112181E+03  0.91483273705E+02 0.  0.
         23    2    4    4    0    0  0.29334027293E+02 -0.51391580417E+03 -0.79186314357E+02  0.52795696881E+03  0.86591856447E+02 0.  0.
          2    1    3    3  502    0 -0.16499992923E+02  0.41192718320E+02 -0.13038733069E+02  0.46250387772E+02  0.00000000000E+00 0. -1.
         -1    1    3    3    0  502 -0.27547265813E+03  0.17755274433E+03 -0.19969742847E+02  0.32834273713E+03  0.00000000000E+00 0.  1.
         11    1    5    5    0    0  0.17790652041E+03  0.13205003899E+03 -0.19279702670E+03  0.29369820617E+03  0.00000000000E+00 0.  1.
        -11    1    5    5    0    0  0.84732103354E+02  0.16312030253E+03 -0.14559933051E+03  0.23449291563E+03  0.00000000000E+00 0. -1.
          4    1    6    6  503    0  0.47862428005E+02 -0.26212322276E+03 -0.69152290424E+02  0.27528428069E+03  0.00000000000E+00 0. -1.
         -4    1    6    6    0  503 -0.18528400712E+02 -0.25179258142E+03 -0.10034023933E+02  0.25267268813E+03  0.00000000000E+00 0.  1.
<mgrwt>
<rscale>  0 0.13579352E+04</rscale>
<asrwt>0</asrwt>
<pdfrwt beam="1">  1        2 0.14471787E+00 0.13579352E+04</pdfrwt>
<pdfrwt beam="2">  1       -1 0.75396160E-01 0.13579352E+04</pdfrwt>
<totfact> 0.54259539E+01</totfact>
</mgrwt>
</event>
<event>
12    6  0.1611689E-007  0.3501062E+04  0.7818608E-02  0.8113538E-01
         -1   -1    0    0    0  501 -0.00000000000E+00  0.00000000000E+00  0.17529954834E+04  0.17529954834E+04  0.00000000000E+00 0.  1.
          2   -1    0    0  501    0  0.00000000000E+00 -0.00000000000E+00 -0.17480703058E+04  0.17480703058E+04  0.00000000000E+00 0. -1.
         24    2    1    2    0    0 -0.26108368935E+03  0.93154503589E+03 -0.13165123016E+04  0.16357752583E+04  0.81333933153E+02 0.  0.
        254    2    1    2    0    0  0.26108368935E+03 -0.93154503589E+03  0.13214374791E+04  0.18652905309E+04  0.89284427922E+03 0.  0.
         23    2    4    4    0    0 -0.24653371791E+03 -0.13313478517E+03  0.86759053506E+02  0.30737218339E+03  0.91906369033E+02 0.  0.
         23    2    4    4    0    0  0.50761740726E+03 -0.79841025072E+03  0.12346784256E+04  0.15579183475E+04  0.86858519601E+02 0.  0.
          2    1    3    3  502    0 -0.20428979499E+03  0.75341985132E+03 -0.10063642627E+04  0.12736344931E+04  0.00000000000E+00 0. -1.
         -1    1    3    3    0  502 -0.56793894354E+02  0.17812518458E+03 -0.31014803882E+03  0.36214076517E+03  0.00000000000E+00 0.  1.
         11    1    5    5    0    0 -0.24028851281E+03 -0.10222681677E+03  0.88690396372E+02  0.27578048855E+03  0.00000000000E+00 0.  1.
        -11    1    5    5    0    0 -0.62452050945E+01 -0.30907968406E+02 -0.19313428658E+01  0.31591694841E+02  0.00000000000E+00 0. -1.
          1    1    6    6  503    0  0.66151416186E+02 -0.13862242808E+03  0.15961992593E+03  0.22151909214E+03  0.00000000000E+00 0. -1.
         -1    1    6    6    0  503  0.44146599107E+03 -0.65978782264E+03  0.10750584997E+04  0.13363992554E+04  0.00000000000E+00 0.  1.
<mgrwt>
<rscale>  0 0.35010623E+04</rscale>
<asrwt>0</asrwt>
<pdfrwt beam="1">  1        2 0.26893389E+00 0.35010623E+04</pdfrwt>
<pdfrwt beam="2">  1       -1 0.26969161E+00 0.35010623E+04</pdfrwt>
<totfact> 0.44755615E-01</totfact>
</mgrwt>
</event>
<event>
12    6  0.1611689E-007  0.1935103E+04  0.7818608E-02  0.8637578E-01
         -1   -1    0    0    0  501 -0.00000000000E+00  0.00000000000E+00  0.79100461282E+03  0.79100461282E+03  0.00000000000E+00 0.  1.
          2   -1    0    0  501    0  0.00000000000E+00 -0.00000000000E+00 -0.11835018820E+04  0.11835018820E+04  0.00000000000E+00 0. -1.
         24    2    1    2    0    0  0.43323922281E+03  0.88893901240E+02 -0.81188221665E+03  0.92789189407E+03  0.78944813003E+02 0.  0.
        254    2    1    2    0    0 -0.43323922281E+03 -0.88893901240E+02  0.41938494751E+03  0.10466146007E+04  0.85083490665E+03 0.  0.
         23    2    4    4    0    0 -0.17274115932E+03  0.21227554409E+03 -0.16624535686E+03  0.33260153438E+03  0.89921339263E+02 0.  0.
         23    2    4    4    0    0 -0.26049806349E+03 -0.30116944533E+03  0.58563030437E+03  0.71401306633E+03  0.91046853956E+02 0.  0.
          4    1    3    3  502    0  0.41662129465E+03  0.71213369208E+02 -0.78586198402E+03  0.89231368085E+03  0.00000000000E+00 0. -1.
         -3    1    3    3    0  502  0.16617928161E+02  0.17680532032E+02 -0.26020232634E+02  0.35578213215E+02  0.00000000000E+00 0.  1.
         11    1    5    5    0    0 -0.12285317445E+03  0.20275957917E+03 -0.13197760260E+03  0.27133454813E+03  0.00000000000E+00 0. -1.
        -11    1    5    5    0    0 -0.49887984873E+02  0.95159649133E+01 -0.34267754258E+02  0.61266986255E+02  0.00000000000E+00 0.  1.
          3    1    6    6  503    0 -0.21871858165E+03 -0.20089960536E+03  0.38942454168E+03  0.48974477338E+03  0.00000000000E+00 0. -1.
         -3    1    6    6    0  503 -0.41779481841E+02 -0.10026983996E+03  0.19620576269E+03  0.22426829295E+03  0.00000000000E+00 0.  1.
<mgrwt>
<rscale>  0 0.19351025E+04</rscale>
<asrwt>0</asrwt>
<pdfrwt beam="1">  1        2 0.18207721E+00 0.19351025E+04</pdfrwt>
<pdfrwt beam="2">  1       -1 0.12169302E+00 0.19351025E+04</pdfrwt>
<totfact> 0.12343226E+01</totfact>
</mgrwt>
</event>
<event>
12    6  0.1611689E-007  0.1269002E+04  0.7818608E-02  0.9054514E-01
         -1   -1    0    0    0  501 -0.00000000000E+00  0.00000000000E+00  0.84704426648E+03  0.84704426648E+03  0.00000000000E+00 0.  1.
          2   -1    0    0  501    0  0.00000000000E+00 -0.00000000000E+00 -0.47529000996E+03  0.47529000996E+03  0.00000000000E+00 0. -1.
         24    2    1    2    0    0 -0.98070948814E+02 -0.27385060506E+03  0.20206373151E+03  0.36295769966E+03  0.79350332474E+02 0.  0.
        254    2    1    2    0    0  0.98070948814E+02  0.27385060506E+03  0.16969052501E+03  0.95937657678E+03  0.89832982635E+03 0.  0.
         23    2    4    4    0    0 -0.12811539915E+03 -0.28025375949E+03  0.14375262758E+03  0.35277894990E+03  0.93981085070E+02 0.  0.
         23    2    4    4    0    0  0.22618634796E+03  0.55410436455E+03  0.25937897433E+02  0.60659762688E+03  0.95372929028E+02 0.  0.
          4    1    3    3  502    0 -0.10301840260E+03 -0.26849112659E+03  0.17892174722E+03  0.33869347198E+03  0.00000000000E+00 0. -1.
         -3    1    3    3    0  502  0.49474537842E+01 -0.53594784633E+01  0.23141984289E+02  0.24264227686E+02  0.00000000000E+00 0.  1.
         11    1    5    5    0    0  0.62229552695E+01 -0.29556448502E+01 -0.69397567016E+01  0.97786109363E+01  0.00000000000E+00 0.  1.
        -11    1    5    5    0    0 -0.13433835442E+03 -0.27729811464E+03  0.15069238428E+03  0.34300033897E+03  0.00000000000E+00 0. -1.
          2    1    6    6  503    0  0.18680328209E+03  0.49054141014E+03  0.51849184179E+02  0.52746059489E+03  0.00000000000E+00 0. -1.
         -2    1    6    6    0  503  0.39383065876E+02  0.63562954413E+02 -0.25911286746E+02  0.79137031991E+02  0.00000000000E+00 0.  1.
<mgrwt>
<rscale>  0 0.12690023E+04</rscale>
<asrwt>0</asrwt>
<pdfrwt beam="1">  1        2 0.73121540E-01 0.12690023E+04</pdfrwt>
<pdfrwt beam="2">  1       -1 0.13031450E+00 0.12690023E+04</pdfrwt>
<totfact> 0.36993216E+01</totfact>
</mgrwt>
</event>
<event>
12    6  0.1611689E-007  0.1285685E+04  0.7818608E-02  0.9040995E-01
         -1   -1    0    0    0  501 -0.00000000000E+00  0.00000000000E+00  0.21471192974E+03  0.21471192974E+03  0.00000000000E+00 0.  1.
          2   -1    0    0  501    0  0.00000000000E+00 -0.00000000000E+00 -0.19246540662E+04  0.19246540662E+04  0.00000000000E+00 0. -1.
         24    2    1    2    0    0  0.25999470399E+02 -0.12237936349E+03 -0.76740305708E+03  0.78184593858E+03  0.81993527748E+02 0.  0.
        254    2    1    2    0    0 -0.25999470399E+02  0.12237936349E+03 -0.94253907938E+03  0.13575200574E+04  0.96893142632E+03 0.  0.
         23    2    4    4    0    0 -0.24682370120E+03  0.14914380129E+02  0.10060640470E+03  0.28213422657E+03  0.91289073429E+02 0.  0.
         23    2    4    4    0    0  0.22082423080E+03  0.10746498336E+03 -0.10431454841E+04  0.10753858308E+04  0.89387474178E+02 0.  0.
          4    1    3    3  502    0  0.43237085070E+02 -0.12476541949E+03 -0.66671994953E+03  0.67967002768E+03  0.00000000000E+00 0. -1.
         -3    1    3    3    0  502 -0.17237614671E+02  0.23860559979E+01 -0.10068310755E+03  0.10217591090E+03  0.00000000000E+00 0.  1.
         11    1    5    5    0    0 -0.19899169072E+03  0.48865219503E+02  0.79890151704E+02  0.21992712200E+03  0.00000000000E+00 0.  1.
        -11    1    5    5    0    0 -0.47832010488E+02 -0.33950839375E+02  0.20716252997E+02  0.62207104576E+02  0.00000000000E+00 0. -1.
          1    1    6    6  503    0  0.19509783596E+03  0.68526275414E+02 -0.93512198213E+03  0.95771192823E+03  0.00000000000E+00 0.  1.
         -1    1    6    6    0  503  0.25726394843E+02  0.38938707950E+02 -0.10802350195E+03  0.11767390256E+03  0.00000000000E+00 0. -1.
<mgrwt>
<rscale>  0 0.12856845E+04</rscale>
<asrwt>0</asrwt>
<pdfrwt beam="1">  1        2 0.29610063E+00 0.12856845E+04</pdfrwt>
<pdfrwt beam="2">  1       -1 0.33032604E-01 0.12856845E+04</pdfrwt>
<totfact> 0.70809152E+01</totfact>
</mgrwt>
</event>
<event>
12    6  0.1611689E-007  0.1935304E+04  0.7818608E-02  0.8637480E-01
          2   -1    0    0  501    0  0.00000000000E+00  0.00000000000E+00  0.78193631490E+03  0.78193631490E+03  0.00000000000E+00 0. -1.
         -1   -1    0    0    0  501 -0.00000000000E+00 -0.00000000000E+00 -0.11974768972E+04  0.11974768972E+04  0.00000000000E+00 0.  1.
         24    2    1    2    0    0 -0.35955966753E+02 -0.29770936493E+03  0.55790348089E+03  0.63842168913E+03  0.80014134077E+02 0.  0.
        254    2    1    2    0    0  0.35955966753E+02  0.29770936493E+03 -0.97344406314E+03  0.13409915229E+04  0.87220480565E+03 0.  0.
         23    2    4    4    0    0  0.26914124714E+03 -0.18993172089E+03 -0.21073818499E+03  0.40177952850E+03  0.92223301809E+02 0.  0.
         23    2    4    4    0    0 -0.23318528038E+03  0.48764108581E+03 -0.76270587815E+03  0.93921199443E+03  0.90717751087E+02 0.  0.
          2    1    3    3  502    0 -0.57918065130E+02 -0.21263233705E+03  0.43091252775E+03  0.48399650783E+03  0.00000000000E+00 0. -1.
         -1    1    3    3    0  502  0.21962098378E+02 -0.85077027880E+02  0.12699095314E+03  0.15442518129E+03  0.00000000000E+00 0.  1.
         11    1    5    5    0    0  0.12158308327E+03 -0.37089698797E+02 -0.10281902527E+03  0.16349264158E+03  0.00000000000E+00 0. -1.
        -11    1    5    5    0    0  0.14755816387E+03 -0.15284202209E+03 -0.10791915971E+03  0.23828688691E+03  0.00000000000E+00 0.  1.
          2    1    6    6  503    0 -0.11224493755E+03  0.13680936394E+03 -0.24155433400E+03  0.29943985096E+03  0.00000000000E+00 0. -1.
         -2    1    6    6    0  503 -0.12094034283E+03  0.35083172188E+03 -0.52115154415E+03  0.63977214348E+03  0.00000000000E+00 0.  1.
<mgrwt>
<rscale>  0 0.19353043E+04</rscale>
<asrwt>0</asrwt>
<pdfrwt beam="1">  1        2 0.12029789E+00 0.19353043E+04</pdfrwt>
<pdfrwt beam="2">  1       -1 0.18422722E+00 0.19353043E+04</pdfrwt>
<totfact> 0.73463033E+00</totfact>
</mgrwt>
</event>
<event>
12    6  0.1611689E-007  0.1534472E+04  0.7818608E-02  0.8861847E-01
         -1   -1    0    0    0  501 -0.00000000000E+00  0.00000000000E+00  0.11149145221E+04  0.11149145221E+04  0.00000000000E+00 0.  1.
          2   -1    0    0  501    0  0.00000000000E+00 -0.00000000000E+00 -0.52797900350E+03  0.52797900350E+03  0.00000000000E+00 0. -1.
         24    2    1    2    0    0  0.29048701064E+03  0.22226087295E+02 -0.24119160513E+03  0.38725821608E+03  0.83179524125E+02 0.  0.
        254    2    1    2    0    0 -0.29048701064E+03 -0.22226087295E+02  0.82812712372E+03  0.12556353095E+04  0.89774650939E+03 0.  0.
         23    2    4    4    0    0 -0.42988801482E+03  0.73917848395E+02  0.43476417532E+02  0.44798511195E+03  0.92373741134E+02 0.  0.
         23    2    4    4    0    0  0.13940100418E+03 -0.96143935689E+02  0.78465070619E+03  0.80765019755E+03  0.89139298532E+02 0.  0.
          2    1    3    3  502    0  0.26226940011E+03  0.22101445668E+02 -0.24400028484E+03  0.35890089320E+03  0.00000000000E+00 0. -1.
         -1    1    3    3    0  502  0.28217610526E+02  0.12464162686E+00  0.28086797164E+01  0.28357322883E+02  0.00000000000E+00 0.  1.
         11    1    5    5    0    0 -0.23441369073E+03  0.61872648838E+01 -0.86083658512E+01  0.23465328596E+03  0.00000000000E+00 0. -1.
        -11    1    5    5    0    0 -0.19547432409E+03  0.67730583511E+02  0.52084783383E+02  0.21333182599E+03  0.00000000000E+00 0.  1.
          2    1    6    6  503    0  0.97606152756E+02 -0.63454781537E+02  0.68432628404E+03  0.69415843537E+03  0.00000000000E+00 0. -1.
         -2    1    6    6    0  503  0.41794851428E+02 -0.32689154152E+02  0.10032442215E+03  0.11349176219E+03  0.00000000000E+00 0.  1.
<mgrwt>
<rscale>  0 0.15344725E+04</rscale>
<asrwt>0</asrwt>
<pdfrwt beam="1">  1        2 0.81227539E-01 0.15344725E+04</pdfrwt>
<pdfrwt beam="2">  1       -1 0.17152531E+00 0.15344725E+04</pdfrwt>
<totfact> 0.15260071E+01</totfact>
</mgrwt>
</event>
<event>
12    6  0.1611689E-007  0.1555419E+04  0.7818608E-02  0.8848414E-01
          2   -1    0    0  501    0  0.00000000000E+00  0.00000000000E+00  0.32942009152E+04  0.32942009152E+04  0.00000000000E+00 0. -1.
         -1   -1    0    0    0  501 -0.00000000000E+00 -0.00000000000E+00 -0.18360509931E+03  0.18360509931E+03  0.00000000000E+00 0.  1.
         24    2    1    2    0    0  0.26706215708E+03 -0.34304291104E+03  0.43674686537E+03  0.62143585409E+03  0.80212603629E+02 0.  0.
        254    2    1    2    0    0 -0.26706215708E+03  0.34304291104E+03  0.26738489505E+04  0.28563701604E+04  0.90574921947E+03 0.  0.
         23    2    4    4    0    0 -0.36677229923E+03  0.22859112599E+03  0.46916026561E+03  0.64446899604E+03  0.91940794308E+02 0.  0.
         23    2    4    4    0    0  0.99710142155E+02  0.11445178505E+03  0.22046886849E+04  0.22119011644E+04  0.93878858538E+02 0.  0.
          4    1    3    3  502    0  0.34118628603E+02 -0.11347632537E+02  0.25961658215E+02  0.44349264698E+02  0.00000000000E+00 0. -1.
         -3    1    3    3    0  502  0.23294352847E+03 -0.33169527850E+03  0.41078520716E+03  0.57708658939E+03  0.00000000000E+00 0.  1.
         11    1    5    5    0    0 -0.12128517411E+03  0.11220800933E+03  0.22533174115E+03  0.27941926273E+03  0.00000000000E+00 0.  1.
        -11    1    5    5    0    0 -0.24548712512E+03  0.11638311666E+03  0.24382852447E+03  0.36504973331E+03  0.00000000000E+00 0. -1.
          2    1    6    6  503    0  0.51016651418E+02  0.11691881378E+03  0.14293670035E+04  0.14350479917E+04  0.00000000000E+00 0. -1.
         -2    1    6    6    0  503  0.48693490737E+02 -0.24670287283E+01  0.77532168138E+03  0.77685317267E+03  0.00000000000E+00 0.  1.
<mgrwt>
<rscale>  0 0.15554190E+04</rscale>
<asrwt>0</asrwt>
<pdfrwt beam="1">  1        2 0.50680010E+00 0.15554190E+04</pdfrwt>
<pdfrwt beam="2">  1       -1 0.28246941E-01 0.15554190E+04</pdfrwt>
<totfact> 0.14100781E+01</totfact>
</mgrwt>
</event>
<event>
12    6  0.1611689E-007  0.1988684E+04  0.7818608E-02  0.8611930E-01
          2   -1    0    0  501    0  0.00000000000E+00  0.00000000000E+00  0.94227462882E+03  0.94227462882E+03  0.00000000000E+00 0. -1.
         -1   -1    0    0    0  501 -0.00000000000E+00 -0.00000000000E+00 -0.10492862143E+04  0.10492862143E+04  0.00000000000E+00 0.  1.
         24    2    1    2    0    0 -0.62548833593E+03 -0.61605338675E+02  0.40524306810E+03  0.75210481061E+03  0.80055142092E+02 0.  0.
        254    2    1    2    0    0  0.62548833593E+03  0.61605338675E+02 -0.51225465356E+03  0.12394560325E+04  0.93745162555E+03 0.  0.
         23    2    4    4    0    0 -0.17249133512E+02  0.22767403420E+02 -0.57805753004E+03  0.58572955990E+03  0.90070650278E+02 0.  0.
         23    2    4    4    0    0  0.64273746944E+03  0.38837935255E+02  0.65802876480E+02  0.65372647259E+03  0.91697560366E+02 0.  0.
          2    1    3    3  502    0 -0.58694477634E+03 -0.37560552549E+02  0.37766823002E+03  0.69896227190E+03  0.00000000000E+00 0. -1.
         -1    1    3    3    0  502 -0.38543559584E+02 -0.24044786126E+02  0.27574838082E+02  0.53142538710E+02  0.00000000000E+00 0.  1.
         11    1    5    5    0    0  0.35280474259E+01  0.48075750891E+02 -0.47857602353E+03  0.48099764577E+03  0.00000000000E+00 0.  1.
        -11    1    5    5    0    0 -0.20777180938E+02 -0.25308347471E+02 -0.99481506512E+02  0.10473191413E+03  0.00000000000E+00 0. -1.
          3    1    6    6  503    0  0.14855152390E+03 -0.11316527845E+02 -0.17708728932E+02  0.15003072398E+03  0.00000000000E+00 0. -1.
         -3    1    6    6    0  503  0.49418594553E+03  0.50154463100E+02  0.83511605412E+02  0.50369574861E+03  0.00000000000E+00 0.  1.
<mgrwt>
<rscale>  0 0.19886838E+04</rscale>
<asrwt>0</asrwt>
<pdfrwt beam="1">  1        2 0.14496533E+00 0.19886838E+04</pdfrwt>
<pdfrwt beam="2">  1       -1 0.16142865E+00 0.19886838E+04</pdfrwt>
<totfact> 0.83078742E+00</totfact>
</mgrwt>
</event>
<event>
12    6  0.1611689E-007  0.2926345E+04  0.7818608E-02  0.8265082E-01
          2   -1    0    0  501    0  0.00000000000E+00  0.00000000000E+00  0.18206740234E+04  0.18206740234E+04  0.00000000000E+00 0. -1.
         -1   -1    0    0    0  501 -0.00000000000E+00 -0.00000000000E+00 -0.11758688474E+04  0.11758688474E+04  0.00000000000E+00 0.  1.
         24    2    1    2    0    0 -0.84180713159E+03  0.89094151120E+02  0.13347170402E+04  0.15826991794E+04  0.83006630191E+02 0.  0.
        254    2    1    2    0    0  0.84180713159E+03 -0.89094151120E+02 -0.68991186423E+03  0.14138436913E+04  0.89799698686E+03 0.  0.
         23    2    4    4    0    0  0.30951387279E+03 -0.26819018623E+03 -0.73227052796E+03  0.84388605226E+03  0.90546836708E+02 0.  0.
         23    2    4    4    0    0  0.53229325880E+03  0.17909603511E+03  0.42358663726E+02  0.56995763903E+03  0.87441127263E+02 0.  0.
          4    1    3    3  502    0 -0.33414760662E+03  0.68150704359E+02  0.58180246171E+03  0.67438360446E+03  0.00000000000E+00 0. -1.
         -3    1    3    3    0  502 -0.50765952497E+03  0.20943446760E+02  0.75291457850E+03  0.90831557499E+03  0.00000000000E+00 0.  1.
         11    1    5    5    0    0  0.27034613142E+03 -0.19182323513E+03 -0.61384215541E+03  0.69762839396E+03  0.00000000000E+00 0.  1.
        -11    1    5    5    0    0  0.39167741370E+02 -0.76366951100E+02 -0.11842837255E+03  0.14625765830E+03  0.00000000000E+00 0. -1.
          3    1    6    6  503    0  0.14373845543E+03  0.43095871113E+02 -0.27051287151E+02  0.15247875200E+03  0.00000000000E+00 0. -1.
         -3    1    6    6    0  503  0.38855480337E+03  0.13600016400E+03  0.69409950876E+02  0.41747888703E+03  0.00000000000E+00 0.  1.
<mgrwt>
<rscale>  0 0.29263451E+04</rscale>
<asrwt>0</asrwt>
<pdfrwt beam="1">  1        2 0.28010370E+00 0.29263451E+04</pdfrwt>
<pdfrwt beam="2">  1       -1 0.18090290E+00 0.29263451E+04</pdfrwt>
<totfact> 0.16886147E+00</totfact>
</mgrwt>
</event>
<event>
12    6  0.1611689E-007  0.1033195E+04  0.7818608E-02  0.9272868E-01
         -1   -1    0    0    0  501 -0.00000000000E+00  0.00000000000E+00  0.35248949409E+03  0.35248949409E+03  0.00000000000E+00 0.  1.
          2   -1    0    0  501    0  0.00000000000E+00 -0.00000000000E+00 -0.75710868727E+03  0.75710868727E+03  0.00000000000E+00 0. -1.
         24    2    1    2    0    0 -0.53063960242E+02  0.71676713561E+02 -0.29032925473E+02  0.12262706878E+03  0.79000962601E+02 0.  0.
        254    2    1    2    0    0  0.53063960242E+02 -0.71676713561E+02 -0.37558626771E+03  0.98697111258E+03  0.90834662845E+03 0.  0.
         23    2    4    4    0    0 -0.25564555732E+03  0.20479962341E+03  0.95021233537E+02  0.35323117767E+03  0.91900453362E+02 0.  0.
         23    2    4    4    0    0  0.30870951756E+03 -0.27647633697E+03 -0.47060750124E+03  0.63373993490E+03  0.91728696301E+02 0.  0.
          4    1    3    3  502    0  0.13506835402E+01  0.22362013826E+02 -0.42427741928E+02  0.47979133938E+02  0.00000000000E+00 0. -1.
         -3    1    3    3    0  502 -0.54414643782E+02  0.49314699735E+02  0.13394816455E+02  0.74647934839E+02  0.00000000000E+00 0.  1.
         11    1    5    5    0    0 -0.12604679922E+03  0.72116688810E+02  0.85466536394E+00  0.14522170241E+03  0.00000000000E+00 0.  1.
        -11    1    5    5    0    0 -0.12959875810E+03  0.13268293460E+03  0.94166568173E+02  0.20800947526E+03  0.00000000000E+00 0. -1.
          2    1    6    6  503    0  0.12260262390E+03 -0.16440021407E+03 -0.26017893973E+03  0.33128826489E+03  0.00000000000E+00 0. -1.
         -2    1    6    6    0  503  0.18610689367E+03 -0.11207612290E+03 -0.21042856152E+03  0.30245167002E+03  0.00000000000E+00 0.  1.
<mgrwt>
<rscale>  0 0.10331948E+04</rscale>
<asrwt>0</asrwt>
<pdfrwt beam="1">  1        2 0.11647826E+00 0.10331948E+04</pdfrwt>
<pdfrwt beam="2">  1       -1 0.54229154E-01 0.10331948E+04</pdfrwt>
<totfact> 0.14470078E+02</totfact>
</mgrwt>
</event>
<event>
12    6  0.1611689E-007  0.1508859E+04  0.7818608E-02  0.8878583E-01
         -1   -1    0    0    0  501 -0.00000000000E+00  0.00000000000E+00  0.29852486206E+03  0.29852486206E+03  0.00000000000E+00 0.  1.
          2   -1    0    0  501    0  0.00000000000E+00 -0.00000000000E+00 -0.19065888166E+04  0.19065888166E+04  0.00000000000E+00 0. -1.
         24    2    1    2    0    0 -0.44705239035E+02  0.11004196367E+03 -0.11959429229E+04  0.12046851278E+04  0.82939678754E+02 0.  0.
        254    2    1    2    0    0  0.44705239035E+02 -0.11004196367E+03 -0.41212103169E+03  0.10004285508E+04  0.90382838438E+03 0.  0.
         23    2    4    4    0    0 -0.41045516911E+03  0.21492948268E+02 -0.12488479766E+03  0.43912498273E+03  0.91099643770E+02 0.  0.
         23    2    4    4    0    0  0.45516040814E+03 -0.13153491194E+03 -0.28723623403E+03  0.56130356811E+03  0.89914466246E+02 0.  0.
          4    1    3    3  502    0 -0.52548520995E+02  0.11270363988E+03 -0.11815771468E+04  0.11881026939E+04  0.00000000000E+00 0. -1.
         -3    1    3    3    0  502  0.78432819595E+01 -0.26616762093E+01 -0.14365776087E+02  0.16582433920E+02  0.00000000000E+00 0.  1.
         11    1    5    5    0    0 -0.30882956488E+03 -0.24771748903E+01 -0.55573067257E+02  0.31379962133E+03  0.00000000000E+00 0. -1.
        -11    1    5    5    0    0 -0.10162560423E+03  0.23970123158E+02 -0.69311730402E+02  0.12532536140E+03  0.00000000000E+00 0.  1.
          3    1    6    6  503    0  0.39216009787E+03 -0.10985039258E+03 -0.28013213406E+03  0.49429815258E+03  0.00000000000E+00 0. -1.
         -3    1    6    6    0  503  0.63000310276E+02 -0.21684519361E+02 -0.71040999644E+01  0.67005415535E+02  0.00000000000E+00 0.  1.
<mgrwt>
<rscale>  0 0.15088594E+04</rscale>
<asrwt>0</asrwt>
<pdfrwt beam="1">  1        2 0.29332135E+00 0.15088594E+04</pdfrwt>
<pdfrwt beam="2">  1       -1 0.45926903E-01 0.15088594E+04</pdfrwt>
<totfact> 0.39045908E+01</totfact>
</mgrwt>
</event>
<event>
12    6  0.1611689E-007  0.1799341E+04  0.7818608E-02  0.8706650E-01
          2   -1    0    0  501    0  0.00000000000E+00  0.00000000000E+00  0.17989723125E+04  0.17989723125E+04  0.00000000000E+00 0. -1.
         -1   -1    0    0    0  501 -0.00000000000E+00 -0.00000000000E+00 -0.44992721372E+03  0.44992721372E+03  0.00000000000E+00 0.  1.
         24    2    1    2    0    0 -0.62632263862E+03  0.81616907469E+02  0.21993807323E+03  0.67377116188E+03  0.81568715164E+02 0.  0.
        254    2    1    2    0    0  0.62632263862E+03 -0.81616907469E+02  0.11291070256E+04  0.15751283644E+04  0.89844605949E+03 0.  0.
         23    2    4    4    0    0 -0.99213000009E+02  0.21923761330E+02 -0.79417848292E+02  0.15839544648E+03  0.91967669091E+02 0.  0.
         23    2    4    4    0    0  0.72553563863E+03 -0.10354066880E+03  0.12085248739E+04  0.14167329179E+04  0.97350689987E+02 0.  0.
          4    1    3    3  502    0 -0.30329268407E+03  0.41967298129E+02  0.14972046297E+03  0.34082829013E+03  0.00000000000E+00 0. -1.
         -3    1    3    3    0  502 -0.32302995455E+03  0.39649609340E+02  0.70217610258E+02  0.33294287175E+03  0.00000000000E+00 0.  1.
         11    1    5    5    0    0 -0.42256125012E+01  0.27776771325E+02  0.79565499899E+01  0.29201224529E+02  0.00000000000E+00 0. -1.
        -11    1    5    5    0    0 -0.94987387508E+02 -0.58530099952E+01 -0.87374398282E+02  0.12919422196E+03  0.00000000000E+00 0.  1.
          2    1    6    6  503    0  0.80859683814E+02 -0.31338345525E+02  0.10016548769E+03  0.13248964220E+03  0.00000000000E+00 0. -1.
         -2    1    6    6    0  503  0.64467595481E+03 -0.72202323273E+02  0.11083593862E+04  0.12842432757E+04  0.00000000000E+00 0.  1.
<mgrwt>
<rscale>  0 0.17993405E+04</rscale>
<asrwt>0</asrwt>
<pdfrwt beam="1">  1        2 0.27676497E+00 0.17993405E+04</pdfrwt>
<pdfrwt beam="2">  1       -1 0.69219572E-01 0.17993405E+04</pdfrwt>
<totfact> 0.19615206E+01</totfact>
</mgrwt>
</event>
<event>
12    6  0.1611689E-007  0.1929468E+04  0.7818608E-02  0.8640326E-01
         -1   -1    0    0    0  501 -0.00000000000E+00  0.00000000000E+00  0.27412413777E+03  0.27412413777E+03  0.00000000000E+00 0.  1.
          2   -1    0    0  501    0  0.00000000000E+00 -0.00000000000E+00 -0.33952187378E+04  0.33952187378E+04  0.00000000000E+00 0. -1.
         24    2    1    2    0    0  0.53030445124E+03  0.52840631512E+03 -0.13772137284E+04  0.15695477884E+04  0.79539685943E+02 0.  0.
        254    2    1    2    0    0 -0.53030445124E+03 -0.52840631512E+03 -0.17438808717E+04  0.20997950872E+04  0.89865614594E+03 0.  0.
         23    2    4    4    0    0 -0.12006932797E+03 -0.67587742320E+03 -0.12881172241E+04  0.14624646553E+04  0.91268561459E+02 0.  0.
         23    2    4    4    0    0 -0.41023512327E+03  0.14747110808E+03 -0.45576364763E+03  0.63733043190E+03  0.91809546541E+02 0.  0.
          4    1    3    3  502    0  0.46959727734E+03  0.47222878253E+03 -0.12711945447E+04  0.14350809024E+04  0.00000000000E+00 0. -1.
         -3    1    3    3    0  502  0.60707173904E+02  0.56177532593E+02 -0.10601918369E+03  0.13446688605E+03  0.00000000000E+00 0.  1.
         11    1    5    5    0    0 -0.82836367946E+02 -0.61061339616E+03 -0.11727981720E+04  0.13248268323E+04  0.00000000000E+00 0. -1.
        -11    1    5    5    0    0 -0.37232960020E+02 -0.65264027045E+02 -0.11531905208E+03  0.13763782296E+03  0.00000000000E+00 0.  1.
          1    1    6    6  503    0 -0.34187931450E+03  0.85132954578E+02 -0.37474120869E+03  0.51435402121E+03  0.00000000000E+00 0. -1.
         -1    1    6    6    0  503 -0.68355808774E+02  0.62338153504E+02 -0.81022438938E+02  0.12297641069E+03  0.00000000000E+00 0.  1.
<mgrwt>
<rscale>  0 0.19294677E+04</rscale>
<asrwt>0</asrwt>
<pdfrwt beam="1">  1        2 0.52234129E+00 0.19294677E+04</pdfrwt>
<pdfrwt beam="2">  1       -1 0.42172949E-01 0.19294677E+04</pdfrwt>
<totfact> 0.56768517E+00</totfact>
</mgrwt>
</event>
<event>
12    6  0.1611689E-007  0.1478487E+04  0.7818608E-02  0.8898886E-01
         -1   -1    0    0    0  501 -0.00000000000E+00  0.00000000000E+00  0.36722972353E+03  0.36722972353E+03  0.00000000000E+00 0.  1.
          2   -1    0    0  501    0  0.00000000000E+00 -0.00000000000E+00 -0.14881174329E+04  0.14881174329E+04  0.00000000000E+00 0. -1.
         24    2    1    2    0    0 -0.39994930369E+03 -0.21980038253E+03 -0.48994162073E+03  0.67447971006E+03  0.81292274404E+02 0.  0.
        254    2    1    2    0    0  0.39994930369E+03  0.21980038253E+03 -0.63094608862E+03  0.11808674463E+04  0.88774056200E+03 0.  0.
         23    2    4    4    0    0  0.36106478595E+03  0.44807236321E+03 -0.95241242061E+02  0.59035016456E+03  0.91136163386E+02 0.  0.
         23    2    4    4    0    0  0.38884517746E+02 -0.22827198068E+03 -0.53570484656E+03  0.59051728179E+03  0.90060394085E+02 0.  0.
          4    1    3    3  502    0 -0.37657697451E+03 -0.20522800942E+03 -0.48329783668E+03  0.64614669582E+03  0.00000000000E+00 0. -1.
         -1    1    3    3    0  502 -0.23372329178E+02 -0.14572373112E+02 -0.66437840491E+01  0.28333014238E+02  0.00000000000E+00 0.  1.
         11    1    5    5    0    0 -0.13936283559E+01  0.93362362161E+01  0.75025828663E+01  0.12058037002E+02  0.00000000000E+00 0. -1.
        -11    1    5    5    0    0  0.36245841430E+03  0.43873612700E+03 -0.10274382493E+03  0.57829212756E+03  0.00000000000E+00 0.  1.
          1    1    6    6  503    0  0.29550230833E+02 -0.40912626472E+02 -0.19669246816E+03  0.20306399528E+03  0.00000000000E+00 0. -1.
         -1    1    6    6    0  503  0.93342869122E+01 -0.18735935421E+03 -0.33901237839E+03  0.38745328651E+03  0.00000000000E+00 0.  1.
<mgrwt>
<rscale>  0 0.14784870E+04</rscale>
<asrwt>0</asrwt>
<pdfrwt beam="1">  1        2 0.22894114E+00 0.14784870E+04</pdfrwt>
<pdfrwt beam="2">  1       -1 0.56496882E-01 0.14784870E+04</pdfrwt>
<totfact> 0.45073665E+01</totfact>
</mgrwt>
</event>
<event>
12    6  0.1611689E-007  0.1817024E+04  0.7818608E-02  0.8697298E-01
         -1   -1    0    0    0  501 -0.00000000000E+00  0.00000000000E+00  0.56627446079E+03  0.56627446079E+03  0.00000000000E+00 0.  1.
          2   -1    0    0  501    0  0.00000000000E+00 -0.00000000000E+00 -0.14575869190E+04  0.14575869190E+04  0.00000000000E+00 0. -1.
         24    2    1    2    0    0  0.55057894775E+03 -0.40404217167E+03 -0.34885186806E+03  0.77103000873E+03  0.80014963034E+02 0.  0.
        254    2    1    2    0    0 -0.55057894775E+03  0.40404217167E+03 -0.54246059015E+03  0.12528313711E+04  0.89940852690E+03 0.  0.
         23    2    4    4    0    0  0.10652703516E+03 -0.43729824811E+02 -0.41733542627E+03  0.44268874047E+03  0.92434604587E+02 0.  0.
         23    2    4    4    0    0 -0.65710598291E+03  0.44777199648E+03 -0.12512516389E+03  0.81014263059E+03  0.91579155142E+02 0.  0.
          2    1    3    3  502    0  0.36033588930E+03 -0.30288526066E+03 -0.26194020294E+03  0.53869667175E+03  0.00000000000E+00 0. -1.
         -1    1    3    3    0  502  0.19024305846E+03 -0.10115691102E+03 -0.86911665126E+02  0.23233333698E+03  0.00000000000E+00 0.  1.
         11    1    5    5    0    0  0.31623691084E+02 -0.62850133634E+02 -0.19828320359E+03  0.21039587915E+03  0.00000000000E+00 0. -1.
        -11    1    5    5    0    0  0.74903344075E+02  0.19120308824E+02 -0.21905222267E+03  0.23229286132E+03  0.00000000000E+00 0.  1.
          3    1    6    6  503    0 -0.30248755309E+03  0.25050451632E+03 -0.33806624614E+02  0.39420060926E+03  0.00000000000E+00 0. -1.
         -3    1    6    6    0  503 -0.35461842982E+03  0.19726748016E+03 -0.91318539274E+02  0.41594202133E+03  0.00000000000E+00 0.  1.
<mgrwt>
<rscale>  0 0.18170242E+04</rscale>
<asrwt>0</asrwt>
<pdfrwt beam="1">  1        2 0.22424414E+00 0.18170242E+04</pdfrwt>
<pdfrwt beam="2">  1       -1 0.87119147E-01 0.18170242E+04</pdfrwt>
<totfact> 0.18702677E+01</totfact>
</mgrwt>
</event>
<event>
12    6  0.1611689E-007  0.1443622E+04  0.7818608E-02  0.8922834E-01
         -1   -1    0    0    0  501 -0.00000000000E+00  0.00000000000E+00  0.23294711290E+03  0.23294711290E+03  0.00000000000E+00 0.  1.
          2   -1    0    0  501    0  0.00000000000E+00 -0.00000000000E+00 -0.22366072066E+04  0.22366072066E+04  0.00000000000E+00 0. -1.
         24    2    1    2    0    0 -0.32617744513E+03  0.43191695482E+02 -0.11067510052E+04  0.11573282837E+04  0.79080467783E+02 0.  0.
        254    2    1    2    0    0  0.32617744513E+03 -0.43191695482E+02 -0.89690908847E+03  0.13122260358E+04  0.89957434813E+03 0.  0.
         23    2    4    4    0    0  0.30702857424E+03 -0.57555176745E+02 -0.10708386903E+04  0.11190597098E+04  0.89554395430E+02 0.  0.
         23    2    4    4    0    0  0.19148870888E+02  0.14363481263E+02  0.17392960181E+03  0.19316632601E+03  0.80552680091E+02 0.  0.
          4    1    3    3  502    0 -0.20618289785E+03 -0.24818003219E+01 -0.76338168700E+03  0.79073962007E+03  0.00000000000E+00 0. -1.
         -3    1    3    3    0  502 -0.11999454728E+03  0.45673495804E+02 -0.34336931825E+03  0.36658866364E+03  0.00000000000E+00 0.  1.
         11    1    5    5    0    0  0.18796754705E+03  0.87417454544E+01 -0.58971359988E+03  0.61900754982E+03  0.00000000000E+00 0.  1.
        -11    1    5    5    0    0  0.11906102719E+03 -0.66296922199E+02 -0.48112509040E+03  0.50005215998E+03  0.00000000000E+00 0. -1.
          3    1    6    6  503    0  0.22657051292E+02  0.56635784663E+01  0.48824376711E+01  0.23859092437E+02  0.00000000000E+00 0. -1.
         -3    1    6    6    0  503 -0.35081804035E+01  0.86999027966E+01  0.16904716414E+03  0.16930723358E+03  0.00000000000E+00 0.  1.
<mgrwt>
<rscale>  0 0.14436221E+04</rscale>
<asrwt>0</asrwt>
<pdfrwt beam="1">  1        2 0.34409343E+00 0.14436221E+04</pdfrwt>
<pdfrwt beam="2">  1       -1 0.35838016E-01 0.14436221E+04</pdfrwt>
<totfact> 0.40528266E+01</totfact>
</mgrwt>
</event>
<event>
12    6  0.1611689E-007  0.2010937E+04  0.7818608E-02  0.8601524E-01
         -1   -1    0    0    0  501 -0.00000000000E+00  0.00000000000E+00  0.55191957452E+03  0.55191957452E+03  0.00000000000E+00 0.  1.
          2   -1    0    0  501    0  0.00000000000E+00 -0.00000000000E+00 -0.18317281685E+04  0.18317281685E+04  0.00000000000E+00 0. -1.
         24    2    1    2    0    0  0.39583460911E+03 -0.24607812462E+03  0.25964747815E+03  0.53922877462E+03  0.78175298373E+02 0.  0.
        254    2    1    2    0    0 -0.39583460911E+03  0.24607812462E+03 -0.15394560721E+04  0.18444189684E+04  0.90261666934E+03 0.  0.
         23    2    4    4    0    0 -0.54894964742E+03  0.36563610588E+03 -0.14792065118E+04  0.16217459724E+04  0.83502199867E+02 0.  0.
         23    2    4    4    0    0  0.15311503831E+03 -0.11955798126E+03 -0.60249560340E+02  0.22267299592E+03  0.90636238636E+02 0.  0.
          4    1    3    3  502    0  0.47118189939E+02 -0.51762275529E+02  0.16871185267E+02  0.72000651965E+02  0.00000000000E+00 0. -1.
         -3    1    3    3    0  502  0.34871641918E+03 -0.19431584909E+03  0.24277629289E+03  0.46722812265E+03  0.00000000000E+00 0.  1.
         11    1    5    5    0    0 -0.21433649921E+02  0.35376753576E+02 -0.71628005906E+02  0.82713283532E+02  0.00000000000E+00 0.  1.
        -11    1    5    5    0    0 -0.52751599750E+03  0.33025935230E+03 -0.14075785059E+04  0.15390326889E+04  0.00000000000E+00 0. -1.
          4    1    6    6  503    0  0.72455988767E+02 -0.50095305129E+01 -0.33766819766E+02  0.80094717812E+02  0.00000000000E+00 0. -1.
         -4    1    6    6    0  503  0.80659049538E+02 -0.11454845075E+03 -0.26482740574E+02  0.14257827811E+03  0.00000000000E+00 0.  1.
<mgrwt>
<rscale>  0 0.20109367E+04</rscale>
<asrwt>0</asrwt>
<pdfrwt beam="1">  1        2 0.28180433E+00 0.20109367E+04</pdfrwt>
<pdfrwt beam="2">  1       -1 0.84910704E-01 0.20109367E+04</pdfrwt>
<totfact> 0.12017592E+01</totfact>
</mgrwt>
</event>
<event>
12    6  0.1611689E-007  0.1623705E+04  0.7818608E-02  0.8806116E-01
          2   -1    0    0  501    0  0.00000000000E+00  0.00000000000E+00  0.17410060711E+04  0.17410060711E+04  0.00000000000E+00 0. -1.
         -1   -1    0    0    0  501 -0.00000000000E+00 -0.00000000000E+00 -0.37857685615E+03  0.37857685615E+03  0.00000000000E+00 0.  1.
         24    2    1    2    0    0 -0.12026406413E+03 -0.37142844302E+03 -0.48379326591E+02  0.40160318596E+03  0.80759063444E+02 0.  0.
        254    2    1    2    0    0  0.12026406413E+03  0.37142844302E+03  0.14108085415E+04  0.17179797413E+04  0.89925030843E+03 0.  0.
         23    2    4    4    0    0 -0.37297596348E+03  0.59622035864E+02  0.59124575770E+03  0.70750714089E+03  0.91263091779E+02 0.  0.
         23    2    4    4    0    0  0.49324002761E+03  0.31180640715E+03  0.81956278384E+03  0.10104726004E+04  0.94142228226E+02 0.  0.
          2    1    3    3  502    0 -0.66511198661E+02 -0.24201030567E+03 -0.68166993372E+02  0.26007588620E+03  0.00000000000E+00 0. -1.
         -1    1    3    3    0  502 -0.53752865465E+02 -0.12941813735E+03  0.19787666780E+02  0.14152729976E+03  0.00000000000E+00 0.  1.
         11    1    5    5    0    0 -0.79408189911E+02  0.34639882999E+02  0.19807921188E+03  0.21619656866E+03  0.00000000000E+00 0.  1.
        -11    1    5    5    0    0 -0.29356777357E+03  0.24982152865E+02  0.39316654582E+03  0.49131057223E+03  0.00000000000E+00 0. -1.
          3    1    6    6  503    0  0.41908325092E+03  0.24991234471E+03  0.73427321675E+03  0.88161448949E+03  0.00000000000E+00 0. -1.
         -3    1    6    6    0  503  0.74156776685E+02  0.61894062444E+02  0.85289567093E+02  0.12885811092E+03  0.00000000000E+00 0.  1.
<mgrwt>
<rscale>  0 0.16237052E+04</rscale>
<asrwt>0</asrwt>
<pdfrwt beam="1">  1        2 0.26784708E+00 0.16237052E+04</pdfrwt>
<pdfrwt beam="2">  1       -1 0.58242594E-01 0.16237052E+04</pdfrwt>
<totfact> 0.30305431E+01</totfact>
</mgrwt>
</event>
<event>
12    6  0.1611689E-007  0.1661232E+04  0.7818608E-02  0.8783789E-01
         -1   -1    0    0    0  501 -0.00000000000E+00  0.00000000000E+00  0.43546342452E+03  0.43546342452E+03  0.00000000000E+00 0.  1.
          2   -1    0    0  501    0  0.00000000000E+00 -0.00000000000E+00 -0.15843417192E+04  0.15843417192E+04  0.00000000000E+00 0. -1.
         24    2    1    2    0    0 -0.30089436229E+03 -0.33467704993E+03 -0.87575616059E+03  0.98775292385E+03  0.78491023343E+02 0.  0.
        254    2    1    2    0    0  0.30089436229E+03  0.33467704993E+03 -0.27312213412E+03  0.10320522199E+04  0.88768797416E+03 0.  0.
         23    2    4    4    0    0  0.14089292124E+02  0.55702008937E+03  0.76139740452E+01  0.56393977133E+03  0.86603723802E+02 0.  0.
         23    2    4    4    0    0  0.28680507016E+03 -0.22234303944E+03 -0.28073610816E+03  0.46811244858E+03  0.92859714783E+02 0.  0.
          2    1    3    3  502    0 -0.22144905259E+03 -0.21034306933E+03 -0.64812970388E+03  0.71648866199E+03  0.00000000000E+00 0. -1.
         -1    1    3    3    0  502 -0.79445309698E+02 -0.12433398061E+03 -0.22762645671E+03  0.27126426186E+03  0.00000000000E+00 0.  1.
         11    1    5    5    0    0  0.32846710947E+02  0.26714021680E+03  0.38194116807E+02  0.27184847325E+03  0.00000000000E+00 0.  1.
        -11    1    5    5    0    0 -0.18757418823E+02  0.28987987257E+03 -0.30580142762E+02  0.29209129808E+03  0.00000000000E+00 0. -1.
          3    1    6    6  503    0  0.18818675501E+03 -0.16473725395E+03 -0.13916505637E+03  0.28621588097E+03  0.00000000000E+00 0. -1.
         -3    1    6    6    0  503  0.98618315150E+02 -0.57605785489E+02 -0.14157105179E+03  0.18189656761E+03  0.00000000000E+00 0.  1.
<mgrwt>
<rscale>  0 0.16612319E+04</rscale>
<asrwt>0</asrwt>
<pdfrwt beam="1">  1        2 0.24374488E+00 0.16612319E+04</pdfrwt>
<pdfrwt beam="2">  1       -1 0.66994373E-01 0.16612319E+04</pdfrwt>
<totfact> 0.27928858E+01</totfact>
</mgrwt>
</event>
<event>
12    6  0.1611689E-007  0.4534628E+04  0.7818608E-02  0.7904602E-01
         -1   -1    0    0    0  501 -0.00000000000E+00  0.00000000000E+00  0.14489464239E+04  0.14489464239E+04  0.00000000000E+00 0.  1.
          2   -1    0    0  501    0  0.00000000000E+00 -0.00000000000E+00 -0.35478975438E+04  0.35478975438E+04  0.00000000000E+00 0. -1.
         24    2    1    2    0    0  0.68711219274E+03 -0.18443131516E+04 -0.20220689062E+04  0.28228955047E+04  0.79763415304E+02 0.  0.
        254    2    1    2    0    0 -0.68711219274E+03  0.18443131516E+04 -0.76882213604E+02  0.21739484630E+04  0.92006895306E+03 0.  0.
         23    2    4    4    0    0 -0.32212883722E+03  0.13333431758E+04  0.33892758804E+03  0.14154833257E+04  0.84558401326E+02 0.  0.
         23    2    4    4    0    0 -0.36498335553E+03  0.51096997579E+03 -0.41580980165E+03  0.75846513726E+03  0.89824313662E+02 0.  0.
          2    1    3    3  502    0  0.57966546250E+03 -0.15770306838E+04 -0.16860027234E+04  0.23802611221E+04  0.00000000000E+00 0. -1.
         -1    1    3    3    0  502  0.10744673025E+03 -0.26728246783E+03 -0.33606618286E+03  0.44263438266E+03  0.00000000000E+00 0.  1.
         11    1    5    5    0    0 -0.41530878045E+02  0.32495891821E+03  0.78644586081E+02  0.33690960698E+03  0.00000000000E+00 0. -1.
        -11    1    5    5    0    0 -0.28059795917E+03  0.10083842576E+04  0.26028300196E+03  0.10785737188E+04  0.00000000000E+00 0.  1.
          4    1    6    6  503    0 -0.24871842085E+03  0.29482759897E+03 -0.21670761767E+03  0.44243231973E+03  0.00000000000E+00 0. -1.
         -4    1    6    6    0  503 -0.11626493467E+03  0.21614237682E+03 -0.19910218398E+03  0.31603281753E+03  0.00000000000E+00 0.  1.
<mgrwt>
<rscale>  0 0.45346283E+04</rscale>
<asrwt>0</asrwt>
<pdfrwt beam="1">  1        2 0.54583039E+00 0.45346283E+04</pdfrwt>
<pdfrwt beam="2">  1       -1 0.22291484E+00 0.45346283E+04</pdfrwt>
<totfact> 0.67734351E-02</totfact>
</mgrwt>
</event>
<event>
12    6  0.1611689E-007  0.1615973E+04  0.7818608E-02  0.8810795E-01
         -1   -1    0    0    0  501 -0.00000000000E+00  0.00000000000E+00  0.38681316704E+03  0.38681316704E+03  0.00000000000E+00 0.  1.
          2   -1    0    0  501    0  0.00000000000E+00 -0.00000000000E+00 -0.16877465500E+04  0.16877465500E+04  0.00000000000E+00 0. -1.
         24    2    1    2    0    0  0.53048604354E+03  0.15372850113E+03 -0.32164884019E+03  0.64408788245E+03  0.79645021622E+02 0.  0.
        254    2    1    2    0    0 -0.53048604354E+03 -0.15372850113E+03 -0.97928454273E+03  0.14304718345E+04  0.88442272662E+03 0.  0.
         23    2    4    4    0    0 -0.21822574533E+03 -0.16848271993E+03  0.97296863056E+02  0.30625081809E+03  0.91181035214E+02 0.  0.
         23    2    4    4    0    0 -0.31226029821E+03  0.14754218798E+02 -0.10765814058E+04  0.11242210165E+04  0.84387142088E+02 0.  0.
          2    1    3    3  502    0  0.11359204958E+03  0.43376351312E+01 -0.47172807346E+02  0.12307413441E+03  0.00000000000E+00 0. -1.
         -1    1    3    3    0  502  0.41689399395E+03  0.14939086600E+03 -0.27447603285E+03  0.52101374804E+03  0.00000000000E+00 0.  1.
         11    1    5    5    0    0 -0.53904994683E+02 -0.69895680303E+02 -0.61563490214E+01  0.88481948498E+02  0.00000000000E+00 0. -1.
        -11    1    5    5    0    0 -0.16432075064E+03 -0.98587039624E+02  0.10345321208E+03  0.21776886959E+03  0.00000000000E+00 0.  1.
          3    1    6    6  503    0 -0.25259889900E+02 -0.74593944096E+01 -0.19653789626E+03  0.19829485437E+03  0.00000000000E+00 0. -1.
         -3    1    6    6    0  503 -0.28700040831E+03  0.22213613208E+02 -0.88004350953E+03  0.92592616209E+03  0.00000000000E+00 0.  1.
<mgrwt>
<rscale>  0 0.16159735E+04</rscale>
<asrwt>0</asrwt>
<pdfrwt beam="1">  1        2 0.25965331E+00 0.16159735E+04</pdfrwt>
<pdfrwt beam="2">  1       -1 0.59509719E-01 0.16159735E+04</pdfrwt>
<totfact> 0.31115484E+01</totfact>
</mgrwt>
</event>
<event>
12    6  0.1611689E-007  0.1867491E+04  0.7818608E-02  0.8671209E-01
          2   -1    0    0  501    0  0.00000000000E+00  0.00000000000E+00  0.27592347933E+04  0.27592347933E+04  0.00000000000E+00 0. -1.
         -1   -1    0    0    0  501 -0.00000000000E+00 -0.00000000000E+00 -0.31598643135E+03  0.31598643135E+03  0.00000000000E+00 0.  1.
         24    2    1    2    0    0  0.12583955476E+03 -0.26920083557E+03 -0.12811970943E+03  0.33452691382E+03  0.84787456113E+02 0.  0.
        254    2    1    2    0    0 -0.12583955476E+03  0.26920083557E+03  0.25713680714E+04  0.27406943108E+04  0.90064802416E+03 0.  0.
         23    2    4    4    0    0 -0.25593494803E+03 -0.17867186359E+03  0.18416862012E+04  0.18700502995E+04  0.88621252766E+02 0.  0.
         23    2    4    4    0    0  0.13009539327E+03  0.44787269915E+03  0.72968187015E+03  0.87064401131E+03  0.89836500396E+02 0.  0.
          4    1    3    3  502    0  0.12045829498E+02 -0.11634289706E+03 -0.32933628393E+02  0.12151294410E+03  0.00000000000E+00 0. -1.
         -3    1    3    3    0  502  0.11379372526E+03 -0.15285793851E+03 -0.95186081042E+02  0.21301396973E+03  0.00000000000E+00 0.  1.
         11    1    5    5    0    0 -0.21616952806E+03 -0.13853993823E+03  0.12777432016E+04  0.13032844158E+04  0.00000000000E+00 0. -1.
        -11    1    5    5    0    0 -0.39765419972E+02 -0.40131925359E+02  0.56394299963E+03  0.56676588367E+03  0.00000000000E+00 0.  1.
          1    1    6    6  503    0  0.13474346414E+03  0.32980844116E+03  0.52973969629E+03  0.63839921273E+03  0.00000000000E+00 0. -1.
         -1    1    6    6    0  503 -0.46480708716E+01  0.11806425799E+03  0.19994217386E+03  0.23224479858E+03  0.00000000000E+00 0.  1.
<mgrwt>
<rscale>  0 0.18674911E+04</rscale>
<asrwt>0</asrwt>
<pdfrwt beam="1">  1        2 0.42449764E+00 0.18674911E+04</pdfrwt>
<pdfrwt beam="2">  1       -1 0.48613299E-01 0.18674911E+04</pdfrwt>
<totfact> 0.11099438E+01</totfact>
</mgrwt>
</event>
<event>
12    6  0.1611689E-007  0.2187776E+04  0.7818608E-02  0.8523533E-01
         -1   -1    0    0    0  501 -0.00000000000E+00  0.00000000000E+00  0.76589933527E+03  0.76589933527E+03  0.00000000000E+00 0.  1.
          2   -1    0    0  501    0  0.00000000000E+00 -0.00000000000E+00 -0.15623343036E+04  0.15623343036E+04  0.00000000000E+00 0. -1.
         24    2    1    2    0    0  0.65958655155E+03 -0.36268514021E+03 -0.86561274719E+03  0.11496129949E+04  0.75694649426E+02 0.  0.
        254    2    1    2    0    0 -0.65958655155E+03  0.36268514021E+03  0.69177778844E+02  0.11786206440E+04  0.90430422288E+03 0.  0.
         23    2    4    4    0    0 -0.81369881113E+03  0.11555951150E+03  0.19560110768E+03  0.84979791091E+03  0.91852817766E+02 0.  0.
         23    2    4    4    0    0  0.15411225958E+03  0.24712562871E+03 -0.12642332883E+03  0.32882273311E+03  0.85556220221E+02 0.  0.
          2    1    3    3  502    0  0.60864105811E+03 -0.34549513222E+03 -0.82713532309E+03  0.10834960391E+04  0.00000000000E+00 0. -1.
         -1    1    3    3    0  502  0.50945493447E+02 -0.17190007983E+02 -0.38477424107E+02  0.66116955790E+02  0.00000000000E+00 0.  1.
         11    1    5    5    0    0 -0.37599979758E+02  0.13652740925E+02  0.29252143556E+02  0.49556469963E+02  0.00000000000E+00 0.  1.
        -11    1    5    5    0    0 -0.77609883138E+03  0.10190677057E+03  0.16634896412E+03  0.80024144095E+03  0.00000000000E+00 0. -1.
          3    1    6    6  503    0  0.78724150257E+02  0.15835543985E+03 -0.33861304445E+02  0.18005700515E+03  0.00000000000E+00 0. -1.
         -3    1    6    6    0  503  0.75388109324E+02  0.88770188859E+02 -0.92562024387E+02  0.14876572796E+03  0.00000000000E+00 0.  1.
<mgrwt>
<rscale>  0 0.21877759E+04</rscale>
<asrwt>0</asrwt>
<pdfrwt beam="1">  1        2 0.24035912E+00 0.21877759E+04</pdfrwt>
<pdfrwt beam="2">  1       -1 0.11783067E+00 0.21877759E+04</pdfrwt>
<totfact> 0.78983303E+00</totfact>
</mgrwt>
</event>
<event>
12    6  0.1611689E-007  0.1937444E+04  0.7818608E-02  0.8636439E-01
          2   -1    0    0  501    0  0.00000000000E+00  0.00000000000E+00  0.15026842685E+04  0.15026842685E+04  0.00000000000E+00 0. -1.
         -1   -1    0    0    0  501 -0.00000000000E+00 -0.00000000000E+00 -0.62449739322E+03  0.62449739322E+03  0.00000000000E+00 0.  1.
         24    2    1    2    0    0 -0.42572439976E+01  0.10545784408E+03 -0.47670892162E+03  0.49481712115E+03  0.80331229489E+02 0.  0.
        254    2    1    2    0    0  0.42572439976E+01 -0.10545784408E+03  0.13548957969E+04  0.16323645405E+04  0.90428529338E+03 0.  0.
         23    2    4    4    0    0 -0.25323398784E+03 -0.40680105963E+03  0.59960324031E+03  0.77322667979E+03  0.93492768928E+02 0.  0.
         23    2    4    4    0    0  0.25749123184E+03  0.30134321555E+03  0.75529255655E+03  0.85913786073E+03  0.10267204947E+03 0.  0.
          4    1    3    3  502    0  0.14893621306E+02  0.23111173646E+02 -0.27130211233E+03  0.27269173523E+03  0.00000000000E+00 0. -1.
         -3    1    3    3    0  502 -0.19150865303E+02  0.82346670435E+02 -0.20540680928E+03  0.22212538593E+03  0.00000000000E+00 0.  1.
         11    1    5    5    0    0 -0.45966933631E+02 -0.12004649116E+03  0.11017993561E+03  0.16930368348E+03  0.00000000000E+00 0.  1.
        -11    1    5    5    0    0 -0.20726705421E+03 -0.28675456847E+03  0.48942330470E+03  0.60392299632E+03  0.00000000000E+00 0. -1.
          3    1    6    6  503    0  0.17188059235E+03  0.20105385961E+03  0.39417617317E+03  0.47470037706E+03  0.00000000000E+00 0. -1.
         -3    1    6    6    0  503  0.85610639487E+02  0.10028935594E+03  0.36111638337E+03  0.38443748367E+03  0.00000000000E+00 0.  1.
<mgrwt>
<rscale>  0 0.19374441E+04</rscale>
<asrwt>0</asrwt>
<pdfrwt beam="1">  1        2 0.23118219E+00 0.19374441E+04</pdfrwt>
<pdfrwt beam="2">  1       -1 0.96076522E-01 0.19374441E+04</pdfrwt>
<totfact> 0.14049308E+01</totfact>
</mgrwt>
</event>
<event>
12    6  0.1611689E-007  0.1377968E+04  0.7818608E-02  0.8969923E-01
         -1   -1    0    0    0  501 -0.00000000000E+00  0.00000000000E+00  0.11480031628E+04  0.11480031628E+04  0.00000000000E+00 0.  1.
          2   -1    0    0  501    0  0.00000000000E+00 -0.00000000000E+00 -0.41349965540E+03  0.41349965540E+03  0.00000000000E+00 0. -1.
         24    2    1    2    0    0  0.38672718085E+03 -0.42406581046E+02  0.20861697395E+03  0.44849429249E+03  0.79182435264E+02 0.  0.
        254    2    1    2    0    0 -0.38672718085E+03  0.42406581046E+02  0.52588653347E+03  0.11130085257E+04  0.90048603640E+03 0.  0.
         23    2    4    4    0    0 -0.56895424051E+03  0.50476075854E+02  0.65376633616E+03  0.87271251145E+03  0.89218514401E+02 0.  0.
         23    2    4    4    0    0  0.18222705966E+03 -0.80694948080E+01 -0.12787980269E+03  0.24029601429E+03  0.90095019431E+02 0.  0.
          4    1    3    3  502    0  0.28980982449E+03  0.17823762557E+01  0.14065753804E+03  0.32214508260E+03  0.00000000000E+00 0. -1.
         -3    1    3    3    0  502  0.96917356362E+02 -0.44188957302E+02  0.67959435914E+02  0.12634920990E+03  0.00000000000E+00 0.  1.
         11    1    5    5    0    0 -0.32620543260E+03  0.21828079893E+02  0.43877577901E+03  0.54718427753E+03  0.00000000000E+00 0. -1.
        -11    1    5    5    0    0 -0.24274880791E+03  0.28647995962E+02  0.21499055715E+03  0.32552823392E+03  0.00000000000E+00 0.  1.
          4    1    6    6  503    0  0.16302779750E+03 -0.19972233876E+02 -0.70701843031E+02  0.17881751450E+03  0.00000000000E+00 0.  1.
         -4    1    6    6    0  503  0.19199262158E+02  0.11902739068E+02 -0.57177959661E+02  0.61478499784E+02  0.00000000000E+00 0. -1.
<mgrwt>
<rscale>  0 0.13779679E+04</rscale>
<asrwt>0</asrwt>
<pdfrwt beam="1">  1        2 0.63615332E-01 0.13779679E+04</pdfrwt>
<pdfrwt beam="2">  1       -1 0.17661587E+00 0.13779679E+04</pdfrwt>
<totfact> 0.18804339E+01</totfact>
</mgrwt>
</event>
<event>
12    6  0.1611689E-007  0.2477772E+04  0.7818608E-02  0.8410947E-01
         -1   -1    0    0    0  501 -0.00000000000E+00  0.00000000000E+00  0.59114707608E+03  0.59114707608E+03  0.00000000000E+00 0.  1.
          2   -1    0    0  501    0  0.00000000000E+00 -0.00000000000E+00 -0.25963743200E+04  0.25963743200E+04  0.00000000000E+00 0. -1.
         24    2    1    2    0    0 -0.26987652068E+03 -0.78699594644E+03 -0.17457824500E+04  0.19355619062E+04  0.80296785785E+02 0.  0.
        254    2    1    2    0    0  0.26987652068E+03  0.78699594644E+03 -0.25944479395E+03  0.12519594899E+04  0.89882979878E+03 0.  0.
         23    2    4    4    0    0  0.51437562921E+03  0.16463385369E+03 -0.14955355435E+03  0.56792658983E+03  0.92128997101E+02 0.  0.
         23    2    4    4    0    0 -0.24449910853E+03  0.62236209275E+03 -0.10989123960E+03  0.68403290010E+03  0.93330248627E+02 0.  0.
          4    1    3    3  502    0 -0.17975455669E+03 -0.42324455300E+03 -0.90865842869E+03  0.10183848940E+04  0.00000000000E+00 0. -1.
         -3    1    3    3    0  502 -0.90121963987E+02 -0.36375139344E+03 -0.83712402130E+03  0.91717701217E+03  0.00000000000E+00 0.  1.
         11    1    5    5    0    0  0.25505372968E+03  0.43739988405E+02 -0.41490302231E+02  0.26208211841E+03  0.00000000000E+00 0. -1.
        -11    1    5    5    0    0  0.25932189953E+03  0.12089386528E+03 -0.10806325212E+03  0.30584447142E+03  0.00000000000E+00 0.  1.
          2    1    6    6  503    0  0.31790159759E+01  0.96003825256E+00 -0.62926655530E+01  0.71151567645E+01  0.00000000000E+00 0. -1.
         -2    1    6    6    0  503 -0.24767812451E+03  0.62140205450E+03 -0.10359857405E+03  0.67691774333E+03  0.00000000000E+00 0.  1.
<mgrwt>
<rscale>  0 0.24777725E+04</rscale>
<asrwt>0</asrwt>
<pdfrwt beam="1">  1        2 0.39944220E+00 0.24777725E+04</pdfrwt>
<pdfrwt beam="2">  1       -1 0.90945706E-01 0.24777725E+04</pdfrwt>
<totfact> 0.36677800E+00</totfact>
</mgrwt>
</event>
<event>
12    6  0.1611689E-007  0.3425013E+04  0.7818608E-02  0.8131795E-01
         -1   -1    0    0    0  501 -0.00000000000E+00  0.00000000000E+00  0.45476796592E+04  0.45476796592E+04  0.00000000000E+00 0.  1.
          2   -1    0    0  501    0  0.00000000000E+00 -0.00000000000E+00 -0.64487345428E+03  0.64487345428E+03  0.00000000000E+00 0. -1.
         24    2    1    2    0    0  0.10636706774E+04 -0.10747628278E+04  0.10655502482E+04  0.18515422917E+04  0.79379345963E+02 0.  0.
        254    2    1    2    0    0 -0.10636706774E+04  0.10747628278E+04  0.28372559567E+04  0.33410108217E+04  0.90874721516E+03 0.  0.
         23    2    4    4    0    0 -0.21422541009E+02  0.49558457508E+03  0.12936367320E+04  0.13883781794E+04  0.89638041370E+02 0.  0.
         23    2    4    4    0    0 -0.10422481364E+04  0.57917825276E+03  0.15436192247E+04  0.19526326423E+04  0.91023615604E+02 0.  0.
          4    1    3    3  502    0  0.64410536423E+02 -0.94823342690E+02  0.80281365722E+02  0.13994742300E+03  0.00000000000E+00 0. -1.
         -3    1    3    3    0  502  0.99926014097E+03 -0.97993948515E+03  0.98526888247E+03  0.17115948687E+04  0.00000000000E+00 0.  1.
         11    1    5    5    0    0 -0.51026206661E+02  0.36989644159E+03  0.91163853982E+03  0.98514561287E+03  0.00000000000E+00 0. -1.
        -11    1    5    5    0    0  0.29603665652E+02  0.12568813349E+03  0.38199819218E+03  0.40323256657E+03  0.00000000000E+00 0.  1.
          2    1    6    6  503    0 -0.44165397274E+03  0.27741777504E+03  0.73267267670E+03  0.89934871142E+03  0.00000000000E+00 0.  1.
         -2    1    6    6    0  503 -0.60059416364E+03  0.30176047772E+03  0.81094654800E+03  0.10532839309E+04  0.00000000000E+00 0. -1.
<mgrwt>
<rscale>  0 0.34250126E+04</rscale>
<asrwt>0</asrwt>
<pdfrwt beam="1">  1        2 0.99211303E-01 0.34250126E+04</pdfrwt>
<pdfrwt beam="2">  1       -1 0.69964300E+00 0.34250126E+04</pdfrwt>
<totfact> 0.85542437E-03</totfact>
</mgrwt>
</event>
<event>
12    6  0.1611689E-007  0.1544980E+04  0.7818608E-02  0.8855080E-01
         -1   -1    0    0    0  501 -0.00000000000E+00  0.00000000000E+00  0.33065604569E+03  0.33065604569E+03  0.00000000000E+00 0.  1.
          2   -1    0    0  501    0  0.00000000000E+00 -0.00000000000E+00 -0.18047184862E+04  0.18047184862E+04  0.00000000000E+00 0. -1.
         24    2    1    2    0    0 -0.33300117964E+03 -0.21566658883E+03 -0.64479557724E+02  0.40967173818E+03  0.79192528145E+02 0.  0.
        254    2    1    2    0    0  0.33300117964E+03  0.21566658883E+03 -0.14095828828E+04  0.17257027937E+04  0.91308508126E+03 0.  0.
         23    2    4    4    0    0 -0.13506335447E+03 -0.26953361982E+03 -0.43587260080E+03  0.53784177833E+03  0.91642634484E+02 0.  0.
         23    2    4    4    0    0  0.46806453411E+03  0.48520020865E+03 -0.97371028199E+03  0.11878610154E+04  0.91642937915E+02 0.  0.
          2    1    3    3  502    0 -0.14642648871E+03 -0.11922097042E+03 -0.64830873777E+02  0.19964317814E+03  0.00000000000E+00 0. -1.
         -1    1    3    3    0  502 -0.18657469093E+03 -0.96445618416E+02  0.35131605278E+00  0.21002856004E+03  0.00000000000E+00 0.  1.
         11    1    5    5    0    0 -0.52835128103E+02 -0.35286198387E+02 -0.60037289223E+02  0.87413629690E+02  0.00000000000E+00 0. -1.
        -11    1    5    5    0    0 -0.82228226367E+02 -0.23424742143E+03 -0.37583531158E+03  0.45042814864E+03  0.00000000000E+00 0.  1.
          3    1    6    6  503    0  0.89966868139E+02  0.67499246806E+02 -0.11532034547E+03  0.16108683299E+03  0.00000000000E+00 0. -1.
         -3    1    6    6    0  503  0.37809766597E+03  0.41770096184E+03 -0.85838993651E+03  0.10267741824E+04  0.00000000000E+00 0.  1.
<mgrwt>
<rscale>  0 0.15449804E+04</rscale>
<asrwt>0</asrwt>
<pdfrwt beam="1">  1        2 0.27764900E+00 0.15449804E+04</pdfrwt>
<pdfrwt beam="2">  1       -1 0.50870161E-01 0.15449804E+04</pdfrwt>
<totfact> 0.36540140E+01</totfact>
</mgrwt>
</event>
<event>
12    6  0.1611689E-007  0.1636913E+04  0.7818608E-02  0.8798187E-01
         -1   -1    0    0    0  501 -0.00000000000E+00  0.00000000000E+00  0.27773754668E+03  0.27773754668E+03  0.00000000000E+00 0.  1.
          2   -1    0    0  501    0  0.00000000000E+00 -0.00000000000E+00 -0.24118842514E+04  0.24118842514E+04  0.00000000000E+00 0. -1.
         24    2    1    2    0    0 -0.52897979770E+03 -0.16374255259E+03 -0.60992113525E+03  0.82886903802E+03  0.91590616623E+02 0.  0.
        254    2    1    2    0    0  0.52897979770E+03  0.16374255259E+03 -0.15242255694E+04  0.18607527600E+04  0.91241766619E+03 0.  0.
         23    2    4    4    0    0  0.15620348460E+03  0.29756849172E+03 -0.75661287890E+02  0.35628978976E+03  0.90946401439E+02 0.  0.
         23    2    4    4    0    0  0.37277631310E+03 -0.13382593914E+03 -0.14485642816E+04  0.15044629703E+04  0.90547167645E+02 0.  0.
          2    1    3    3  502    0 -0.40434688369E+03 -0.11570355035E+03 -0.51547526371E+03  0.66528073879E+03  0.00000000000E+00 0. -1.
         -1    1    3    3    0  502 -0.12463291402E+03 -0.48039002241E+02 -0.94445871538E+02  0.16358829922E+03  0.00000000000E+00 0.  1.
         11    1    5    5    0    0  0.81046687919E+02  0.13597086413E+03  0.98863091259E+01  0.15860132605E+03  0.00000000000E+00 0. -1.
        -11    1    5    5    0    0  0.75156796679E+02  0.16159762759E+03 -0.85547597016E+02  0.19768846371E+03  0.00000000000E+00 0.  1.
          3    1    6    6  503    0  0.31970052927E+03 -0.79947195483E+02 -0.11322539888E+04  0.11792366504E+04  0.00000000000E+00 0. -1.
         -3    1    6    6    0  503  0.53075783832E+02 -0.53878743654E+02 -0.31631029274E+03  0.32522631988E+03  0.00000000000E+00 0.  1.
<mgrwt>
<rscale>  0 0.16369127E+04</rscale>
<asrwt>0</asrwt>
<pdfrwt beam="1">  1        2 0.37105910E+00 0.16369127E+04</pdfrwt>
<pdfrwt beam="2">  1       -1 0.42728855E-01 0.16369127E+04</pdfrwt>
<totfact> 0.23018478E+01</totfact>
</mgrwt>
</event>
<event>
12    6  0.1611689E-007  0.1884870E+04  0.7818608E-02  0.8662425E-01
          2   -1    0    0  501    0  0.00000000000E+00  0.00000000000E+00  0.77781979208E+03  0.77781979208E+03  0.00000000000E+00 0. -1.
         -1   -1    0    0    0  501 -0.00000000000E+00 -0.00000000000E+00 -0.11418885720E+04  0.11418885720E+04  0.00000000000E+00 0.  1.
         24    2    1    2    0    0 -0.55049004944E+03  0.43717452081E+03  0.12107814657E+02  0.70786933158E+03  0.82289338547E+02 0.  0.
        254    2    1    2    0    0  0.55049004944E+03 -0.43717452081E+03 -0.37617659459E+03  0.12118390325E+04  0.91262487048E+03 0.  0.
         23    2    4    4    0    0  0.61063836947E+03 -0.49463572004E+03  0.26277506015E+02  0.79153464803E+03  0.91065239828E+02 0.  0.
         23    2    4    4    0    0 -0.60148320036E+02  0.57461199227E+02 -0.40245410060E+03  0.42030438447E+03  0.88129805946E+02 0.  0.
          4    1    3    3  502    0 -0.81373638604E+02  0.65550430004E+02 -0.27603631745E+02  0.10807630831E+03  0.00000000000E+00 0. -1.
         -3    1    3    3    0  502 -0.46911641083E+03  0.37162409081E+03  0.39711446403E+02  0.59979302326E+03  0.00000000000E+00 0.  1.
         11    1    5    5    0    0  0.45536038943E+03 -0.40907564570E+03 -0.12164514634E+01  0.61212535311E+03  0.00000000000E+00 0.  1.
        -11    1    5    5    0    0  0.15527798005E+03 -0.85560074341E+02  0.27493957478E+02  0.17940929493E+03  0.00000000000E+00 0. -1.
          1    1    6    6  503    0 -0.50137977664E+02 -0.51538354117E+01 -0.10916520593E+03  0.12023901617E+03  0.00000000000E+00 0. -1.
         -1    1    6    6    0  503 -0.10010342373E+02  0.62615034639E+02 -0.29328889467E+03  0.30006536830E+03  0.00000000000E+00 0.  1.
<mgrwt>
<rscale>  0 0.18848698E+04</rscale>
<asrwt>0</asrwt>
<pdfrwt beam="1">  1        2 0.11966458E+00 0.18848698E+04</pdfrwt>
<pdfrwt beam="2">  1       -1 0.17567517E+00 0.18848698E+04</pdfrwt>
<totfact> 0.85583639E+00</totfact>
</mgrwt>
</event>
<event>
12    6  0.1611689E-007  0.2549177E+04  0.7818608E-02  0.8385672E-01
         -1   -1    0    0    0  501 -0.00000000000E+00  0.00000000000E+00  0.63220577129E+03  0.63220577129E+03  0.00000000000E+00 0.  1.
          2   -1    0    0  501    0  0.00000000000E+00 -0.00000000000E+00 -0.25696955450E+04  0.25696955450E+04  0.00000000000E+00 0. -1.
         24    2    1    2    0    0  0.29442015608E+03 -0.45042442774E+03  0.38019377991E+03  0.66506383787E+03  0.90538415887E+02 0.  0.
        254    2    1    2    0    0 -0.29442015608E+03  0.45042442774E+03 -0.23176835536E+04  0.25368374784E+04  0.87995564876E+03 0.  0.
         23    2    4    4    0    0 -0.48267636197E+03  0.59935935336E+03 -0.17079144556E+04  0.18755330272E+04  0.91892564871E+02 0.  0.
         23    2    4    4    0    0  0.18825620589E+03 -0.14893492562E+03 -0.60976909798E+03  0.66130445122E+03  0.88787460953E+02 0.  0.
          2    1    3    3  502    0 -0.40833529089E+01 -0.22600955229E+02  0.83603752175E+01  0.24441211550E+02  0.00000000000E+00 0. -1.
         -1    1    3    3    0  502  0.29850350899E+03 -0.42782347251E+03  0.37183340470E+03  0.64062262632E+03  0.00000000000E+00 0.  1.
         11    1    5    5    0    0 -0.17716627523E+03  0.22419562059E+03 -0.52993393582E+03  0.60206439996E+03  0.00000000000E+00 0. -1.
        -11    1    5    5    0    0 -0.30551008674E+03  0.37516373277E+03 -0.11779805198E+04  0.12734686272E+04  0.00000000000E+00 0.  1.
          4    1    6    6  503    0  0.11098400907E+03 -0.51837882530E+02 -0.39162555149E+03  0.41033545900E+03  0.00000000000E+00 0. -1.
         -4    1    6    6    0  503  0.77272196823E+02 -0.97097043091E+02 -0.21814354649E+03  0.25096899222E+03  0.00000000000E+00 0.  1.
<mgrwt>
<rscale>  0 0.25491774E+04</rscale>
<asrwt>0</asrwt>
<pdfrwt beam="1">  1        2 0.39533777E+00 0.25491774E+04</pdfrwt>
<pdfrwt beam="2">  1       -1 0.97262429E-01 0.25491774E+04</pdfrwt>
<totfact> 0.32511099E+00</totfact>
</mgrwt>
</event>
<event>
12    6  0.1611689E-007  0.1221335E+04  0.7818608E-02  0.9094385E-01
         -1   -1    0    0    0  501 -0.00000000000E+00  0.00000000000E+00  0.12010737400E+04  0.12010737400E+04  0.00000000000E+00 0.  1.
          2   -1    0    0  501    0  0.00000000000E+00 -0.00000000000E+00 -0.31048435519E+03  0.31048435519E+03  0.00000000000E+00 0. -1.
         24    2    1    2    0    0  0.29436804249E+03 -0.17717419975E+03  0.26770027132E+03  0.44310897851E+03  0.81479384341E+02 0.  0.
        254    2    1    2    0    0 -0.29436804249E+03  0.17717419975E+03  0.62288911351E+03  0.10684491167E+04  0.79721353837E+03 0.  0.
         23    2    4    4    0    0  0.26569844768E+03  0.75261925120E+02  0.25364966526E+03  0.38380821482E+03  0.81918072501E+02 0.  0.
         23    2    4    4    0    0 -0.56006649017E+03  0.10191227463E+03  0.36923944824E+03  0.68464090189E+03  0.91295176596E+02 0.  0.
          2    1    3    3  502    0  0.15162332072E+03 -0.55404651687E+02  0.90675211338E+02  0.18515210170E+03  0.00000000000E+00 0. -1.
         -1    1    3    3    0  502  0.14274472177E+03 -0.12176954806E+03  0.17702505998E+03  0.25795687680E+03  0.00000000000E+00 0.  1.
         11    1    5    5    0    0  0.25582362466E+03  0.66036251147E+02  0.25832257095E+03  0.36950922054E+03  0.00000000000E+00 0. -1.
        -11    1    5    5    0    0  0.98748230153E+01  0.92256739729E+01 -0.46729056865E+01  0.14298994279E+02  0.00000000000E+00 0.  1.
          1    1    6    6  503    0 -0.53848340086E+03  0.89383306026E+02  0.32912950224E+03  0.63740095516E+03  0.00000000000E+00 0. -1.
         -1    1    6    6    0  503 -0.21583089309E+02  0.12528968600E+02  0.40109946001E+02  0.47239946725E+02  0.00000000000E+00 0.  1.
<mgrwt>
<rscale>  0 0.12213347E+04</rscale>
<asrwt>0</asrwt>
<pdfrwt beam="1">  1        2 0.47766825E-01 0.12213347E+04</pdfrwt>
<pdfrwt beam="2">  1       -1 0.18478057E+00 0.12213347E+04</pdfrwt>
<totfact> 0.22944687E+01</totfact>
</mgrwt>
</event>
<event>
12    6  0.1611689E-007  0.3122418E+04  0.7818608E-02  0.8209612E-01
          2   -1    0    0  501    0  0.00000000000E+00  0.00000000000E+00  0.18816014195E+04  0.18816014195E+04  0.00000000000E+00 0. -1.
         -1   -1    0    0    0  501 -0.00000000000E+00 -0.00000000000E+00 -0.12953718745E+04  0.12953718745E+04  0.00000000000E+00 0.  1.
         24    2    1    2    0    0 -0.47971820041E+03 -0.16770427624E+03 -0.10903198267E+04  0.12053529951E+04  0.76316723216E+02 0.  0.
        254    2    1    2    0    0  0.47971820041E+03  0.16770427624E+03  0.16765493718E+04  0.19716202989E+04  0.90455211620E+03 0.  0.
         23    2    4    4    0    0  0.40756603237E+03  0.31270258536E+03  0.34176067166E+03  0.62404906282E+03  0.93508815005E+02 0.  0.
         23    2    4    4    0    0  0.72152168047E+02 -0.14499830913E+03  0.13347887001E+04  0.13475712361E+04  0.89760332683E+02 0.  0.
          2    1    3    3  502    0 -0.16511973784E+03 -0.81199224538E+02 -0.46377439991E+03  0.49894341954E+03  0.00000000000E+00 0. -1.
         -1    1    3    3    0  502 -0.31459846257E+03 -0.86505051698E+02 -0.62654542680E+03  0.70640957558E+03  0.00000000000E+00 0.  1.
         11    1    5    5    0    0  0.22201218320E+03  0.11147996207E+03  0.16223539360E+03  0.29671116320E+03  0.00000000000E+00 0.  1.
        -11    1    5    5    0    0  0.18555384917E+03  0.20122262329E+03  0.17952527807E+03  0.32733789962E+03  0.00000000000E+00 0. -1.
          3    1    6    6  503    0  0.84148733346E+02 -0.12373804497E+03  0.12610388306E+04  0.12698862332E+04  0.00000000000E+00 0. -1.
         -3    1    6    6    0  503 -0.11996565299E+02 -0.21260264158E+02  0.73749869548E+02  0.77685002861E+02  0.00000000000E+00 0.  1.
<mgrwt>
<rscale>  0 0.31224180E+04</rscale>
<asrwt>0</asrwt>
<pdfrwt beam="1">  1        2 0.28947714E+00 0.31224180E+04</pdfrwt>
<pdfrwt beam="2">  1       -1 0.19928798E+00 0.31224180E+04</pdfrwt>
<totfact> 0.11410281E+00</totfact>
</mgrwt>
</event>
<event>
12    6  0.1611689E-007  0.2467689E+04  0.7818608E-02  0.8414588E-01
          2   -1    0    0  501    0  0.00000000000E+00  0.00000000000E+00  0.67557881816E+03  0.67557881816E+03  0.00000000000E+00 0. -1.
         -1   -1    0    0    0  501 -0.00000000000E+00 -0.00000000000E+00 -0.22534341694E+04  0.22534341694E+04  0.00000000000E+00 0.  1.
         24    2    1    2    0    0  0.92977143727E+03 -0.28095697208E+03 -0.12084328554E+04  0.15522168891E+04  0.75203451564E+02 0.  0.
        254    2    1    2    0    0 -0.92977143727E+03  0.28095697208E+03 -0.36942249582E+03  0.13767960984E+04  0.90315157670E+03 0.  0.
         23    2    4    4    0    0 -0.89351175395E+03 -0.12597742019E+03 -0.25231390017E+03  0.94172602751E+03  0.94615230374E+02 0.  0.
         23    2    4    4    0    0 -0.36259683315E+02  0.40693439227E+03 -0.11710859565E+03  0.43507007092E+03  0.93065456476E+02 0.  0.
          2    1    3    3  502    0  0.16896838327E+03 -0.53840031662E+02 -0.17670975108E+03  0.25035055359E+03  0.00000000000E+00 0. -1.
         -1    1    3    3    0  502  0.76080305400E+03 -0.22711694042E+03 -0.10317231043E+04  0.13018663355E+04  0.00000000000E+00 0.  1.
         11    1    5    5    0    0 -0.67787233328E+02 -0.52737264694E+01  0.57494521250E+01  0.68234722780E+02  0.00000000000E+00 0. -1.
        -11    1    5    5    0    0 -0.82572452062E+03 -0.12070369372E+03 -0.25806335229E+03  0.87349130473E+03  0.00000000000E+00 0.  1.
          1    1    6    6  503    0 -0.62278392829E+01  0.95310748557E+01 -0.22863910432E+02  0.25541843517E+02  0.00000000000E+00 0. -1.
         -1    1    6    6    0  503 -0.30031844032E+02  0.39740331741E+03 -0.94244685217E+02  0.40952822740E+03  0.00000000000E+00 0.  1.
<mgrwt>
<rscale>  0 0.24676891E+04</rscale>
<asrwt>0</asrwt>
<pdfrwt beam="1">  1        2 0.10393520E+00 0.24676891E+04</pdfrwt>
<pdfrwt beam="2">  1       -1 0.34668218E+00 0.24676891E+04</pdfrwt>
<totfact> 0.71477925E-01</totfact>
</mgrwt>
</event>
<event>
12    6  0.1611689E-007  0.2942141E+04  0.7818608E-02  0.8260449E-01
         -1   -1    0    0    0  501 -0.00000000000E+00  0.00000000000E+00  0.78061323316E+03  0.78061323316E+03  0.00000000000E+00 0.  1.
          2   -1    0    0  501    0  0.00000000000E+00 -0.00000000000E+00 -0.27722411614E+04  0.27722411614E+04  0.00000000000E+00 0. -1.
         24    2    1    2    0    0  0.43623897867E+03  0.30696690565E+03  0.58095840128E+03  0.79292280042E+03  0.81736012415E+02 0.  0.
        254    2    1    2    0    0 -0.43623897867E+03 -0.30696690565E+03 -0.25725863295E+04  0.27599315942E+04  0.84527442515E+03 0.  0.
         23    2    4    4    0    0 -0.58440489140E+03 -0.85150125614E+02 -0.22657926508E+04  0.23432528792E+04  0.90763971540E+02 0.  0.
         23    2    4    4    0    0  0.14816591272E+03 -0.22181678004E+03 -0.30679367877E+03  0.41667871497E+03  0.91339852096E+02 0.  0.
          4    1    3    3  502    0  0.66823224325E+01  0.25678167519E+01 -0.19850382446E+01  0.74288284941E+01  0.00000000000E+00 0. -1.
         -1    1    3    3    0  502  0.42955665624E+03  0.30439908890E+03  0.58294343952E+03  0.78549397192E+03  0.00000000000E+00 0.  1.
         11    1    5    5    0    0 -0.48027411295E+03 -0.10121930741E+03 -0.18026102183E+04  0.18682377180E+04  0.00000000000E+00 0.  1.
        -11    1    5    5    0    0 -0.10413077845E+03  0.16069181794E+02 -0.46318243245E+03  0.47501516118E+03  0.00000000000E+00 0. -1.
          3    1    6    6  503    0  0.24389585175E+02  0.35915297449E+01 -0.30763703215E+02  0.39422790190E+02  0.00000000000E+00 0. -1.
         -3    1    6    6    0  503  0.12377632755E+03 -0.22540830978E+03 -0.27602997555E+03  0.37725592478E+03  0.00000000000E+00 0.  1.
<mgrwt>
<rscale>  0 0.29421408E+04</rscale>
<asrwt>0</asrwt>
<pdfrwt beam="1">  1        2 0.42649864E+00 0.29421408E+04</pdfrwt>
<pdfrwt beam="2">  1       -1 0.12009434E+00 0.29421408E+04</pdfrwt>
<totfact> 0.14509459E+00</totfact>
</mgrwt>
</event>
<event>
12    6  0.1611689E-007  0.2547167E+04  0.7818608E-02  0.8386372E-01
          2   -1    0    0  501    0  0.00000000000E+00  0.00000000000E+00  0.26564811510E+04  0.26564811510E+04  0.00000000000E+00 0. -1.
         -1   -1    0    0    0  501 -0.00000000000E+00 -0.00000000000E+00 -0.61058778693E+03  0.61058778693E+03  0.00000000000E+00 0.  1.
         24    2    1    2    0    0 -0.57214459724E+03 -0.72349259754E+03  0.10088474567E+03  0.93086957669E+03  0.74494684706E+02 0.  0.
        254    2    1    2    0    0  0.57214459724E+03  0.72349259754E+03  0.19450086184E+04  0.23361993612E+04  0.90773231238E+03 0.  0.
         23    2    4    4    0    0  0.53581339621E+03  0.40193436219E+03  0.46953860185E+03  0.82291826692E+03  0.89892982671E+02 0.  0.
         23    2    4    4    0    0  0.36331201030E+02  0.32155823535E+03  0.14754700165E+04  0.15132810943E+04  0.91039803399E+02 0.  0.
          4    1    3    3  502    0 -0.22769920556E+03 -0.23121758668E+03  0.30321785782E+02  0.32592623598E+03  0.00000000000E+00 0. -1.
         -3    1    3    3    0  502 -0.34444539167E+03 -0.49227501086E+03  0.70562959892E+02  0.60494334071E+03  0.00000000000E+00 0.  1.
         11    1    5    5    0    0  0.15890145772E+03  0.16391908341E+03  0.13142263648E+03  0.26342180728E+03  0.00000000000E+00 0. -1.
        -11    1    5    5    0    0  0.37691193849E+03  0.23801527878E+03  0.33811596537E+03  0.55949645964E+03  0.00000000000E+00 0.  1.
          2    1    6    6  503    0  0.39284553252E+01  0.12643478426E+03  0.39199471295E+03  0.41189931102E+03  0.00000000000E+00 0.  1.
         -2    1    6    6    0  503  0.32402745705E+02  0.19512345109E+03  0.10834753036E+04  0.11013817833E+04  0.00000000000E+00 0. -1.
<mgrwt>
<rscale>  0 0.25471670E+04</rscale>
<asrwt>0</asrwt>
<pdfrwt beam="1">  1        2 0.40868940E+00 0.25471670E+04</pdfrwt>
<pdfrwt beam="2">  1       -1 0.93936584E-01 0.25471670E+04</pdfrwt>
<totfact> 0.31264893E+00</totfact>
</mgrwt>
</event>
<event>
12    6  0.1611689E-007  0.1283011E+04  0.7818608E-02  0.9043147E-01
          2   -1    0    0  501    0  0.00000000000E+00  0.00000000000E+00  0.10106126123E+04  0.10106126123E+04  0.00000000000E+00 0. -1.
         -1   -1    0    0    0  501 -0.00000000000E+00 -0.00000000000E+00 -0.40720788180E+03  0.40720788180E+03  0.00000000000E+00 0.  1.
         24    2    1    2    0    0  0.24673934248E+03 -0.58603601557E+02  0.36685050734E+03  0.45292744173E+03  0.79052435033E+02 0.  0.
        254    2    1    2    0    0 -0.24673934248E+03  0.58603601557E+02  0.23655422313E+03  0.96489305235E+03  0.90041435836E+03 0.  0.
         23    2    4    4    0    0 -0.48179293570E+03 -0.63716434895E+00  0.42200598089E+03  0.64682502454E+03  0.90381002455E+02 0.  0.
         23    2    4    4    0    0  0.23505359321E+03  0.59240765906E+02 -0.18545175775E+03  0.31806802781E+03  0.89527961167E+02 0.  0.
          4    1    3    3  502    0  0.19545190992E+03 -0.16919446334E+02  0.30344627064E+03  0.36134105208E+03  0.00000000000E+00 0. -1.
         -3    1    3    3    0  502  0.51287432562E+02 -0.41684155223E+02  0.63404236707E+02  0.91586389643E+02  0.00000000000E+00 0.  1.
         11    1    5    5    0    0 -0.38434303426E+03  0.32885430514E+02  0.35226298262E+03  0.52238896279E+03  0.00000000000E+00 0. -1.
        -11    1    5    5    0    0 -0.97449901438E+02 -0.33522594863E+02  0.69742998267E+02  0.12443606175E+03  0.00000000000E+00 0.  1.
          1    1    6    6  503    0  0.57994952767E+02  0.55300071075E+02 -0.44066683105E+02  0.91451544368E+02  0.00000000000E+00 0. -1.
         -1    1    6    6    0  503  0.17705864045E+03  0.39406948310E+01 -0.14138507465E+03  0.22661648344E+03  0.00000000000E+00 0.  1.
<mgrwt>
<rscale>  0 0.12830112E+04</rscale>
<asrwt>0</asrwt>
<pdfrwt beam="1">  1        2 0.15547886E+00 0.12830112E+04</pdfrwt>
<pdfrwt beam="2">  1       -1 0.62647367E-01 0.12830112E+04</pdfrwt>
<totfact> 0.71740992E+01</totfact>
</mgrwt>
</event>
<event>
12    6  0.1611689E-007  0.1308000E+04  0.7818608E-02  0.9023245E-01
         -1   -1    0    0    0  501 -0.00000000000E+00  0.00000000000E+00  0.13609691639E+03  0.13609691639E+03  0.00000000000E+00 0.  1.
          2   -1    0    0  501    0  0.00000000000E+00 -0.00000000000E+00 -0.31427320665E+04  0.31427320665E+04  0.00000000000E+00 0. -1.
         24    2    1    2    0    0  0.85932236406E+01  0.10187119307E+03 -0.15918649804E+04  0.15971618084E+04  0.80250500247E+02 0.  0.
        254    2    1    2    0    0 -0.85932236406E+01 -0.10187119307E+03 -0.14147701697E+04  0.16816671745E+04  0.90331515504E+03 0.  0.
         23    2    4    4    0    0 -0.82963334811E+02 -0.39478070283E+03 -0.12670217126E+04  0.13326923149E+04  0.89387178830E+02 0.  0.
         23    2    4    4    0    0  0.74370111170E+02  0.29290950976E+03 -0.14774845712E+03  0.34897485964E+03  0.92881385335E+02 0.  0.
          4    1    3    3  502    0  0.74752872182E+01  0.10952471785E+03 -0.11497216805E+04  0.11549508589E+04  0.00000000000E+00 0. -1.
         -3    1    3    3    0  502  0.11179364224E+01 -0.76535247770E+01 -0.44214329986E+03  0.44221094947E+03  0.00000000000E+00 0.  1.
         11    1    5    5    0    0 -0.28470779578E+02 -0.38276236832E+02 -0.22572151944E+03  0.23070730360E+03  0.00000000000E+00 0.  1.
        -11    1    5    5    0    0 -0.54492555233E+02 -0.35650446599E+03 -0.10413001931E+04  0.11019850113E+04  0.00000000000E+00 0. -1.
          1    1    6    6  503    0  0.58616245699E+02  0.28457819289E+03 -0.11657320016E+03  0.31306536557E+03  0.00000000000E+00 0. -1.
         -1    1    6    6    0  503  0.15753865472E+02  0.83313168702E+01 -0.31175256956E+02  0.35909494070E+02  0.00000000000E+00 0.  1.
<mgrwt>
<rscale>  0 0.13080002E+04</rscale>
<asrwt>0</asrwt>
<pdfrwt beam="1">  1        2 0.48349724E+00 0.13080002E+04</pdfrwt>
<pdfrwt beam="2">  1       -1 0.20937987E-01 0.13080002E+04</pdfrwt>
<totfact> 0.30257441E+01</totfact>
</mgrwt>
</event>
<event>
12    6  0.1611689E-007  0.1613024E+04  0.7818608E-02  0.8812587E-01
         -1   -1    0    0    0  501 -0.00000000000E+00  0.00000000000E+00  0.48190444811E+03  0.48190444811E+03  0.00000000000E+00 0.  1.
          2   -1    0    0  501    0  0.00000000000E+00 -0.00000000000E+00 -0.13497727180E+04  0.13497727180E+04  0.00000000000E+00 0. -1.
         24    2    1    2    0    0 -0.20289749879E+03 -0.16295092969E+02  0.27888932256E+03  0.35382401461E+03  0.77325636178E+02 0.  0.
        254    2    1    2    0    0  0.20289749879E+03  0.16295092969E+02 -0.11467575924E+04  0.14778531515E+04  0.90970546688E+03 0.  0.
         23    2    4    4    0    0  0.33118926539E+03  0.27975097007E+03 -0.20627181867E+03  0.48856592349E+03  0.90563036899E+02 0.  0.
         23    2    4    4    0    0 -0.12829176660E+03 -0.26345587710E+03 -0.94048577377E+03  0.98928722800E+03  0.91147969014E+02 0.  0.
          2    1    3    3  502    0 -0.38461710854E+02  0.49227715550E+01  0.11222992860E+03  0.11873960483E+03  0.00000000000E+00 0. -1.
         -1    1    3    3    0  502 -0.16443578793E+03 -0.21217864524E+02  0.16665939396E+03  0.23508440978E+03  0.00000000000E+00 0.  1.
         11    1    5    5    0    0  0.18922679443E+02  0.26228027441E+02  0.73027131555E+01  0.33155796479E+02  0.00000000000E+00 0. -1.
        -11    1    5    5    0    0  0.31226658595E+03  0.25352294263E+03 -0.21357453183E+03  0.45541012701E+03  0.00000000000E+00 0.  1.
          4    1    6    6  503    0 -0.43275227862E+02 -0.30522032785E+02 -0.10231774060E+03  0.11520963447E+03  0.00000000000E+00 0. -1.
         -4    1    6    6    0  503 -0.85016538741E+02 -0.23293384432E+03 -0.83816803317E+03  0.87407759353E+03  0.00000000000E+00 0.  1.
<mgrwt>
<rscale>  0 0.16130238E+04</rscale>
<asrwt>0</asrwt>
<pdfrwt beam="1">  1        2 0.20765734E+00 0.16130238E+04</pdfrwt>
<pdfrwt beam="2">  1       -1 0.74139145E-01 0.16130238E+04</pdfrwt>
<totfact> 0.30934744E+01</totfact>
</mgrwt>
</event>
<event>
12    6  0.1611689E-007  0.1743459E+04  0.7818608E-02  0.8736959E-01
         -1   -1    0    0    0  501 -0.00000000000E+00  0.00000000000E+00  0.47362922957E+03  0.47362922957E+03  0.00000000000E+00 0.  1.
          2   -1    0    0  501    0  0.00000000000E+00 -0.00000000000E+00 -0.16044464056E+04  0.16044464056E+04  0.00000000000E+00 0. -1.
         24    2    1    2    0    0 -0.62789302539E+03  0.12060994695E+03 -0.46389280998E+03  0.79367356546E+03  0.76972584281E+02 0.  0.
        254    2    1    2    0    0  0.62789302539E+03 -0.12060994695E+03 -0.66692436605E+03  0.12844020697E+04  0.89224669012E+03 0.  0.
         23    2    4    4    0    0  0.50423348506E+03 -0.42476566463E+03 -0.17841281671E+03  0.68893233172E+03  0.90107420461E+02 0.  0.
         23    2    4    4    0    0  0.12365954033E+03  0.30415571768E+03 -0.48851154934E+03  0.59546973799E+03  0.90212485320E+02 0.  0.
          2    1    3    3  502    0 -0.59559065663E+03  0.11070085861E+03 -0.41525719543E+03  0.73445316305E+03  0.00000000000E+00 0. -1.
         -1    1    3    3    0  502 -0.32302368759E+02  0.99090883423E+01 -0.48635614550E+02  0.59220402412E+02  0.00000000000E+00 0.  1.
         11    1    5    5    0    0  0.25089028976E+03 -0.26414903751E+03 -0.77636190780E+02  0.37248896579E+03  0.00000000000E+00 0.  1.
        -11    1    5    5    0    0  0.25334319530E+03 -0.16061662712E+03 -0.10077662593E+03  0.31644336594E+03  0.00000000000E+00 0. -1.
          2    1    6    6  503    0  0.63470601213E+02  0.25043947594E+03 -0.34758822539E+03  0.43308893170E+03  0.00000000000E+00 0. -1.
         -2    1    6    6    0  503  0.60188939113E+02  0.53716241740E+02 -0.14092332396E+03  0.16238080629E+03  0.00000000000E+00 0.  1.
<mgrwt>
<rscale>  0 0.17434595E+04</rscale>
<asrwt>0</asrwt>
<pdfrwt beam="1">  1        2 0.24683791E+00 0.17434595E+04</pdfrwt>
<pdfrwt beam="2">  1       -1 0.72866035E-01 0.17434595E+04</pdfrwt>
<totfact> 0.22747595E+01</totfact>
</mgrwt>
</event>
<event>
12    6  0.1611689E-007  0.2864223E+04  0.7818608E-02  0.8283602E-01
          2   -1    0    0  501    0  0.00000000000E+00  0.00000000000E+00  0.20247871093E+04  0.20247871093E+04  0.00000000000E+00 0. -1.
         -1   -1    0    0    0  501 -0.00000000000E+00 -0.00000000000E+00 -0.10129183026E+04  0.10129183026E+04  0.00000000000E+00 0.  1.
         24    2    1    2    0    0  0.32993049186E+03 -0.88240015403E+03  0.13962213273E+04  0.16861011457E+04  0.77581683659E+02 0.  0.
        254    2    1    2    0    0 -0.32993049186E+03  0.88240015403E+03 -0.38435252055E+03  0.13516042662E+04  0.88973202203E+03 0.  0.
         23    2    4    4    0    0 -0.62155188972E+03  0.55907507908E+03 -0.33062863305E+03  0.90341320080E+03  0.89153927144E+02 0.  0.
         23    2    4    4    0    0  0.29162139785E+03  0.32332507495E+03 -0.53723887504E+02  0.44819106538E+03  0.91688773720E+02 0.  0.
          4    1    3    3  502    0  0.33102713849E+03 -0.88027689958E+03  0.13817657138E+04  0.16714493334E+04  0.00000000000E+00 0. -1.
         -3    1    3    3    0  502 -0.10966466262E+01 -0.21232544496E+01  0.14455613503E+02  0.14651812346E+02  0.00000000000E+00 0.  1.
         11    1    5    5    0    0 -0.59336320066E+03  0.50263165926E+03 -0.30462554528E+03  0.83517375176E+03  0.00000000000E+00 0. -1.
        -11    1    5    5    0    0 -0.28188689052E+02  0.56443419815E+02 -0.26003087774E+02  0.68239449035E+02  0.00000000000E+00 0.  1.
          3    1    6    6  503    0  0.23355239976E+03  0.26716345391E+03 -0.79001779453E+02  0.36354410420E+03  0.00000000000E+00 0. -1.
         -3    1    6    6    0  503  0.58068998093E+02  0.56161621037E+02  0.25277891949E+02  0.84646961188E+02  0.00000000000E+00 0.  1.
<mgrwt>
<rscale>  0 0.28642234E+04</rscale>
<asrwt>0</asrwt>
<pdfrwt beam="1">  1        2 0.31150571E+00 0.28642234E+04</pdfrwt>
<pdfrwt beam="2">  1       -1 0.15583359E+00 0.28642234E+04</pdfrwt>
<totfact> 0.20039110E+00</totfact>
</mgrwt>
</event>
<event>
12    6  0.1611689E-007  0.1393890E+04  0.7818608E-02  0.8958253E-01
         -1   -1    0    0    0  501 -0.00000000000E+00  0.00000000000E+00  0.35243654673E+03  0.35243654673E+03  0.00000000000E+00 0.  1.
          2   -1    0    0  501    0  0.00000000000E+00 -0.00000000000E+00 -0.13782126697E+04  0.13782126697E+04  0.00000000000E+00 0. -1.
         24    2    1    2    0    0 -0.34868610832E+03 -0.13654229848E+03 -0.18187211869E+03  0.42418946273E+03  0.81445879711E+02 0.  0.
        254    2    1    2    0    0  0.34868610832E+03  0.13654229848E+03 -0.84390400427E+03  0.13064597537E+04  0.92435778688E+03 0.  0.
         23    2    4    4    0    0  0.60958540643E+03  0.30096765444E+02 -0.29782066339E+03  0.68537437221E+03  0.92415905137E+02 0.  0.
         23    2    4    4    0    0 -0.26089929811E+03  0.10644553304E+03 -0.54608334088E+03  0.62108538147E+03  0.90227161316E+02 0.  0.
          2    1    3    3  502    0 -0.13389444893E+03 -0.32864257919E+02 -0.28965439165E+02  0.14087859869E+03  0.00000000000E+00 0. -1.
         -1    1    3    3    0  502 -0.21479165939E+03 -0.10367804056E+03 -0.15290667953E+03  0.28331086404E+03  0.00000000000E+00 0.  1.
         11    1    5    5    0    0  0.10884620992E+03 -0.25674616667E+02 -0.35449430886E+02  0.11731728562E+03  0.00000000000E+00 0. -1.
        -11    1    5    5    0    0  0.50073919651E+03  0.55771382111E+02 -0.26237123251E+03  0.56805708660E+03  0.00000000000E+00 0.  1.
          1    1    6    6  503    0 -0.23024973428E+03  0.56193492264E+02 -0.43640789683E+03  0.49661302955E+03  0.00000000000E+00 0.  1.
         -1    1    6    6    0  503 -0.30649563825E+02  0.50252040774E+02 -0.10967544405E+03  0.12447235192E+03  0.00000000000E+00 0. -1.
<mgrwt>
<rscale>  0 0.13938903E+04</rscale>
<asrwt>0</asrwt>
<pdfrwt beam="1">  1        2 0.21203272E+00 0.13938903E+04</pdfrwt>
<pdfrwt beam="2">  1       -1 0.54221006E-01 0.13938903E+04</pdfrwt>
<totfact> 0.56767025E+01</totfact>
</mgrwt>
</event>
<event>
12    6  0.1611689E-007  0.1792951E+04  0.7818608E-02  0.8710057E-01
         -1   -1    0    0    0  501 -0.00000000000E+00  0.00000000000E+00  0.46291865038E+03  0.46291865038E+03  0.00000000000E+00 0.  1.
          2   -1    0    0  501    0  0.00000000000E+00 -0.00000000000E+00 -0.17360903791E+04  0.17360903791E+04  0.00000000000E+00 0. -1.
         24    2    1    2    0    0  0.34146380557E+03  0.55366136456E+03 -0.30638522609E+03  0.72346581656E+03  0.79952760105E+02 0.  0.
        254    2    1    2    0    0 -0.34146380557E+03 -0.55366136456E+03 -0.96678650266E+03  0.14755432129E+04  0.90521444665E+03 0.  0.
         23    2    4    4    0    0 -0.45990281060E+03  0.67449179705E+02 -0.36453062378E+03  0.59753429015E+03  0.90025913991E+02 0.  0.
         23    2    4    4    0    0  0.11843900504E+03 -0.62111054427E+03 -0.60225587887E+03  0.87800892279E+03  0.91550088727E+02 0.  0.
          2    1    3    3  502    0  0.16680198436E+03  0.24901947857E+03 -0.99049788459E+02  0.31566511256E+03  0.00000000000E+00 0. -1.
         -1    1    3    3    0  502  0.17466182120E+03  0.30464188599E+03 -0.20733543763E+03  0.40780070400E+03  0.00000000000E+00 0.  1.
         11    1    5    5    0    0 -0.15879588013E+03  0.50213442146E+02 -0.17364289926E+03  0.24060211508E+03  0.00000000000E+00 0. -1.
        -11    1    5    5    0    0 -0.30110693047E+03  0.17235737559E+02 -0.19088772453E+03  0.35693217507E+03  0.00000000000E+00 0.  1.
          1    1    6    6  503    0 -0.17739127052E+01 -0.19000981280E+03 -0.20590734250E+03  0.28018691872E+03  0.00000000000E+00 0. -1.
         -1    1    6    6    0  503  0.12021291774E+03 -0.43110073147E+03 -0.39634853637E+03  0.59782200407E+03  0.00000000000E+00 0.  1.
<mgrwt>
<rscale>  0 0.17929513E+04</rscale>
<asrwt>0</asrwt>
<pdfrwt beam="1">  1        2 0.26709083E+00 0.17929513E+04</pdfrwt>
<pdfrwt beam="2">  1       -1 0.71218254E-01 0.17929513E+04</pdfrwt>
<totfact> 0.20059619E+01</totfact>
</mgrwt>
</event>
<event>
12    6  0.1611689E-007  0.1548687E+04  0.7818608E-02  0.8852707E-01
         -1   -1    0    0    0  501 -0.00000000000E+00  0.00000000000E+00  0.35575004631E+03  0.35575004631E+03  0.00000000000E+00 0.  1.
          2   -1    0    0  501    0  0.00000000000E+00 -0.00000000000E+00 -0.16854754892E+04  0.16854754892E+04  0.00000000000E+00 0. -1.
         24    2    1    2    0    0  0.45971387349E+03  0.24248311124E+02 -0.10195779976E+04  0.11215419361E+04  0.79951204778E+02 0.  0.
        254    2    1    2    0    0 -0.45971387349E+03 -0.24248311124E+02 -0.31014744527E+03  0.91968359939E+03  0.73328143241E+03 0.  0.
         23    2    4    4    0    0 -0.30432867755E+03  0.46372708216E+02 -0.53405800136E+03  0.62365092774E+03  0.94636984375E+02 0.  0.
         23    2    4    4    0    0 -0.15538519594E+03 -0.70621019340E+02  0.22391055609E+03  0.29603267165E+03  0.91474138776E+02 0.  0.
          2    1    3    3  502    0  0.45364419317E+03  0.16785509055E+02 -0.10124703361E+04  0.11095814476E+04  0.00000000000E+00 0. -1.
         -1    1    3    3    0  502  0.60696803205E+01  0.74628020689E+01 -0.71076615408E+01  0.11960488556E+02  0.00000000000E+00 0.  1.
         11    1    5    5    0    0 -0.83593864547E+02  0.45199816700E+02 -0.22130290087E+03  0.24084420598E+03  0.00000000000E+00 0. -1.
        -11    1    5    5    0    0 -0.22073481300E+03  0.11728915159E+01 -0.31275510049E+03  0.38280672177E+03  0.00000000000E+00 0.  1.
          2    1    6    6  503    0 -0.12964591472E+02 -0.30581366358E+02  0.92036745562E+02  0.97847141675E+02  0.00000000000E+00 0.  1.
         -2    1    6    6    0  503 -0.14242060446E+03 -0.40039652981E+02  0.13187381053E+03  0.19818552997E+03  0.00000000000E+00 0. -1.
<mgrwt>
<rscale>  0 0.15486872E+04</rscale>
<asrwt>0</asrwt>
<pdfrwt beam="1">  1        2 0.25930393E+00 0.15486872E+04</pdfrwt>
<pdfrwt beam="2">  1       -1 0.54730775E-01 0.15486872E+04</pdfrwt>
<totfact> 0.36959155E+01</totfact>
</mgrwt>
</event>
<event>
12    6  0.1611689E-007  0.1731490E+04  0.7818608E-02  0.8743606E-01
          2   -1    0    0  501    0  0.00000000000E+00  0.00000000000E+00  0.12946569613E+04  0.12946569613E+04  0.00000000000E+00 0. -1.
         -1   -1    0    0    0  501 -0.00000000000E+00 -0.00000000000E+00 -0.57892892667E+03  0.57892892667E+03  0.00000000000E+00 0.  1.
         24    2    1    2    0    0 -0.79300186021E+02 -0.41608259609E+03  0.76688174705E+03  0.87955553192E+03  0.78083759507E+02 0.  0.
        254    2    1    2    0    0  0.79300186021E+02  0.41608259609E+03 -0.51153712377E+02  0.99403035609E+03  0.89781200720E+03 0.  0.
         23    2    4    4    0    0  0.24523938548E+03 -0.18626501841E+03 -0.15041202247E+03  0.35491450133E+03  0.92214497109E+02 0.  0.
         23    2    4    4    0    0 -0.16593919946E+03  0.60234761450E+03  0.99258310089E+02  0.63911585477E+03  0.90875723284E+02 0.  0.
          4    1    3    3  502    0 -0.47180999246E+02 -0.30396518915E+03  0.48280184466E+03  0.57246703321E+03  0.00000000000E+00 0. -1.
         -3    1    3    3    0  502 -0.32119186775E+02 -0.11211740694E+03  0.28407990239E+03  0.30708849871E+03  0.00000000000E+00 0.  1.
         11    1    5    5    0    0  0.20516041284E+03 -0.16585463102E+03 -0.16052448765E+03  0.30881493611E+03  0.00000000000E+00 0. -1.
        -11    1    5    5    0    0  0.40078972636E+02 -0.20410387389E+02  0.10112465189E+02  0.46099565216E+02  0.00000000000E+00 0.  1.
          1    1    6    6  503    0 -0.11826499120E+03  0.49341478176E+03  0.11175808081E+03  0.51955233002E+03  0.00000000000E+00 0. -1.
         -1    1    6    6    0  503 -0.47674208258E+02  0.10893283274E+03 -0.12499770723E+02  0.11956352475E+03  0.00000000000E+00 0.  1.
<mgrwt>
<rscale>  0 0.17314900E+04</rscale>
<asrwt>0</asrwt>
<pdfrwt beam="1">  1        2 0.19917799E+00 0.17314900E+04</pdfrwt>
<pdfrwt beam="2">  1       -1 0.89065989E-01 0.17314900E+04</pdfrwt>
<totfact> 0.22272733E+01</totfact>
</mgrwt>
</event>
<event>
12    6  0.1611689E-007  0.2323905E+04  0.7818608E-02  0.8468555E-01
          2   -1    0    0  501    0  0.00000000000E+00  0.00000000000E+00  0.11207044784E+04  0.11207044784E+04  0.00000000000E+00 0. -1.
         -1   -1    0    0    0  501 -0.00000000000E+00 -0.00000000000E+00 -0.12047187542E+04  0.12047187542E+04  0.00000000000E+00 0.  1.
         24    2    1    2    0    0 -0.13871377925E+03  0.88292776682E+02 -0.10106945663E+04  0.10270777932E+04  0.79675340245E+02 0.  0.
        254    2    1    2    0    0  0.13871377925E+03 -0.88292776682E+02  0.92668029047E+03  0.12983454394E+04  0.89438660114E+03 0.  0.
         23    2    4    4    0    0 -0.26999456242E+03 -0.28986260186E+03  0.62053763746E+03  0.74172610043E+03  0.90406066525E+02 0.  0.
         23    2    4    4    0    0  0.40870834167E+03  0.20156982518E+03  0.30614265301E+03  0.55661933897E+03  0.91808831535E+02 0.  0.
          4    1    3    3  502    0 -0.88435004756E+02  0.88781243890E+02 -0.57529303630E+03  0.58878258886E+03  0.00000000000E+00 0. -1.
         -3    1    3    3    0  502 -0.50278774497E+02 -0.48846720833E+00 -0.43540153005E+03  0.43829520432E+03  0.00000000000E+00 0.  1.
         11    1    5    5    0    0 -0.14994314178E+03 -0.13656729372E+03  0.39303173771E+03  0.44227538743E+03  0.00000000000E+00 0. -1.
        -11    1    5    5    0    0 -0.12005142064E+03 -0.15329530814E+03  0.22750589976E+03  0.29945071301E+03  0.00000000000E+00 0.  1.
          1    1    6    6  503    0  0.24124304655E+03  0.11610040969E+03  0.12474120432E+03  0.29536059434E+03  0.00000000000E+00 0. -1.
         -1    1    6    6    0  503  0.16746529513E+03  0.85469415493E+02  0.18140144869E+03  0.26125874462E+03  0.00000000000E+00 0.  1.
<mgrwt>
<rscale>  0 0.23239051E+04</rscale>
<asrwt>0</asrwt>
<pdfrwt beam="1">  1        2 0.17241607E+00 0.23239051E+04</pdfrwt>
<pdfrwt beam="2">  1       -1 0.18534135E+00 0.23239051E+04</pdfrwt>
<totfact> 0.41597579E+00</totfact>
</mgrwt>
</event>
<event>
12    6  0.1611689E-007  0.2448523E+04  0.7818608E-02  0.8421557E-01
          2   -1    0    0  501    0  0.00000000000E+00  0.00000000000E+00  0.48473667628E+04  0.48473667628E+04  0.00000000000E+00 0. -1.
         -1   -1    0    0    0  501 -0.00000000000E+00 -0.00000000000E+00 -0.30920214173E+03  0.30920214173E+03  0.00000000000E+00 0.  1.
         24    2    1    2    0    0 -0.82861513501E+02  0.44864017123E+03 -0.46901935840E+02  0.46513767378E+03  0.77519225547E+02 0.  0.
        254    2    1    2    0    0  0.82861513501E+02 -0.44864017123E+03  0.45850665569E+04  0.46914312308E+04  0.88235345970E+03 0.  0.
         23    2    4    4    0    0  0.43180693254E+03 -0.20777851718E+03  0.32847402806E+04  0.33207385584E+04  0.90314577235E+02 0.  0.
         23    2    4    4    0    0 -0.34894541904E+03 -0.24086165405E+03  0.13003262763E+04  0.13706926724E+04  0.90403182336E+02 0.  0.
          2    1    3    3  502    0  0.59828266914E+01  0.68803322579E+02  0.13587047514E+02  0.70386783371E+02  0.00000000000E+00 0. -1.
         -1    1    3    3    0  502 -0.88844340192E+02  0.37983684865E+03 -0.60488983354E+02  0.39475089041E+03  0.00000000000E+00 0.  1.
         11    1    5    5    0    0  0.20993540826E+03 -0.13565753556E+03  0.19199216587E+04  0.19361237094E+04  0.00000000000E+00 0. -1.
        -11    1    5    5    0    0  0.22187152428E+03 -0.72120981618E+02  0.13648186219E+04  0.13846148490E+04  0.00000000000E+00 0.  1.
          3    1    6    6  503    0 -0.27212508537E+03 -0.17752279050E+03  0.86199738416E+03  0.92119807508E+03  0.00000000000E+00 0. -1.
         -3    1    6    6    0  503 -0.76820333668E+02 -0.63338863550E+02  0.43832889218E+03  0.44949459732E+03  0.00000000000E+00 0.  1.
<mgrwt>
<rscale>  0 0.24485230E+04</rscale>
<asrwt>0</asrwt>
<pdfrwt beam="1">  1        2 0.74574868E+00 0.24485230E+04</pdfrwt>
<pdfrwt beam="2">  1       -1 0.47569564E-01 0.24485230E+04</pdfrwt>
<totfact> 0.23841290E-01</totfact>
</mgrwt>
</event>
<event>
12    6  0.1611689E-007  0.1901805E+04  0.7818608E-02  0.8653958E-01
          2   -1    0    0  501    0  0.00000000000E+00  0.00000000000E+00  0.11211172798E+04  0.11211172798E+04  0.00000000000E+00 0. -1.
         -1   -1    0    0    0  501 -0.00000000000E+00 -0.00000000000E+00 -0.80653111595E+03  0.80653111595E+03  0.00000000000E+00 0.  1.
         24    2    1    2    0    0  0.28376954681E+03  0.26848239044E+03  0.75083018327E+03  0.85010503354E+03  0.79527695007E+02 0.  0.
        254    2    1    2    0    0 -0.28376954681E+03 -0.26848239044E+03 -0.43624401938E+03  0.10775433622E+04  0.90453463361E+03 0.  0.
         23    2    4    4    0    0  0.24437013734E+03 -0.29921761291E+03 -0.21055706176E+02  0.39927528926E+03  0.98638075543E+02 0.  0.
         23    2    4    4    0    0 -0.52813968415E+03  0.30735222477E+02 -0.41518831321E+03  0.67826807298E+03  0.88261336530E+02 0.  0.
          4    1    3    3  502    0  0.21471336310E+03  0.22504017952E+03  0.64849518383E+03  0.71922938910E+03  0.00000000000E+00 0. -1.
         -3    1    3    3    0  502  0.69056183713E+02  0.43442210915E+02  0.10233499944E+03  0.13087564444E+03  0.00000000000E+00 0.  1.
         11    1    5    5    0    0  0.14473159943E+03 -0.17469150277E+03 -0.60902830024E+02  0.23489042491E+03  0.00000000000E+00 0.  1.
        -11    1    5    5    0    0  0.99638537917E+02 -0.12452611015E+03  0.39847123848E+02  0.16438486434E+03  0.00000000000E+00 0. -1.
          4    1    6    6  503    0 -0.30118351347E+03 -0.25675780671E+02 -0.22470636968E+03  0.37664798828E+03  0.00000000000E+00 0. -1.
         -4    1    6    6    0  503 -0.22695617068E+03  0.56411003148E+02 -0.19048194353E+03  0.30162008471E+03  0.00000000000E+00 0.  1.
<mgrwt>
<rscale>  0 0.19018054E+04</rscale>
<asrwt>0</asrwt>
<pdfrwt beam="1">  1        2 0.17247958E+00 0.19018054E+04</pdfrwt>
<pdfrwt beam="2">  1       -1 0.12408171E+00 0.19018054E+04</pdfrwt>
<totfact> 0.12871883E+01</totfact>
</mgrwt>
</event>
<event>
12    6  0.1611689E-007  0.2470919E+04  0.7818608E-02  0.8413419E-01
          2   -1    0    0  501    0  0.00000000000E+00  0.00000000000E+00  0.10062471705E+04  0.10062471705E+04  0.00000000000E+00 0. -1.
         -1   -1    0    0    0  501 -0.00000000000E+00 -0.00000000000E+00 -0.15168844146E+04  0.15168844146E+04  0.00000000000E+00 0.  1.
         24    2    1    2    0    0  0.35805929620E+03 -0.44254893308E+03  0.70591169071E+03  0.91038832372E+03  0.80246913424E+02 0.  0.
        254    2    1    2    0    0 -0.35805929620E+03  0.44254893308E+03 -0.12165489348E+04  0.16127432614E+04  0.89268891485E+03 0.  0.
         23    2    4    4    0    0 -0.81311930744E+02 -0.22529971937E+03 -0.61971433430E+03  0.67080388784E+03  0.92522463069E+02 0.  0.
         23    2    4    4    0    0 -0.27674736545E+03  0.66784865244E+03 -0.59683460047E+03  0.94193937355E+03  0.91800415403E+02 0.  0.
          4    1    3    3  502    0  0.36248478593E+03 -0.43792531446E+03  0.69838007130E+03  0.90050459469E+03  0.00000000000E+00 0. -1.
         -1    1    3    3    0  502 -0.44254897288E+01 -0.46236186204E+01  0.75316194181E+01  0.98837290304E+01  0.00000000000E+00 0.  1.
         11    1    5    5    0    0 -0.85941058594E+00 -0.86915178241E+02 -0.31283631433E+03  0.32468684352E+03  0.00000000000E+00 0. -1.
        -11    1    5    5    0    0 -0.80452520158E+02 -0.13838454113E+03 -0.30687801998E+03  0.34611704432E+03  0.00000000000E+00 0.  1.
          3    1    6    6  503    0 -0.24066783173E+03  0.63769868315E+03 -0.56214946748E+03  0.88351153898E+03  0.00000000000E+00 0. -1.
         -3    1    6    6    0  503 -0.36079533723E+02  0.30149969295E+02 -0.34685132990E+02  0.58427834572E+02  0.00000000000E+00 0.  1.
<mgrwt>
<rscale>  0 0.24709194E+04</rscale>
<asrwt>0</asrwt>
<pdfrwt beam="1">  1        2 0.15480726E+00 0.24709194E+04</pdfrwt>
<pdfrwt beam="2">  1       -1 0.23336683E+00 0.24709194E+04</pdfrwt>
<totfact> 0.22808173E+00</totfact>
</mgrwt>
</event>
<event>
12    6  0.1611689E-007  0.1943438E+04  0.7818608E-02  0.8633532E-01
          2   -1    0    0  501    0  0.00000000000E+00  0.00000000000E+00  0.23638846378E+04  0.23638846378E+04  0.00000000000E+00 0. -1.
         -1   -1    0    0    0  501 -0.00000000000E+00 -0.00000000000E+00 -0.39944313061E+03  0.39944313061E+03  0.00000000000E+00 0.  1.
         24    2    1    2    0    0  0.38383997281E+03  0.53718138685E+03  0.13136568398E+04  0.14717348801E+04  0.66425125624E+02 0.  0.
        254    2    1    2    0    0 -0.38383997281E+03 -0.53718138685E+03  0.65078466732E+03  0.12915928883E+04  0.89933004996E+03 0.  0.
         23    2    4    4    0    0 -0.65613131375E+03 -0.41660483411E+03  0.34644898123E+03  0.85548761738E+03  0.88115141754E+02 0.  0.
         23    2    4    4    0    0  0.27229134094E+03 -0.12057655274E+03  0.30433568609E+03  0.43610527092E+03  0.94267269365E+02 0.  0.
          4    1    3    3  502    0  0.35818858630E+03  0.46505380752E+03  0.11614936262E+04  0.13013998428E+04  0.00000000000E+00 0. -1.
         -3    1    3    3    0  502  0.25651386519E+02  0.72127579335E+02  0.15216321368E+03  0.17033503729E+03  0.00000000000E+00 0.  1.
         11    1    5    5    0    0 -0.58707644310E+03 -0.38260680107E+03  0.28299372989E+03  0.75573286645E+03  0.00000000000E+00 0. -1.
        -11    1    5    5    0    0 -0.69054870649E+02 -0.33998033040E+02  0.63455251344E+02  0.99754750935E+02  0.00000000000E+00 0.  1.
          3    1    6    6  503    0  0.25411644748E+03 -0.85205658546E+02  0.28710650899E+03  0.39276624172E+03  0.00000000000E+00 0. -1.
         -3    1    6    6    0  503  0.18174893457E+02 -0.35370894195E+02  0.17229177095E+02  0.43339029197E+02  0.00000000000E+00 0.  1.
<mgrwt>
<rscale>  0 0.19434377E+04</rscale>
<asrwt>0</asrwt>
<pdfrwt beam="1">  1        2 0.36367455E+00 0.19434377E+04</pdfrwt>
<pdfrwt beam="2">  1       -1 0.61452791E-01 0.19434377E+04</pdfrwt>
<totfact> 0.11902099E+01</totfact>
</mgrwt>
</event>
<event>
12    6  0.1611689E-007  0.1565319E+04  0.7818608E-02  0.8842141E-01
         -1   -1    0    0    0  501 -0.00000000000E+00  0.00000000000E+00  0.70348874156E+03  0.70348874156E+03  0.00000000000E+00 0.  1.
          2   -1    0    0  501    0  0.00000000000E+00 -0.00000000000E+00 -0.87074062548E+03  0.87074062548E+03  0.00000000000E+00 0. -1.
         24    2    1    2    0    0 -0.13248736617E+03  0.17305739818E+03  0.41988065086E+03  0.47909214736E+03  0.75681962479E+02 0.  0.
        254    2    1    2    0    0  0.13248736617E+03 -0.17305739818E+03 -0.58713253477E+03  0.10951372197E+04  0.89838697189E+03 0.  0.
         23    2    4    4    0    0 -0.31654207614E+03 -0.20602570145E+02  0.59813519911E+01  0.33017066758E+03  0.91397709453E+02 0.  0.
         23    2    4    4    0    0  0.44902944231E+03 -0.15245482803E+03 -0.59311388677E+03  0.76496655209E+03  0.92302917010E+02 0.  0.
          2    1    3    3  502    0 -0.93935953235E+01  0.66198151241E+02  0.10412307251E+03  0.12374186474E+03  0.00000000000E+00 0. -1.
         -1    1    3    3    0  502 -0.12309377085E+03  0.10685924694E+03  0.31575757835E+03  0.35535028263E+03  0.00000000000E+00 0.  1.
         11    1    5    5    0    0 -0.25662176212E+02 -0.16434981480E+02 -0.22485333633E+02  0.37871442180E+02  0.00000000000E+00 0. -1.
        -11    1    5    5    0    0 -0.29087989993E+03 -0.41675886653E+01  0.28466685625E+02  0.29229922540E+03  0.00000000000E+00 0.  1.
          1    1    6    6  503    0  0.12622547687E+03 -0.28855707168E+02 -0.10418745670E+03  0.16619431092E+03  0.00000000000E+00 0. -1.
         -1    1    6    6    0  503  0.32280396544E+03 -0.12359912086E+03 -0.48892643006E+03  0.59877224117E+03  0.00000000000E+00 0.  1.
<mgrwt>
<rscale>  0 0.15653194E+04</rscale>
<asrwt>0</asrwt>
<pdfrwt beam="1">  1        2 0.13396010E+00 0.15653194E+04</pdfrwt>
<pdfrwt beam="2">  1       -1 0.10822904E+00 0.15653194E+04</pdfrwt>
<totfact> 0.26727666E+01</totfact>
</mgrwt>
</event>
<event>
12    6  0.1611689E-007  0.1258640E+04  0.7818608E-02  0.9063023E-01
         -1   -1    0    0    0  501 -0.00000000000E+00  0.00000000000E+00  0.91875795991E+02  0.91875795991E+02  0.00000000000E+00 0.  1.
          2   -1    0    0  501    0  0.00000000000E+00 -0.00000000000E+00 -0.43106409292E+04  0.43106409292E+04  0.00000000000E+00 0. -1.
         24    2    1    2    0    0  0.14138849405E+03 -0.35628498666E+03 -0.94904670809E+03  0.10266609773E+04  0.80083770128E+02 0.  0.
        254    2    1    2    0    0 -0.14138849405E+03  0.35628498666E+03 -0.32697184251E+04  0.33758557478E+04  0.74727086985E+03 0.  0.
         23    2    4    4    0    0  0.11263061498E+03 -0.17534506547E+03 -0.12227048160E+04  0.12437117257E+04  0.91543662374E+02 0.  0.
         23    2    4    4    0    0 -0.25401910903E+03  0.53163005213E+03 -0.20470136091E+04  0.21321440221E+04  0.92828849823E+02 0.  0.
          2    1    3    3  502    0  0.19269510187E+02 -0.23658998842E+02 -0.35545796440E+02  0.46846194014E+02  0.00000000000E+00 0. -1.
         -1    1    3    3    0  502  0.12211898386E+03 -0.33262598781E+03 -0.91350091165E+03  0.97981478330E+03  0.00000000000E+00 0.  1.
         11    1    5    5    0    0  0.62898347544E+02 -0.45915514821E+02 -0.27126733849E+03  0.28222403434E+03  0.00000000000E+00 0. -1.
        -11    1    5    5    0    0  0.49732267431E+02 -0.12942955065E+03 -0.95143747753E+03  0.96148769137E+03  0.00000000000E+00 0.  1.
          3    1    6    6  503    0 -0.69627768188E+02  0.89705121651E+02 -0.49911877011E+03  0.51187359927E+03  0.00000000000E+00 0. -1.
         -3    1    6    6    0  503 -0.18439134084E+03  0.44192493048E+03 -0.15478948390E+04  0.16202704229E+04  0.00000000000E+00 0.  1.
<mgrwt>
<rscale>  0 0.12586398E+04</rscale>
<asrwt>0</asrwt>
<pdfrwt beam="1">  1        2 0.66317572E+00 0.12586398E+04</pdfrwt>
<pdfrwt beam="2">  1       -1 0.14134734E-01 0.12586398E+04</pdfrwt>
<totfact> 0.78792190E+00</totfact>
</mgrwt>
</event>
<event>
12    6  0.1611689E-007  0.1677304E+04  0.7818608E-02  0.8774416E-01
          2   -1    0    0  501    0  0.00000000000E+00  0.00000000000E+00  0.14940379507E+04  0.14940379507E+04  0.00000000000E+00 0. -1.
         -1   -1    0    0    0  501 -0.00000000000E+00 -0.00000000000E+00 -0.47076251705E+03  0.47076251705E+03  0.00000000000E+00 0.  1.
         24    2    1    2    0    0  0.95864338837E+02 -0.16424587517E+03  0.10167840283E+04  0.10378852689E+04  0.84790283953E+02 0.  0.
        254    2    1    2    0    0 -0.95864338837E+02  0.16424587517E+03  0.64914053348E+01  0.92691519883E+03  0.90717306425E+03 0.  0.
         23    2    4    4    0    0  0.93210036521E+02  0.39877808491E+03 -0.27878127453E+03  0.50311809898E+03  0.87731126620E+02 0.  0.
         23    2    4    4    0    0 -0.18907437536E+03 -0.23453220974E+03  0.28527267987E+03  0.42379709985E+03  0.86423394624E+02 0.  0.
          4    1    3    3  502    0  0.83948764862E+02 -0.17375656444E+03  0.94114104202E+03  0.96072118733E+03  0.00000000000E+00 0. -1.
         -3    1    3    3    0  502  0.11915573975E+02  0.95106892715E+01  0.75642986273E+02  0.77164081578E+02  0.00000000000E+00 0.  1.
         11    1    5    5    0    0 -0.12119035047E+02  0.11377395635E+03 -0.64871256850E+02  0.13152818755E+03  0.00000000000E+00 0. -1.
        -11    1    5    5    0    0  0.10532907157E+03  0.28500412856E+03 -0.21391001768E+03  0.37158991143E+03  0.00000000000E+00 0.  1.
          1    1    6    6  503    0 -0.28483939050E+02 -0.16503386093E+02  0.71788023886E+02  0.78976052762E+02  0.00000000000E+00 0. -1.
         -1    1    6    6    0  503 -0.16059043631E+03 -0.21802882365E+03  0.21348465598E+03  0.34482104709E+03  0.00000000000E+00 0.  1.
<mgrwt>
<rscale>  0 0.16773039E+04</rscale>
<asrwt>0</asrwt>
<pdfrwt beam="1">  1        2 0.22985199E+00 0.16773039E+04</pdfrwt>
<pdfrwt beam="2">  1       -1 0.72425003E-01 0.16773039E+04</pdfrwt>
<totfact> 0.26721706E+01</totfact>
</mgrwt>
</event>
<event>
12    6  0.1611689E-007  0.1278406E+04  0.7818608E-02  0.9046867E-01
         -1   -1    0    0    0  501 -0.00000000000E+00  0.00000000000E+00  0.50928162663E+03  0.50928162663E+03  0.00000000000E+00 0.  1.
          2   -1    0    0  501    0  0.00000000000E+00 -0.00000000000E+00 -0.80226858331E+03  0.80226858331E+03  0.00000000000E+00 0. -1.
         24    2    1    2    0    0 -0.16798366088E+03  0.13557458133E+03 -0.30567899227E+03  0.38261704992E+03  0.79731945585E+02 0.  0.
        254    2    1    2    0    0  0.16798366088E+03 -0.13557458133E+03  0.12692035594E+02  0.92893316002E+03  0.90341394200E+03 0.  0.
         23    2    4    4    0    0  0.25763220387E+03  0.30328828381E+03  0.17167422728E+03  0.44496116967E+03  0.10079814798E+03 0.  0.
         23    2    4    4    0    0 -0.89648542986E+02 -0.43886286514E+03 -0.15898219168E+03  0.48397199035E+03  0.91192513477E+02 0.  0.
          4    1    3    3  502    0 -0.95058420055E+02  0.34976338622E+02 -0.17569372256E+03  0.20279973282E+03  0.00000000000E+00 0. -1.
         -3    1    3    3    0  502 -0.72925240827E+02  0.10059824270E+03 -0.12998526972E+03  0.17981731710E+03  0.00000000000E+00 0.  1.
         11    1    5    5    0    0  0.25658094820E+03  0.26667221362E+03  0.17255958293E+03  0.40831931397E+03  0.00000000000E+00 0.  1.
        -11    1    5    5    0    0  0.10512556657E+01  0.36616070195E+02 -0.88535565167E+00  0.36641855707E+02  0.00000000000E+00 0. -1.
          2    1    6    6  503    0 -0.10010559833E+03 -0.27456977317E+03 -0.94152685943E+02  0.30704139692E+03  0.00000000000E+00 0. -1.
         -2    1    6    6    0  503  0.10457055345E+02 -0.16429309197E+03 -0.64829505740E+02  0.17693059343E+03  0.00000000000E+00 0.  1.
<mgrwt>
<rscale>  0 0.12784063E+04</rscale>
<asrwt>0</asrwt>
<pdfrwt beam="1">  1        2 0.12342594E+00 0.12784063E+04</pdfrwt>
<pdfrwt beam="2">  1       -1 0.78351020E-01 0.12784063E+04</pdfrwt>
<totfact> 0.62732309E+01</totfact>
</mgrwt>
</event>
<event>
12    6  0.1611689E-007  0.2232927E+04  0.7818608E-02  0.8504847E-01
          2   -1    0    0  501    0  0.00000000000E+00  0.00000000000E+00  0.12565600761E+04  0.12565600761E+04  0.00000000000E+00 0. -1.
         -1   -1    0    0    0  501 -0.00000000000E+00 -0.00000000000E+00 -0.99198674885E+03  0.99198674885E+03  0.00000000000E+00 0.  1.
         24    2    1    2    0    0 -0.51812460471E+02 -0.87615572533E+03  0.44131640629E+03  0.98571418807E+03  0.80863489972E+02 0.  0.
        254    2    1    2    0    0  0.51812460471E+02  0.87615572533E+03 -0.17674307904E+03  0.12628326369E+04  0.89060359683E+03 0.  0.
         23    2    4    4    0    0 -0.40409385859E+03  0.32977439787E+03 -0.12380011388E+03  0.54330613117E+03  0.88385993969E+02 0.  0.
         23    2    4    4    0    0  0.45590631906E+03  0.54638132746E+03 -0.52942965159E+02  0.71952650571E+03  0.92370493663E+02 0.  0.
          2    1    3    3  502    0 -0.47544737749E+02 -0.34160987091E+03  0.20518230164E+03  0.40131980128E+03  0.00000000000E+00 0. -1.
         -1    1    3    3    0  502 -0.42677227219E+01 -0.53454585442E+03  0.23613410466E+03  0.58439438680E+03  0.00000000000E+00 0.  1.
         11    1    5    5    0    0 -0.72021789594E+02  0.54997402880E+02  0.11984283378E+02  0.91408290368E+02  0.00000000000E+00 0. -1.
        -11    1    5    5    0    0 -0.33207206900E+03  0.27477699499E+03 -0.13578439726E+03  0.45189784080E+03  0.00000000000E+00 0.  1.
          3    1    6    6  503    0  0.49904438281E+01  0.11715526952E+02  0.11477119604E+02  0.17142997864E+02  0.00000000000E+00 0. -1.
         -3    1    6    6    0  503  0.45091587523E+03  0.53466580051E+03 -0.64420084763E+02  0.70238350785E+03  0.00000000000E+00 0.  1.
<mgrwt>
<rscale>  0 0.22329272E+04</rscale>
<asrwt>0</asrwt>
<pdfrwt beam="1">  1        2 0.19331693E+00 0.22329272E+04</pdfrwt>
<pdfrwt beam="2">  1       -1 0.15261335E+00 0.22329272E+04</pdfrwt>
<totfact> 0.60648780E+00</totfact>
</mgrwt>
</event>
<event>
12    6  0.1611689E-007  0.2550228E+04  0.7818608E-02  0.8385307E-01
         -1   -1    0    0    0  501 -0.00000000000E+00  0.00000000000E+00  0.14971633186E+04  0.14971633186E+04  0.00000000000E+00 0.  1.
          2   -1    0    0  501    0  0.00000000000E+00 -0.00000000000E+00 -0.10859972178E+04  0.10859972178E+04  0.00000000000E+00 0. -1.
         24    2    1    2    0    0 -0.33826817628E+03  0.86430832214E+03  0.80656656879E+03  0.12321048422E+04  0.77964590503E+02 0.  0.
        254    2    1    2    0    0  0.33826817628E+03 -0.86430832214E+03 -0.39540046808E+03  0.13510556942E+04  0.89864104290E+03 0.  0.
         23    2    4    4    0    0 -0.29622672174E+03 -0.27621471785E+03 -0.19733648932E+03  0.45868801084E+03  0.86070670042E+02 0.  0.
         23    2    4    4    0    0  0.63449489802E+03 -0.58809360429E+03 -0.19806397876E+03  0.89236768340E+03  0.93020856070E+02 0.  0.
          4    1    3    3  502    0 -0.12053869456E+03  0.22885152397E+03  0.25067097139E+03  0.36019235529E+03  0.00000000000E+00 0. -1.
         -3    1    3    3    0  502 -0.21772948172E+03  0.63545679817E+03  0.55589559740E+03  0.87191248687E+03  0.00000000000E+00 0.  1.
         11    1    5    5    0    0 -0.71323614801E+01  0.64144408734E+01 -0.26068062459E+01  0.99403757878E+01  0.00000000000E+00 0. -1.
        -11    1    5    5    0    0 -0.28909436026E+03 -0.28262915872E+03 -0.19472968307E+03  0.44874763505E+03  0.00000000000E+00 0.  1.
          1    1    6    6  503    0  0.15671437331E+03 -0.20228528976E+03 -0.64982226355E+02  0.26401027063E+03  0.00000000000E+00 0. -1.
         -1    1    6    6    0  503  0.47778052472E+03 -0.38580831453E+03 -0.13308175240E+03  0.62835741277E+03  0.00000000000E+00 0.  1.
<mgrwt>
<rscale>  0 0.25502276E+04</rscale>
<asrwt>0</asrwt>
<pdfrwt beam="1">  1        2 0.16707649E+00 0.25502276E+04</pdfrwt>
<pdfrwt beam="2">  1       -1 0.23033282E+00 0.25502276E+04</pdfrwt>
<totfact> 0.21131806E+00</totfact>
</mgrwt>
</event>
<event>
12    6  0.1611689E-007  0.1542525E+04  0.7818608E-02  0.8856657E-01
          2   -1    0    0  501    0  0.00000000000E+00  0.00000000000E+00  0.17547277068E+04  0.17547277068E+04  0.00000000000E+00 0. -1.
         -1   -1    0    0    0  501 -0.00000000000E+00 -0.00000000000E+00 -0.33899603061E+03  0.33899603061E+03  0.00000000000E+00 0.  1.
         24    2    1    2    0    0  0.13163187962E+03 -0.21865104825E+03  0.10490176881E+04  0.10822316826E+04  0.75180264935E+02 0.  0.
        254    2    1    2    0    0 -0.13163187962E+03  0.21865104825E+03  0.36671398808E+03  0.10114920548E+04  0.90746999689E+03 0.  0.
         23    2    4    4    0    0 -0.33067415132E+03  0.13618279095E+03 -0.18434389251E+03  0.41295842274E+03  0.93063641160E+02 0.  0.
         23    2    4    4    0    0  0.19904227170E+03  0.82468257298E+02  0.55105788059E+03  0.59853363207E+03  0.90326527516E+02 0.  0.
          4    1    3    3  502    0  0.87000358940E+02 -0.19907096566E+03  0.84705871352E+03  0.87447514314E+03  0.00000000000E+00 0. -1.
         -3    1    3    3    0  502  0.44631520679E+02 -0.19580082592E+02  0.20195897459E+03  0.20775653946E+03  0.00000000000E+00 0.  1.
         11    1    5    5    0    0 -0.15603842339E+03  0.24605343780E+02 -0.11124658278E+03  0.19320769834E+03  0.00000000000E+00 0.  1.
        -11    1    5    5    0    0 -0.17463572792E+03  0.11157744717E+03 -0.73097309732E+02  0.21975072440E+03  0.00000000000E+00 0. -1.
          1    1    6    6  503    0  0.12598245432E+03  0.78633847750E+01  0.25355542427E+03  0.28323800027E+03  0.00000000000E+00 0. -1.
         -1    1    6    6    0  503  0.73059817380E+02  0.74604872523E+02  0.29750245632E+03  0.31529563180E+03  0.00000000000E+00 0.  1.
<mgrwt>
<rscale>  0 0.15425248E+04</rscale>
<asrwt>0</asrwt>
<pdfrwt beam="1">  1        2 0.26995810E+00 0.15425248E+04</pdfrwt>
<pdfrwt beam="2">  1       -1 0.52153237E-01 0.15425248E+04</pdfrwt>
<totfact> 0.37141952E+01</totfact>
</mgrwt>
</event>
<event>
12    6  0.1611689E-007  0.1605148E+04  0.7818608E-02  0.8817392E-01
          2   -1    0    0  501    0  0.00000000000E+00  0.00000000000E+00  0.33648850946E+04  0.33648850946E+04  0.00000000000E+00 0. -1.
         -1   -1    0    0    0  501 -0.00000000000E+00 -0.00000000000E+00 -0.19142549508E+03  0.19142549508E+03  0.00000000000E+00 0.  1.
         24    2    1    2    0    0 -0.40064562870E+03  0.25307049200E+03  0.47172271764E+03  0.67323776420E+03  0.78518603469E+02 0.  0.
        254    2    1    2    0    0  0.40064562870E+03 -0.25307049200E+03  0.27017368818E+04  0.28830728254E+04  0.88778665478E+03 0.  0.
         23    2    4    4    0    0  0.60260508260E+03  0.18278373182E+02  0.20951286123E+04  0.21821944871E+04  0.94561584386E+02 0.  0.
         23    2    4    4    0    0 -0.20195945390E+03 -0.27134886518E+03  0.60660826957E+03  0.70087833830E+03  0.94016087672E+02 0.  0.
          2    1    3    3  502    0 -0.82922560446E+02  0.61634143972E+02  0.61774936812E+02  0.12037882518E+03  0.00000000000E+00 0. -1.
         -1    1    3    3    0  502 -0.31772306825E+03  0.19143634803E+03  0.40994778083E+03  0.55285893902E+03  0.00000000000E+00 0.  1.
         11    1    5    5    0    0  0.60322631297E+03  0.23878229348E+02  0.20607463199E+04  0.21473536154E+04  0.00000000000E+00 0.  1.
        -11    1    5    5    0    0 -0.62123037472E+00 -0.55998561656E+01  0.34382292385E+02  0.34840871773E+02  0.00000000000E+00 0. -1.
          3    1    6    6  503    0  0.33808547028E+01  0.35197384282E+01  0.26150145716E+02  0.26601670213E+02  0.00000000000E+00 0. -1.
         -3    1    6    6    0  503 -0.20534030860E+03 -0.27486860361E+03  0.58045812385E+03  0.67427666809E+03  0.00000000000E+00 0.  1.
<mgrwt>
<rscale>  0 0.16051477E+04</rscale>
<asrwt>0</asrwt>
<pdfrwt beam="1">  1        2 0.51767459E+00 0.16051477E+04</pdfrwt>
<pdfrwt beam="2">  1       -1 0.29450079E-01 0.16051477E+04</pdfrwt>
<totfact> 0.11705336E+01</totfact>
</mgrwt>
</event>
<event>
12    6  0.1611689E-007  0.1190740E+04  0.7818608E-02  0.9121001E-01
         -1   -1    0    0    0  501 -0.00000000000E+00  0.00000000000E+00  0.34771011120E+03  0.34771011120E+03  0.00000000000E+00 0.  1.
          2   -1    0    0  501    0  0.00000000000E+00 -0.00000000000E+00 -0.10194274969E+04  0.10194274969E+04  0.00000000000E+00 0. -1.
         24    2    1    2    0    0  0.14271808417E+03  0.70574684195E+02  0.58984906847E+02  0.18727115748E+03  0.79006516125E+02 0.  0.
        254    2    1    2    0    0 -0.14271808417E+03 -0.70574684195E+02 -0.73070229251E+03  0.11798664506E+04  0.91258411302E+03 0.  0.
         23    2    4    4    0    0 -0.48002602742E+03  0.69594652057E+02 -0.20925686866E+03  0.53585509101E+03  0.89910171184E+02 0.  0.
         23    2    4    4    0    0  0.33730794325E+03 -0.14016933625E+03 -0.52144542385E+03  0.64401135958E+03  0.97062916752E+02 0.  0.
          4    1    3    3  502    0  0.16285688186E+02  0.25273804366E+02 -0.15361274842E+02  0.33763258012E+02  0.00000000000E+00 0. -1.
         -3    1    3    3    0  502  0.12643239599E+03  0.45300879829E+02  0.74346181688E+02  0.15350789947E+03  0.00000000000E+00 0.  1.
         11    1    5    5    0    0 -0.18594276406E+03  0.27947879481E+02 -0.34286023715E+02  0.19113170040E+03  0.00000000000E+00 0.  1.
        -11    1    5    5    0    0 -0.29408326336E+03  0.41646772576E+02 -0.17497084495E+03  0.34472339061E+03  0.00000000000E+00 0. -1.
          4    1    6    6  503    0  0.18263662447E+03 -0.12617803691E+03 -0.32538798898E+03  0.39389640385E+03  0.00000000000E+00 0.  1.
         -4    1    6    6    0  503  0.15467131878E+03 -0.13991299346E+02 -0.19605743487E+03  0.25011495572E+03  0.00000000000E+00 0. -1.
<mgrwt>
<rscale>  0 0.11907397E+04</rscale>
<asrwt>0</asrwt>
<pdfrwt beam="1">  1        2 0.15683500E+00 0.11907397E+04</pdfrwt>
<pdfrwt beam="2">  1       -1 0.53493864E-01 0.11907397E+04</pdfrwt>
<totfact> 0.97168135E+01</totfact>
</mgrwt>
</event>
<event>
12    6  0.1611689E-007  0.2253706E+04  0.7818608E-02  0.8496401E-01
         -1   -1    0    0    0  501 -0.00000000000E+00  0.00000000000E+00  0.54246954973E+03  0.54246954973E+03  0.00000000000E+00 0.  1.
          2   -1    0    0  501    0  0.00000000000E+00 -0.00000000000E+00 -0.23407729540E+04  0.23407729540E+04  0.00000000000E+00 0. -1.
         24    2    1    2    0    0  0.24052713231E+03 -0.39524362977E+03 -0.18237852904E+04  0.18832455413E+04  0.79687859572E+02 0.  0.
        254    2    1    2    0    0 -0.24052713231E+03  0.39524362977E+03  0.25481886175E+02  0.99999696243E+03  0.88615674127E+03 0.  0.
         23    2    4    4    0    0 -0.55389677739E+03  0.28350958116E+03 -0.90775778773E+02  0.63559122498E+03  0.92502111632E+02 0.  0.
         23    2    4    4    0    0  0.31336964508E+03  0.11173404861E+03  0.11625766495E+03  0.36440573745E+03  0.92685839005E+02 0.  0.
          4    1    3    3  502    0  0.22710329682E+03 -0.31659272791E+03 -0.15264739985E+04  0.15754141458E+04  0.00000000000E+00 0. -1.
         -3    1    3    3    0  502  0.13423835487E+02 -0.78650901857E+02 -0.29731129196E+03  0.30783139549E+03  0.00000000000E+00 0.  1.
         11    1    5    5    0    0 -0.76905318338E+02  0.62634252571E+02 -0.41912602279E+02  0.10767610605E+03  0.00000000000E+00 0.  1.
        -11    1    5    5    0    0 -0.47699145905E+03  0.22087532859E+03 -0.48863176493E+02  0.52791511893E+03  0.00000000000E+00 0. -1.
          4    1    6    6  503    0  0.25982252163E+03  0.12050678289E+03  0.11883662955E+03  0.31008349197E+03  0.00000000000E+00 0. -1.
         -4    1    6    6    0  503  0.53547123447E+02 -0.87727342729E+01 -0.25789645979E+01  0.54322245484E+02  0.00000000000E+00 0.  1.
<mgrwt>
<rscale>  0 0.22537063E+04</rscale>
<asrwt>0</asrwt>
<pdfrwt beam="1">  1        2 0.36011891E+00 0.22537063E+04</pdfrwt>
<pdfrwt beam="2">  1       -1 0.83456855E-01 0.22537063E+04</pdfrwt>
<totfact> 0.63394388E+00</totfact>
</mgrwt>
</event>
<event>
12    6  0.1611689E-007  0.1957099E+04  0.7818608E-02  0.8626945E-01
          2   -1    0    0  501    0  0.00000000000E+00  0.00000000000E+00  0.36031121399E+04  0.36031121399E+04  0.00000000000E+00 0. -1.
         -1   -1    0    0    0  501 -0.00000000000E+00 -0.00000000000E+00 -0.26575880062E+03  0.26575880062E+03  0.00000000000E+00 0.  1.
         24    2    1    2    0    0 -0.50698647259E+03  0.16930752307E+03  0.24067598764E+04  0.24666996470E+04  0.80085736189E+02 0.  0.
        254    2    1    2    0    0  0.50698647259E+03 -0.16930752307E+03  0.93059346289E+03  0.14021712935E+04  0.90242995431E+03 0.  0.
         23    2    4    4    0    0  0.23049195190E+03  0.22411724005E+02  0.10139912865E+04  0.10438982580E+04  0.88974257946E+02 0.  0.
         23    2    4    4    0    0  0.27649452069E+03 -0.19171924708E+03 -0.83397823624E+02  0.35827303556E+03  0.90547674470E+02 0.  0.
          2    1    3    3  502    0 -0.50035925803E+03  0.15363015361E+03  0.23361449674E+04  0.23940624303E+04  0.00000000000E+00 0. -1.
         -3    1    3    3    0  502 -0.66272145626E+01  0.15677369468E+02  0.70614908942E+02  0.72637216709E+02  0.00000000000E+00 0.  1.
         11    1    5    5    0    0  0.96592489997E+02 -0.10581906970E+02  0.26358232486E+03  0.28092299276E+03  0.00000000000E+00 0.  1.
        -11    1    5    5    0    0  0.13389946191E+03  0.32993630975E+02  0.75040896165E+03  0.76297526520E+03  0.00000000000E+00 0. -1.
          2    1    6    6  503    0  0.22420300007E+03 -0.10643087231E+03 -0.53838081365E+02  0.25395482832E+03  0.00000000000E+00 0. -1.
         -2    1    6    6    0  503  0.52291520620E+02 -0.85288374772E+02 -0.29559742259E+02  0.10431820724E+03  0.00000000000E+00 0.  1.
<mgrwt>
<rscale>  0 0.19570986E+04</rscale>
<asrwt>0</asrwt>
<pdfrwt beam="1">  1        2 0.55432491E+00 0.19570986E+04</pdfrwt>
<pdfrwt beam="2">  1       -1 0.40885972E-01 0.19570986E+04</pdfrwt>
<totfact> 0.42945592E+00</totfact>
</mgrwt>
</event>
<event>
12    6  0.1611689E-007  0.1530907E+04  0.7818608E-02  0.8864156E-01
          2   -1    0    0  501    0  0.00000000000E+00  0.00000000000E+00  0.18762706945E+04  0.18762706945E+04  0.00000000000E+00 0. -1.
         -1   -1    0    0    0  501 -0.00000000000E+00 -0.00000000000E+00 -0.31227852537E+03  0.31227852537E+03  0.00000000000E+00 0.  1.
         24    2    1    2    0    0 -0.39560266293E+03 -0.21693669736E+03  0.21276968491E+03  0.50526905367E+03  0.80392040701E+02 0.  0.
        254    2    1    2    0    0  0.39560266293E+03  0.21693669736E+03  0.13512224843E+04  0.16832801662E+04  0.89669778547E+03 0.  0.
         23    2    4    4    0    0  0.67531825784E+02 -0.53142655887E+02 -0.10506326480E+03  0.16371827534E+03  0.91546134274E+02 0.  0.
         23    2    4    4    0    0  0.32807083714E+03  0.27007935325E+03  0.14562857491E+04  0.15195618909E+04  0.87902366808E+02 0.  0.
          2    1    3    3  502    0 -0.17458078626E+03 -0.51147291139E+02  0.79987090039E+02  0.19872702608E+03  0.00000000000E+00 0. -1.
         -1    1    3    3    0  502 -0.22102187666E+03 -0.16578940622E+03  0.13278259487E+03  0.30654202759E+03  0.00000000000E+00 0.  1.
         11    1    5    5    0    0  0.38240971220E+02 -0.62370010280E+02 -0.23940882812E+02  0.76977632674E+02  0.00000000000E+00 0. -1.
        -11    1    5    5    0    0  0.29290854564E+02  0.92273543931E+01 -0.81122381990E+02  0.86740642665E+02  0.00000000000E+00 0.  1.
          3    1    6    6  503    0  0.12928883962E+03  0.53507190148E+02  0.47968069837E+03  0.49967208831E+03  0.00000000000E+00 0.  1.
         -3    1    6    6    0  503  0.19878199752E+03  0.21657216310E+03  0.97660505069E+03  0.10198898026E+04  0.00000000000E+00 0. -1.
<mgrwt>
<rscale>  0 0.15309070E+04</rscale>
<asrwt>0</asrwt>
<pdfrwt beam="1">  1        2 0.28865702E+00 0.15309070E+04</pdfrwt>
<pdfrwt beam="2">  1       -1 0.48042851E-01 0.15309070E+04</pdfrwt>
<totfact> 0.37221133E+01</totfact>
</mgrwt>
</event>
<event>
12    6  0.1611689E-007  0.1607866E+04  0.7818608E-02  0.8815730E-01
         -1   -1    0    0    0  501 -0.00000000000E+00  0.00000000000E+00  0.60592338636E+03  0.60592338636E+03  0.00000000000E+00 0.  1.
          2   -1    0    0  501    0  0.00000000000E+00 -0.00000000000E+00 -0.10666501532E+04  0.10666501532E+04  0.00000000000E+00 0. -1.
         24    2    1    2    0    0  0.59096397193E+02  0.25533331195E+03 -0.66985618030E+03  0.72407547878E+03  0.83009109942E+02 0.  0.
        254    2    1    2    0    0 -0.59096397193E+02 -0.25533331195E+03  0.20912941344E+03  0.94849806081E+03  0.88725755869E+03 0.  0.
         23    2    4    4    0    0 -0.28146989257E+03 -0.13535284490E+03  0.47179268263E+03  0.57305324993E+03  0.90862527002E+02 0.  0.
         23    2    4    4    0    0  0.22237349538E+03 -0.11998046704E+03 -0.26266326920E+03  0.37544481089E+03  0.90119526827E+02 0.  0.
          4    1    3    3  502    0  0.16782517436E+02  0.20669441725E+03 -0.55318622055E+03  0.59077849455E+03  0.00000000000E+00 0. -1.
         -3    1    3    3    0  502  0.42313879757E+02  0.48638894693E+02 -0.11666995975E+03  0.13329698424E+03  0.00000000000E+00 0.  1.
         11    1    5    5    0    0 -0.66536581781E+02  0.69994016133E+01  0.11140769069E+03  0.12995299874E+03  0.00000000000E+00 0. -1.
        -11    1    5    5    0    0 -0.21493331079E+03 -0.14235224652E+03  0.36038499195E+03  0.44310025118E+03  0.00000000000E+00 0.  1.
          1    1    6    6  503    0  0.13548019353E+03 -0.11811330991E+03 -0.19579930575E+03  0.26578751842E+03  0.00000000000E+00 0. -1.
         -1    1    6    6    0  503  0.86893301851E+02 -0.18671571319E+01 -0.66863963446E+02  0.10965729246E+03  0.00000000000E+00 0.  1.
<mgrwt>
<rscale>  0 0.16078660E+04</rscale>
<asrwt>0</asrwt>
<pdfrwt beam="1">  1        2 0.16410002E+00 0.16078660E+04</pdfrwt>
<pdfrwt beam="2">  1       -1 0.93218983E-01 0.16078660E+04</pdfrwt>
<totfact> 0.27913954E+01</totfact>
</mgrwt>
</event>
<event>
12    6  0.1611689E-007  0.2091923E+04  0.7818608E-02  0.8564810E-01
          4   -1    0    0  501    0  0.00000000000E+00  0.00000000000E+00  0.12060482555E+04  0.12060482555E+04  0.00000000000E+00 0. -1.
         -3   -1    0    0    0  501 -0.00000000000E+00 -0.00000000000E+00 -0.90712379316E+03  0.90712379316E+03  0.00000000000E+00 0.  1.
         24    2    1    2    0    0  0.67495197921E+03  0.11708576891E+02  0.65479458077E+03  0.94356343423E+03  0.76542448326E+02 0.  0.
        254    2    1    2    0    0 -0.67495197921E+03 -0.11708576891E+02 -0.35587011844E+03  0.11696086144E+04  0.88636533366E+03 0.  0.
         23    2    4    4    0    0  0.25194553688E+02 -0.32678290149E+03 -0.12264409491E+03  0.36176107491E+03  0.91693353432E+02 0.  0.
         23    2    4    4    0    0 -0.70014653290E+03  0.31507432460E+03 -0.23322602353E+03  0.80784753951E+03  0.93521502792E+02 0.  0.
          2    1    3    3  502    0  0.14907960701E+03 -0.63727982269E+01  0.10437483493E+03  0.18209735843E+03  0.00000000000E+00 0. -1.
         -1    1    3    3    0  502  0.52587237221E+03  0.18081375118E+02  0.55041974585E+03  0.76146607580E+03  0.00000000000E+00 0.  1.
         11    1    5    5    0    0 -0.34565404193E+02 -0.10246140604E+03 -0.35885835593E+02  0.11393375308E+03  0.00000000000E+00 0. -1.
        -11    1    5    5    0    0  0.59759957881E+02 -0.22432149545E+03 -0.86758259318E+02  0.24782732183E+03  0.00000000000E+00 0.  1.
          1    1    6    6  503    0 -0.13501385902E+02  0.18631810580E+02  0.37184846611E+01  0.23307915285E+02  0.00000000000E+00 0. -1.
         -1    1    6    6    0  503 -0.68664514700E+03  0.29644251402E+03 -0.23694450819E+03  0.78453962422E+03  0.00000000000E+00 0.  1.
<mgrwt>
<rscale>  0 0.20919226E+04</rscale>
<asrwt>0</asrwt>
<pdfrwt beam="1">  1        4 0.18554589E+00 0.20919226E+04</pdfrwt>
<pdfrwt beam="2">  1       -3 0.13955751E+00 0.20919226E+04</pdfrwt>
<totfact> 0.13453195E-01</totfact>
</mgrwt>
</event>
<event>
12    6  0.1611689E-007  0.1540640E+04  0.7818608E-02  0.8857869E-01
         -1   -1    0    0    0  501 -0.00000000000E+00  0.00000000000E+00  0.68432510950E+03  0.68432510950E+03  0.00000000000E+00 0.  1.
          2   -1    0    0  501    0  0.00000000000E+00 -0.00000000000E+00 -0.86712135455E+03  0.86712135455E+03  0.00000000000E+00 0. -1.
         24    2    1    2    0    0 -0.19274435067E+03  0.41396936430E+03  0.16183976573E+03  0.49097374784E+03  0.79637252605E+02 0.  0.
        254    2    1    2    0    0  0.19274435067E+03 -0.41396936430E+03 -0.34463601078E+03  0.10604727162E+04  0.89292070342E+03 0.  0.
         23    2    4    4    0    0  0.22905884919E+03 -0.26451016408E+03 -0.62749654013E+03  0.72431490072E+03  0.91905300366E+02 0.  0.
         23    2    4    4    0    0 -0.36314498519E+02 -0.14945920023E+03  0.28286052935E+03  0.33615781548E+03  0.96618851732E+02 0.  0.
          2    1    3    3  502    0  0.48665375078E+01  0.38102849458E+01 -0.28703654842E+01  0.68147235231E+01  0.00000000000E+00 0. -1.
         -1    1    3    3    0  502 -0.19761088818E+03  0.41015907936E+03  0.16471013121E+03  0.48415902432E+03  0.00000000000E+00 0.  1.
         11    1    5    5    0    0  0.11412896923E+03 -0.84154718514E+02 -0.31726398060E+03  0.34751096623E+03  0.00000000000E+00 0. -1.
        -11    1    5    5    0    0  0.11492987996E+03 -0.18035544556E+03 -0.31023255953E+03  0.37680393449E+03  0.00000000000E+00 0.  1.
          1    1    6    6  503    0 -0.96084560819E+00 -0.13038292403E+03  0.15722218615E+03  0.20425338656E+03  0.00000000000E+00 0. -1.
         -1    1    6    6    0  503 -0.35353652911E+02 -0.19076276198E+02  0.12563834320E+03  0.13190442893E+03  0.00000000000E+00 0.  1.
<mgrwt>
<rscale>  0 0.15406400E+04</rscale>
<asrwt>0</asrwt>
<pdfrwt beam="1">  1        2 0.13340328E+00 0.15406400E+04</pdfrwt>
<pdfrwt beam="2">  1       -1 0.10528079E+00 0.15406400E+04</pdfrwt>
<totfact> 0.28735182E+01</totfact>
</mgrwt>
</event>
<event>
12    6  0.1681722E-007  0.1762376E+04  0.7818608E-02  0.8726567E-01
          2   -1    0    0  501    0  0.00000000000E+00  0.00000000000E+00  0.61208221033E+03  0.61208221033E+03  0.00000000000E+00 0. -1.
         -1   -1    0    0    0  501 -0.00000000000E+00 -0.00000000000E+00 -0.12686075157E+04  0.12686075157E+04  0.00000000000E+00 0.  1.
         24    2    1    2    0    0 -0.49323692052E+02  0.55901415720E+03  0.17420418533E+03  0.59294415656E+03  0.79410453153E+02 0.  0.
        254    2    1    2    0    0  0.49323692052E+02 -0.55901415720E+03 -0.83072949068E+03  0.12877455694E+04  0.80823728594E+03 0.  0.
         23    2    4    4    0    0  0.35871741334E+03 -0.43292404952E+03 -0.73282029416E+03  0.92817554236E+03  0.91557843043E+02 0.  0.
         23    2    4    4    0    0 -0.30939372129E+03 -0.12609010767E+03 -0.97909196518E+02  0.35957002708E+03  0.89895514827E+02 0.  0.
          2    1    3    3  502    0 -0.34918046373E+02  0.54033849837E+03  0.17583870888E+03  0.56930151442E+03  0.00000000000E+00 0. -1.
         -1    1    3    3    0  502 -0.14405645678E+02  0.18675658826E+02 -0.16345235524E+01  0.23642642137E+02  0.00000000000E+00 0.  1.
         11    1    5    5    0    0  0.34115103210E+03 -0.40130434056E+03 -0.71441348906E+03  0.88758990182E+03  0.00000000000E+00 0.  1.
        -11    1    5    5    0    0  0.17566381232E+02 -0.31619708962E+02 -0.18406805099E+02  0.40585640544E+02  0.00000000000E+00 0. -1.
          1    1    6    6  503    0 -0.14391596184E+02 -0.14997218633E+02 -0.30995461476E+02  0.37319609317E+02  0.00000000000E+00 0. -1.
         -1    1    6    6    0  503 -0.29500212510E+03 -0.11109288904E+03 -0.66913735041E+02  0.32225041776E+03  0.00000000000E+00 0.  1.
<mgrwt>
<rscale>  0 0.17623758E+04</rscale>
<asrwt>0</asrwt>
<pdfrwt beam="1">  1        2 0.94166494E-01 0.17623758E+04</pdfrwt>
<pdfrwt beam="2">  1       -1 0.19517039E+00 0.17623758E+04</pdfrwt>
<totfact> 0.85107968E+00</totfact>
</mgrwt>
</event>
<event>
12    6  0.1681697E-007  0.1909345E+04  0.7818608E-02  0.8650219E-01
          2   -1    0    0  501    0  0.00000000000E+00  0.00000000000E+00  0.18321680483E+04  0.18321680483E+04  0.00000000000E+00 0. -1.
         -1   -1    0    0    0  501 -0.00000000000E+00 -0.00000000000E+00 -0.49744343286E+03  0.49744343286E+03  0.00000000000E+00 0.  1.
         24    2    1    2    0    0 -0.34265587669E+03  0.15076556647E+03 -0.24957995615E+03  0.45618899561E+03  0.75332193258E+02 0.  0.
        254    2    1    2    0    0  0.34265587669E+03 -0.15076556647E+03  0.15843045716E+04  0.18734224855E+04  0.92711786088E+03 0.  0.
         23    2    4    4    0    0 -0.23275445132E+03  0.19580328783E+03  0.57382598304E+03  0.65579634690E+03  0.90989162311E+02 0.  0.
         23    2    4    4    0    0  0.57541032801E+03 -0.34656885430E+03  0.10104785885E+04  0.12176261387E+04  0.10168293505E+03 0.  0.
          2    1    3    3  502    0 -0.26325207003E+02  0.12095285378E+02  0.17660645281E+01  0.29024669439E+02  0.00000000000E+00 0. -1.
         -1    1    3    3    0  502 -0.31633066969E+03  0.13867028109E+03 -0.25134602068E+03  0.42716432617E+03  0.00000000000E+00 0.  1.
         11    1    5    5    0    0 -0.23912700599E+02  0.31068766840E+01  0.13750623763E+02  0.27758774947E+02  0.00000000000E+00 0. -1.
        -11    1    5    5    0    0 -0.20884175072E+03  0.19269641114E+03  0.56007535928E+03  0.62803757195E+03  0.00000000000E+00 0.  1.
          1    1    6    6  503    0  0.13237547292E+02 -0.14553835365E+02  0.70173059050E+02  0.72878700582E+02  0.00000000000E+00 0. -1.
         -1    1    6    6    0  503  0.56217278072E+03 -0.33201501893E+03  0.94030552949E+03  0.11447474381E+04  0.00000000000E+00 0.  1.
<mgrwt>
<rscale>  0 0.19093454E+04</rscale>
<asrwt>0</asrwt>
<pdfrwt beam="1">  1        2 0.28187200E+00 0.19093454E+04</pdfrwt>
<pdfrwt beam="2">  1       -1 0.76529760E-01 0.19093454E+04</pdfrwt>
<totfact> 0.15123907E+01</totfact>
</mgrwt>
</event>
<event>
12    6  0.1611689E-007  0.2063757E+04  0.7818608E-02  0.8577379E-01
         -1   -1    0    0    0  501 -0.00000000000E+00  0.00000000000E+00  0.66855161629E+03  0.66855161629E+03  0.00000000000E+00 0.  1.
          2   -1    0    0  501    0  0.00000000000E+00 -0.00000000000E+00 -0.15926560523E+04  0.15926560523E+04  0.00000000000E+00 0. -1.
         24    2    1    2    0    0 -0.24433317738E+03  0.78318191000E+03 -0.22588009833E+03  0.85471721700E+03  0.80293813571E+02 0.  0.
        254    2    1    2    0    0  0.24433317738E+03 -0.78318191000E+03 -0.69822433767E+03  0.14064904516E+04  0.90422649758E+03 0.  0.
         23    2    4    4    0    0  0.34883374437E+03 -0.46665652634E+03  0.40588055677E+02  0.59097756400E+03  0.90298372611E+02 0.  0.
         23    2    4    4    0    0 -0.10450056700E+03 -0.31652538366E+03 -0.73881239334E+03  0.81551288757E+03  0.90049043481E+02 0.  0.
          2    1    3    3  502    0 -0.54907311280E+02  0.27642596859E+03 -0.10196535350E+03  0.29970495868E+03  0.00000000000E+00 0. -1.
         -1    1    3    3    0  502 -0.18942586610E+03  0.50675594141E+03 -0.12391474483E+03  0.55501225832E+03  0.00000000000E+00 0.  1.
         11    1    5    5    0    0  0.45831173590E+02 -0.24899859627E+02  0.16671178314E+02  0.54757900512E+02  0.00000000000E+00 0. -1.
        -11    1    5    5    0    0  0.30300257078E+03 -0.44175666672E+03  0.23916877364E+02  0.53621966349E+03  0.00000000000E+00 0.  1.
          4    1    6    6  503    0  0.22473035668E+01 -0.23569549768E+02 -0.12306963927E+03  0.12532641445E+03  0.00000000000E+00 0. -1.
         -4    1    6    6    0  503 -0.10674787056E+03 -0.29295583389E+03 -0.61574275408E+03  0.69018647312E+03  0.00000000000E+00 0.  1.
<mgrwt>
<rscale>  0 0.20637566E+04</rscale>
<asrwt>0</asrwt>
<pdfrwt beam="1">  1        2 0.24502400E+00 0.20637566E+04</pdfrwt>
<pdfrwt beam="2">  1       -1 0.10285410E+00 0.20637566E+04</pdfrwt>
<totfact> 0.10587484E+01</totfact>
</mgrwt>
</event>
<event>
12    6  0.1611689E-007  0.1739164E+04  0.7818608E-02  0.8739338E-01
         -1   -1    0    0    0  501 -0.00000000000E+00  0.00000000000E+00  0.54977194104E+03  0.54977194104E+03  0.00000000000E+00 0.  1.
          2   -1    0    0  501    0  0.00000000000E+00 -0.00000000000E+00 -0.13754300614E+04  0.13754300614E+04  0.00000000000E+00 0. -1.
         24    2    1    2    0    0  0.52847703023E+03  0.33964789528E+03 -0.39375825359E+03  0.74599278150E+03  0.82528804230E+02 0.  0.
        254    2    1    2    0    0 -0.52847703023E+03 -0.33964789528E+03 -0.43189986679E+03  0.11792092210E+04  0.89963783135E+03 0.  0.
         23    2    4    4    0    0  0.24594149495E+03 -0.68342099249E+02 -0.10763836873E+03  0.29213100723E+03  0.92718096927E+02 0.  0.
         23    2    4    4    0    0 -0.77441852518E+03 -0.27130579603E+03 -0.32426149806E+03  0.88707821372E+03  0.91822388488E+02 0.  0.
          4    1    3    3  502    0  0.39740256183E+03  0.25116827192E+03 -0.25092573462E+03  0.53289588220E+03  0.00000000000E+00 0. -1.
         -3    1    3    3    0  502  0.13107446840E+03  0.88479623362E+02 -0.14283251897E+03  0.21309689930E+03  0.00000000000E+00 0.  1.
         11    1    5    5    0    0  0.15142299174E+03 -0.82850103957E+02 -0.46967454395E+02  0.17888265406E+03  0.00000000000E+00 0. -1.
        -11    1    5    5    0    0  0.94518503211E+02  0.14508004708E+02 -0.60670914331E+02  0.11324835317E+03  0.00000000000E+00 0.  1.
          3    1    6    6  503    0 -0.70882480650E+03 -0.25565738727E+03 -0.32246442317E+03  0.81961979611E+03  0.00000000000E+00 0. -1.
         -3    1    6    6    0  503 -0.65593718686E+02 -0.15648408766E+02 -0.17970748870E+01  0.67458417607E+02  0.00000000000E+00 0.  1.
<mgrwt>
<rscale>  0 0.17391640E+04</rscale>
<asrwt>0</asrwt>
<pdfrwt beam="1">  1        2 0.21160462E+00 0.17391640E+04</pdfrwt>
<pdfrwt beam="2">  1       -1 0.84580299E-01 0.17391640E+04</pdfrwt>
<totfact> 0.22368199E+01</totfact>
</mgrwt>
</event>
<event>
12    6  0.1611689E-007  0.1339327E+04  0.7818608E-02  0.8998947E-01
          2   -1    0    0  501    0  0.00000000000E+00  0.00000000000E+00  0.76561175348E+03  0.76561175348E+03  0.00000000000E+00 0. -1.
         -1   -1    0    0    0  501 -0.00000000000E+00 -0.00000000000E+00 -0.58574003127E+03  0.58574003127E+03  0.00000000000E+00 0.  1.
         24    2    1    2    0    0  0.20346565352E+03  0.44150909893E+02  0.35178832337E+03  0.41646718870E+03  0.79638682780E+02 0.  0.
        254    2    1    2    0    0 -0.20346565352E+03 -0.44150909893E+02 -0.17191660116E+03  0.93488459605E+03  0.89504542632E+03 0.  0.
         23    2    4    4    0    0  0.32436679217E+03 -0.93552614981E+02 -0.18681023432E+03  0.39619428898E+03  0.90033012484E+02 0.  0.
         23    2    4    4    0    0 -0.52783244569E+03  0.49401705088E+02  0.14893633169E+02  0.53869030708E+03  0.94434143402E+02 0.  0.
          2    1    3    3  502    0  0.97239036684E+02  0.59403894531E+02  0.20634956379E+03  0.23572101183E+03  0.00000000000E+00 0. -1.
         -1    1    3    3    0  502  0.10622661684E+03 -0.15252984638E+02  0.14543875958E+03  0.18074617687E+03  0.00000000000E+00 0.  1.
         11    1    5    5    0    0  0.27697795367E+03 -0.10134560050E+03 -0.13144377976E+03  0.32290119974E+03  0.00000000000E+00 0. -1.
        -11    1    5    5    0    0  0.47388838504E+02  0.77929855227E+01 -0.55366454567E+02  0.73293089234E+02  0.00000000000E+00 0.  1.
          2    1    6    6  503    0 -0.46003518838E+03  0.71205444701E+02 -0.19121735834E+01  0.46551718154E+03  0.00000000000E+00 0. -1.
         -2    1    6    6    0  503 -0.67797257312E+02 -0.21803739613E+02  0.16805806753E+02  0.73173125537E+02  0.00000000000E+00 0.  1.
<mgrwt>
<rscale>  0 0.13393274E+04</rscale>
<asrwt>0</asrwt>
<pdfrwt beam="1">  1        2 0.11778642E+00 0.13393274E+04</pdfrwt>
<pdfrwt beam="2">  1       -1 0.90113851E-01 0.13393274E+04</pdfrwt>
<totfact> 0.49105277E+01</totfact>
</mgrwt>
</event>
<event>
12    6  0.1611689E-007  0.1278874E+04  0.7818608E-02  0.9046488E-01
          4   -1    0    0  501    0  0.00000000000E+00  0.00000000000E+00  0.28895564355E+03  0.28895564355E+03  0.00000000000E+00 0. -1.
         -3   -1    0    0    0  501 -0.00000000000E+00 -0.00000000000E+00 -0.14150248264E+04  0.14150248264E+04  0.00000000000E+00 0.  1.
         24    2    1    2    0    0 -0.24140673435E+03 -0.17585929963E+03 -0.15784057161E+03  0.34680238044E+03  0.78450878772E+02 0.  0.
        254    2    1    2    0    0  0.24140673435E+03  0.17585929963E+03 -0.96822861120E+03  0.13571780895E+04  0.90291861114E+03 0.  0.
         23    2    4    4    0    0  0.42648862800E+03  0.52617396055E+02 -0.10206129700E+04  0.11109847090E+04  0.89303129182E+02 0.  0.
         23    2    4    4    0    0 -0.18508189365E+03  0.12324190357E+03  0.52384358844E+02  0.24619338045E+03  0.91777913314E+02 0.  0.
          4    1    3    3  502    0 -0.72343195072E+02 -0.94725796735E+02 -0.41949740419E+02  0.12635780610E+03  0.00000000000E+00 0. -1.
         -3    1    3    3    0  502 -0.16906353928E+03 -0.81133502890E+02 -0.11589083119E+03  0.22044457435E+03  0.00000000000E+00 0.  1.
         11    1    5    5    0    0  0.39763437703E+03  0.43572611615E+02 -0.99088344794E+03  0.10685792800E+04  0.00000000000E+00 0. -1.
        -11    1    5    5    0    0  0.28854250976E+02  0.90447844402E+01 -0.29729522103E+02  0.42405429009E+02  0.00000000000E+00 0.  1.
          4    1    6    6  503    0 -0.18250941002E+03  0.10565987700E+03  0.23381637640E+02  0.21218010117E+03  0.00000000000E+00 0. -1.
         -4    1    6    6    0  503 -0.25724836355E+01  0.17582026567E+02  0.29002721204E+02  0.34013279282E+02  0.00000000000E+00 0.  1.
<mgrwt>
<rscale>  0 0.12788736E+04</rscale>
<asrwt>0</asrwt>
<pdfrwt beam="1">  1        4 0.44454714E-01 0.12788736E+04</pdfrwt>
<pdfrwt beam="2">  1       -3 0.21769613E+00 0.12788736E+04</pdfrwt>
<totfact> 0.12596070E+00</totfact>
</mgrwt>
</event>
<event>
12    6  0.1611689E-007  0.1442315E+04  0.7818608E-02  0.8923745E-01
         -3   -1    0    0    0  501 -0.00000000000E+00  0.00000000000E+00  0.60167656137E+03  0.60167656137E+03  0.00000000000E+00 0.  1.
          4   -1    0    0  501    0  0.00000000000E+00 -0.00000000000E+00 -0.86436540551E+03  0.86436540551E+03  0.00000000000E+00 0. -1.
         24    2    1    2    0    0 -0.14613861580E+03 -0.11501864236E+02  0.32860418182E+03  0.36941656370E+03  0.83660631835E+02 0.  0.
        254    2    1    2    0    0  0.14613861580E+03  0.11501864236E+02 -0.59129302597E+03  0.10966254032E+04  0.91185034102E+03 0.  0.
         23    2    4    4    0    0  0.33661521816E+03  0.34443531913E+03 -0.48197868347E+03  0.68750756088E+03  0.91748028813E+02 0.  0.
         23    2    4    4    0    0 -0.19047660236E+03 -0.33293345489E+03 -0.10931434250E+03  0.40911784229E+03  0.91114005360E+02 0.  0.
          4    1    3    3  502    0 -0.55924615196E+02 -0.26683056636E+02  0.21392543934E+03  0.22271875021E+03  0.00000000000E+00 0. -1.
         -3    1    3    3    0  502 -0.90214000605E+02  0.15181192400E+02  0.11467874248E+03  0.14669781349E+03  0.00000000000E+00 0.  1.
         11    1    5    5    0    0  0.19558294463E+03  0.13465023214E+03 -0.22950362484E+03  0.33023519961E+03  0.00000000000E+00 0.  1.
        -11    1    5    5    0    0  0.14103227353E+03  0.20978508699E+03 -0.25247505862E+03  0.35727236127E+03  0.00000000000E+00 0. -1.
          1    1    6    6  503    0  0.16272516306E+01 -0.56075960005E+02 -0.26863932631E+02  0.62199936613E+02  0.00000000000E+00 0. -1.
         -1    1    6    6    0  503 -0.19210385399E+03 -0.27685749489E+03 -0.82450409869E+02  0.34691790568E+03  0.00000000000E+00 0.  1.
<mgrwt>
<rscale>  0 0.14423154E+04</rscale>
<asrwt>0</asrwt>
<pdfrwt beam="1">  1        4 0.13297929E+00 0.14423154E+04</pdfrwt>
<pdfrwt beam="2">  1       -3 0.92565625E-01 0.14423154E+04</pdfrwt>
<totfact> 0.94670934E-01</totfact>
</mgrwt>
</event>
<event>
12    6  0.1611689E-007  0.1476668E+04  0.7818608E-02  0.8900118E-01
         -1   -1    0    0    0  501 -0.00000000000E+00  0.00000000000E+00  0.73585488303E+03  0.73585488303E+03  0.00000000000E+00 0.  1.
          2   -1    0    0  501    0  0.00000000000E+00 -0.00000000000E+00 -0.74082130586E+03  0.74082130586E+03  0.00000000000E+00 0. -1.
         24    2    1    2    0    0  0.26748209466E+02  0.43927741986E+03  0.11385558205E+03  0.46179632084E+03  0.81318079576E+02 0.  0.
        254    2    1    2    0    0 -0.26748209466E+02 -0.43927741986E+03 -0.11882200488E+03  0.10148798680E+04  0.90674271953E+03 0.  0.
         23    2    4    4    0    0  0.25562522188E+03 -0.60834978409E+03 -0.86638635097E+02  0.67165877124E+03  0.90473963224E+02 0.  0.
         23    2    4    4    0    0 -0.28237343134E+03  0.16907236423E+03 -0.32183369783E+02  0.34322109681E+03  0.91895228008E+02 0.  0.
          2    1    3    3  502    0  0.22317291235E+02  0.14374048226E+03  0.75072424158E+02  0.16369256733E+03  0.00000000000E+00 0. -1.
         -1    1    3    3    0  502  0.44309182309E+01  0.29553693760E+03  0.38783157895E+02  0.29810375351E+03  0.00000000000E+00 0.  1.
         11    1    5    5    0    0  0.15109495443E+03 -0.42280628189E+03 -0.93333085525E+02  0.45859121461E+03  0.00000000000E+00 0. -1.
        -11    1    5    5    0    0  0.10453026744E+03 -0.18554350221E+03  0.66944504281E+01  0.21306755663E+03  0.00000000000E+00 0.  1.
          2    1    6    6  503    0 -0.10143415435E+03  0.87972464542E+02  0.25605698972E+02  0.13668830969E+03  0.00000000000E+00 0. -1.
         -2    1    6    6    0  503 -0.18093927699E+03  0.81099899691E+02 -0.57789068755E+02  0.20653278712E+03  0.00000000000E+00 0.  1.
<mgrwt>
<rscale>  0 0.14766678E+04</rscale>
<asrwt>0</asrwt>
<pdfrwt beam="1">  1        2 0.11397251E+00 0.14766678E+04</pdfrwt>
<pdfrwt beam="2">  1       -1 0.11320844E+00 0.14766678E+04</pdfrwt>
<totfact> 0.30027365E+01</totfact>
</mgrwt>
</event>
<event>
12    6  0.1611689E-007  0.1600961E+04  0.7818608E-02  0.8819958E-01
         -1   -1    0    0    0  501 -0.00000000000E+00  0.00000000000E+00  0.75814106388E+03  0.75814106388E+03  0.00000000000E+00 0.  1.
          2   -1    0    0  501    0  0.00000000000E+00 -0.00000000000E+00 -0.84518409741E+03  0.84518409741E+03  0.00000000000E+00 0. -1.
         24    2    1    2    0    0 -0.52937438968E+03 -0.11038549736E+03  0.23856083923E+02  0.54725696099E+03  0.80615545252E+02 0.  0.
        254    2    1    2    0    0  0.52937438968E+03  0.11038549736E+03 -0.11089911745E+03  0.10560682003E+04  0.90031062804E+03 0.  0.
         23    2    4    4    0    0 -0.67959739693E+02  0.30576261901E+03 -0.24247761865E+03  0.40720681694E+03  0.94407048544E+02 0.  0.
         23    2    4    4    0    0  0.59733412937E+03 -0.19537712165E+03  0.13157850120E+03  0.64886138336E+03  0.93423289716E+02 0.  0.
          2    1    3    3  502    0 -0.14403887065E+03 -0.41455983134E+02  0.41120877334E+02  0.15542432676E+03  0.00000000000E+00 0. -1.
         -1    1    3    3    0  502 -0.38533551903E+03 -0.68929514226E+02 -0.17264793411E+02  0.39183263423E+03  0.00000000000E+00 0.  1.
         11    1    5    5    0    0 -0.58715078108E+02  0.14286020551E+03 -0.69356609026E+02  0.16931284042E+03  0.00000000000E+00 0. -1.
        -11    1    5    5    0    0 -0.92446615845E+01  0.16290241350E+03 -0.17312100962E+03  0.23789397652E+03  0.00000000000E+00 0.  1.
          1    1    6    6  503    0  0.61598747402E+02 -0.80410206150E+01  0.40234672561E+02  0.74012786531E+02  0.00000000000E+00 0. -1.
         -1    1    6    6    0  503  0.53573538197E+03 -0.18733610104E+03  0.91343828634E+02  0.57484859683E+03  0.00000000000E+00 0.  1.
<mgrwt>
<rscale>  0 0.16009607E+04</rscale>
<asrwt>0</asrwt>
<pdfrwt beam="1">  1        2 0.13002832E+00 0.16009607E+04</pdfrwt>
<pdfrwt beam="2">  1       -1 0.11663709E+00 0.16009607E+04</pdfrwt>
<totfact> 0.23232232E+01</totfact>
</mgrwt>
</event>
<event>
12    6  0.1611689E-007  0.9645415E+03  0.7818608E-02  0.9348313E-01
         -1   -1    0    0    0  501 -0.00000000000E+00  0.00000000000E+00  0.19199528921E+03  0.19199528921E+03  0.00000000000E+00 0.  1.
          2   -1    0    0  501    0  0.00000000000E+00 -0.00000000000E+00 -0.12114103080E+04  0.12114103080E+04  0.00000000000E+00 0. -1.
         24    2    1    2    0    0 -0.93710519484E+02  0.36216948072E+02 -0.12356450012E+03  0.17850157900E+03  0.80630634527E+02 0.  0.
        254    2    1    2    0    0  0.93710519484E+02 -0.36216948072E+02 -0.89585051869E+03  0.12249040182E+04  0.82930595878E+03 0.  0.
         23    2    4    4    0    0  0.33050586012E+03  0.10588139821E+03 -0.85941008390E+03  0.93123222530E+03  0.90348055152E+02 0.  0.
         23    2    4    4    0    0 -0.23679534064E+03 -0.14209834628E+03 -0.36440434794E+02  0.29367179294E+03  0.93012060060E+02 0.  0.
          2    1    3    3  502    0 -0.12592584642E+02  0.26607952166E+02 -0.81434776398E+02  0.86592026846E+02  0.00000000000E+00 0. -1.
         -1    1    3    3    0  502 -0.81117934842E+02  0.96089959060E+01 -0.42129723726E+02  0.91909552151E+02  0.00000000000E+00 0.  1.
         11    1    5    5    0    0  0.15884010043E+03  0.97281055075E+02 -0.47086518212E+03  0.50636725893E+03  0.00000000000E+00 0. -1.
        -11    1    5    5    0    0  0.17166575969E+03  0.86003431312E+01 -0.38854490178E+03  0.42486496637E+03  0.00000000000E+00 0.  1.
          1    1    6    6  503    0 -0.15154832352E+03 -0.11684837002E+03 -0.62008724021E+02  0.20116042800E+03  0.00000000000E+00 0. -1.
         -1    1    6    6    0  503 -0.85247017121E+02 -0.25249976254E+02  0.25568289227E+02  0.92511364939E+02  0.00000000000E+00 0.  1.
<mgrwt>
<rscale>  0 0.96454149E+03</rscale>
<asrwt>0</asrwt>
<pdfrwt beam="1">  1        2 0.18637081E+00 0.96454149E+03</pdfrwt>
<pdfrwt beam="2">  1       -1 0.29537738E-01 0.96454149E+03</pdfrwt>
<totfact> 0.22249808E+02</totfact>
</mgrwt>
</event>
<event>
12    6  0.1611689E-007  0.3064114E+04  0.7818608E-02  0.8225656E-01
         -1   -1    0    0    0  501 -0.00000000000E+00  0.00000000000E+00  0.13207944581E+04  0.13207944581E+04  0.00000000000E+00 0.  1.
          2   -1    0    0  501    0  0.00000000000E+00 -0.00000000000E+00 -0.17771114629E+04  0.17771114629E+04  0.00000000000E+00 0. -1.
         24    2    1    2    0    0  0.10418509821E+04  0.10347401276E+03  0.72670205949E+03  0.12771606114E+04  0.82963870866E+02 0.  0.
        254    2    1    2    0    0 -0.10418509821E+04 -0.10347401276E+03 -0.11830190643E+04  0.18207453096E+04  0.90521767309E+03 0.  0.
         23    2    4    4    0    0 -0.97667819366E+03  0.12106082799E+03 -0.12160426800E+04  0.15672940164E+04  0.95366221672E+02 0.  0.
         23    2    4    4    0    0 -0.65172788394E+02 -0.22453484075E+03  0.33023615740E+02  0.25345129313E+03  0.92106523847E+02 0.  0.
          2    1    3    3  502    0  0.62667857083E+03  0.24236150291E+02  0.41582428257E+03  0.75247807682E+03  0.00000000000E+00 0. -1.
         -1    1    3    3    0  502  0.41517241122E+03  0.79237862468E+02  0.31087777692E+03  0.52468253456E+03  0.00000000000E+00 0.  1.
         11    1    5    5    0    0 -0.63010369258E+02 -0.77199879547E+00 -0.47215821791E+02  0.78741580144E+02  0.00000000000E+00 0.  1.
        -11    1    5    5    0    0 -0.91366782440E+03  0.12183282678E+03 -0.11688268582E+04  0.14885524363E+04  0.00000000000E+00 0. -1.
          1    1    6    6  503    0 -0.41446582132E+02 -0.11726017001E+03 -0.28412479111E+02  0.12757364779E+03  0.00000000000E+00 0. -1.
         -1    1    6    6    0  503 -0.23726206262E+02 -0.10727467074E+03  0.61436094850E+02  0.12587764534E+03  0.00000000000E+00 0.  1.
<mgrwt>
<rscale>  0 0.30641142E+04</rscale>
<asrwt>0</asrwt>
<pdfrwt beam="1">  1        2 0.27340176E+00 0.30641142E+04</pdfrwt>
<pdfrwt beam="2">  1       -1 0.20319915E+00 0.30641142E+04</pdfrwt>
<totfact> 0.12317975E+00</totfact>
</mgrwt>
</event>
<event>
12    6  0.1611689E-007  0.1984156E+04  0.7818608E-02  0.8614064E-01
          2   -1    0    0  501    0  0.00000000000E+00  0.00000000000E+00  0.16655620259E+04  0.16655620259E+04  0.00000000000E+00 0. -1.
         -1   -1    0    0    0  501 -0.00000000000E+00 -0.00000000000E+00 -0.59092271068E+03  0.59092271068E+03  0.00000000000E+00 0.  1.
         24    2    1    2    0    0 -0.39983480125E+03  0.34535787944E+03 -0.22860507902E+03  0.58140660368E+03  0.81445831492E+02 0.  0.
        254    2    1    2    0    0  0.39983480125E+03 -0.34535787944E+03  0.13032443942E+04  0.16750781329E+04  0.91011035980E+03 0.  0.
         23    2    4    4    0    0  0.67745758580E+03 -0.15357055393E+03  0.90410258413E+03  0.11439684056E+04  0.93431979852E+02 0.  0.
         23    2    4    4    0    0 -0.27762278455E+03 -0.19178732551E+03  0.39914181010E+03  0.53110972726E+03  0.94374621033E+02 0.  0.
          2    1    3    3  502    0 -0.92196491902E+02  0.10189647841E+03 -0.25978114560E+02  0.13984973317E+03  0.00000000000E+00 0. -1.
         -1    1    3    3    0  502 -0.30763830935E+03  0.24346140103E+03 -0.20262696446E+03  0.44155687051E+03  0.00000000000E+00 0.  1.
         11    1    5    5    0    0  0.30115817752E+03 -0.33653735403E+02  0.44475764208E+03  0.53818043627E+03  0.00000000000E+00 0. -1.
        -11    1    5    5    0    0  0.37629940827E+03 -0.11991681853E+03  0.45934494205E+03  0.60578796936E+03  0.00000000000E+00 0.  1.
          3    1    6    6  503    0 -0.45474256485E+02  0.43455142829E+01  0.64824338149E+02  0.79303129281E+02  0.00000000000E+00 0. -1.
         -3    1    6    6    0  503 -0.23214852806E+03 -0.19613283979E+03  0.33431747195E+03  0.45180659798E+03  0.00000000000E+00 0.  1.
<mgrwt>
<rscale>  0 0.19841557E+04</rscale>
<asrwt>0</asrwt>
<pdfrwt beam="1">  1        2 0.25624031E+00 0.19841557E+04</pdfrwt>
<pdfrwt beam="2">  1       -1 0.90911187E-01 0.19841557E+04</pdfrwt>
<totfact> 0.12829293E+01</totfact>
</mgrwt>
</event>
<event>
12    6  0.1611689E-007  0.1822955E+04  0.7818608E-02  0.8694187E-01
          2   -1    0    0  501    0  0.00000000000E+00  0.00000000000E+00  0.61081726451E+03  0.61081726451E+03  0.00000000000E+00 0. -1.
         -1   -1    0    0    0  501 -0.00000000000E+00 -0.00000000000E+00 -0.13601305698E+04  0.13601305698E+04  0.00000000000E+00 0.  1.
         24    2    1    2    0    0  0.63850272735E+03  0.24645460237E+03 -0.38014518377E+03  0.78680653232E+03  0.78285086013E+02 0.  0.
        254    2    1    2    0    0 -0.63850272735E+03 -0.24645460237E+03 -0.36916812157E+03  0.11841413020E+04  0.89301731078E+03 0.  0.
         23    2    4    4    0    0 -0.52849444936E+03 -0.17606263964E+02 -0.61752375719E+03  0.81821966398E+03  0.92365926121E+02 0.  0.
         23    2    4    4    0    0 -0.11000827799E+03 -0.22884833840E+03  0.24835563562E+03  0.36592163806E+03  0.88004205806E+02 0.  0.
          2    1    3    3  502    0  0.35285548309E+03  0.10201113490E+03 -0.22880650138E+03  0.43274204634E+03  0.00000000000E+00 0. -1.
         -1    1    3    3    0  502  0.28564724426E+03  0.14444346747E+03 -0.15133868239E+03  0.35406448598E+03  0.00000000000E+00 0.  1.
         11    1    5    5    0    0 -0.15126082813E+03  0.36123600728E+02 -0.16802664578E+03  0.22894913485E+03  0.00000000000E+00 0.  1.
        -11    1    5    5    0    0 -0.37723362123E+03 -0.53729864693E+02 -0.44949711140E+03  0.58927052914E+03  0.00000000000E+00 0. -1.
          1    1    6    6  503    0 -0.11551983465E+03 -0.23394270978E+03  0.23816616801E+03  0.35326639698E+03  0.00000000000E+00 0. -1.
         -1    1    6    6    0  503  0.55115566536E+01  0.50943713752E+01  0.10189467612E+02  0.12655241075E+02  0.00000000000E+00 0.  1.
<mgrwt>
<rscale>  0 0.18229550E+04</rscale>
<asrwt>0</asrwt>
<pdfrwt beam="1">  1        2 0.93971887E-01 0.18229550E+04</pdfrwt>
<pdfrwt beam="2">  1       -1 0.20925086E+00 0.18229550E+04</pdfrwt>
<totfact> 0.67932953E+00</totfact>
</mgrwt>
</event>
<event>
12    6  0.1611689E-007  0.2076759E+04  0.7818608E-02  0.8571551E-01
          2   -1    0    0  501    0  0.00000000000E+00  0.00000000000E+00  0.37353236503E+04  0.37353236503E+04  0.00000000000E+00 0. -1.
         -1   -1    0    0    0  501 -0.00000000000E+00 -0.00000000000E+00 -0.28865826935E+03  0.28865826935E+03  0.00000000000E+00 0.  1.
         24    2    1    2    0    0  0.19412905483E+03  0.46092907210E+03  0.98860522482E+02  0.51606771438E+03  0.80067368385E+02 0.  0.
        254    2    1    2    0    0 -0.19412905483E+03 -0.46092907210E+03  0.33478048585E+04  0.35079142053E+04  0.92061012474E+03 0.  0.
         23    2    4    4    0    0 -0.27515304186E+03  0.13726570471E+03  0.20351569115E+04  0.20602212433E+04  0.89982479403E+02 0.  0.
         23    2    4    4    0    0  0.81023987024E+02 -0.59819477681E+03  0.13126479470E+04  0.14476929620E+04  0.91478970969E+02 0.  0.
          4    1    3    3  502    0  0.30963661394E+02  0.72467773787E+02 -0.13622106581E+02  0.79974298073E+02  0.00000000000E+00 0. -1.
         -3    1    3    3    0  502  0.16316539344E+03  0.38846129831E+03  0.11248262906E+03  0.43609341630E+03  0.00000000000E+00 0.  1.
         11    1    5    5    0    0 -0.89720566209E+02  0.93839853720E+02  0.79882898696E+03  0.80931047723E+03  0.00000000000E+00 0. -1.
        -11    1    5    5    0    0 -0.18543247565E+03  0.43425850993E+02  0.12363279246E+04  0.12509107661E+04  0.00000000000E+00 0.  1.
          1    1    6    6  503    0 -0.45451110052E+00 -0.25687864796E+03  0.62367593086E+03  0.67450612532E+03  0.00000000000E+00 0. -1.
         -1    1    6    6    0  503  0.81478498124E+02 -0.34131612885E+03  0.68897201610E+03  0.77318683669E+03  0.00000000000E+00 0.  1.
<mgrwt>
<rscale>  0 0.20767591E+04</rscale>
<asrwt>0</asrwt>
<pdfrwt beam="1">  1        2 0.57466514E+00 0.20767591E+04</pdfrwt>
<pdfrwt beam="2">  1       -1 0.44408967E-01 0.20767591E+04</pdfrwt>
<totfact> 0.29177046E+00</totfact>
</mgrwt>
</event>
<event>
12    6  0.1611689E-007  0.3195341E+04  0.7818608E-02  0.8190049E-01
         -1   -1    0    0    0  501 -0.00000000000E+00  0.00000000000E+00  0.11516403933E+04  0.11516403933E+04  0.00000000000E+00 0.  1.
          2   -1    0    0  501    0  0.00000000000E+00 -0.00000000000E+00 -0.22164477973E+04  0.22164477973E+04  0.00000000000E+00 0. -1.
         24    2    1    2    0    0  0.61095129968E+03  0.10466306993E+04 -0.13779396826E+04  0.18368090655E+04  0.80327224764E+02 0.  0.
        254    2    1    2    0    0 -0.61095129968E+03 -0.10466306993E+04  0.31313227859E+03  0.15312791251E+04  0.88208084874E+03 0.  0.
         23    2    4    4    0    0 -0.33120341827E+03 -0.10704422138E+04  0.44267961441E+03  0.12087330892E+04  0.97612511776E+02 0.  0.
         23    2    4    4    0    0 -0.27974788141E+03  0.23811514549E+02 -0.12954733582E+03  0.32254603588E+03  0.91801784644E+02 0.  0.
          4    1    3    3  502    0  0.58668110619E+03  0.97201604789E+03 -0.13040182939E+04  0.17290094356E+04  0.00000000000E+00 0. -1.
         -3    1    3    3    0  502  0.24270193489E+02  0.74614651395E+02 -0.73921388686E+02  0.10779962987E+03  0.00000000000E+00 0.  1.
         11    1    5    5    0    0 -0.21735820169E+03 -0.79837995600E+03  0.36061923775E+03  0.90260809692E+03  0.00000000000E+00 0.  1.
        -11    1    5    5    0    0 -0.11384521658E+03 -0.27206225784E+03  0.82060376659E+02  0.30612499228E+03  0.00000000000E+00 0. -1.
          3    1    6    6  503    0 -0.19780208255E+03  0.36801884940E+02 -0.13006275896E+03  0.23957538242E+03  0.00000000000E+00 0. -1.
         -3    1    6    6    0  503 -0.81945798865E+02 -0.12990370390E+02  0.51542313230E+00  0.82970653460E+02  0.00000000000E+00 0.  1.
<mgrwt>
<rscale>  0 0.31953409E+04</rscale>
<asrwt>0</asrwt>
<pdfrwt beam="1">  1        2 0.34099196E+00 0.31953409E+04</pdfrwt>
<pdfrwt beam="2">  1       -1 0.17717545E+00 0.31953409E+04</pdfrwt>
<totfact> 0.10559093E+00</totfact>
</mgrwt>
</event>
<event>
12    6  0.1611689E-007  0.1792718E+04  0.7818608E-02  0.8710182E-01
         -1   -1    0    0    0  501 -0.00000000000E+00  0.00000000000E+00  0.15635973382E+04  0.15635973382E+04  0.00000000000E+00 0.  1.
          2   -1    0    0  501    0  0.00000000000E+00 -0.00000000000E+00 -0.51385294116E+03  0.51385294116E+03  0.00000000000E+00 0. -1.
         24    2    1    2    0    0 -0.26650963809E+03  0.71849588469E+02 -0.29889022098E+03  0.41468565835E+03  0.80243881299E+02 0.  0.
        254    2    1    2    0    0  0.26650963809E+03 -0.71849588469E+02  0.13486346180E+04  0.16627646210E+04  0.93262055597E+03 0.  0.
         23    2    4    4    0    0  0.10473369481E+03 -0.22527162041E+03  0.13930661945E+04  0.14179889987E+04  0.91339631681E+02 0.  0.
         23    2    4    4    0    0  0.16177594328E+03  0.15342203194E+03 -0.44431576516E+02  0.24477562230E+03  0.90725765772E+02 0.  0.
          4    1    3    3  502    0 -0.12807096172E+03  0.43949614442E+02 -0.20289438767E+03  0.24392595679E+03  0.00000000000E+00 0. -1.
         -3    1    3    3    0  502 -0.13843867636E+03  0.27899974027E+02 -0.95995833305E+02  0.17075970156E+03  0.00000000000E+00 0.  1.
         11    1    5    5    0    0  0.71490879681E+02 -0.16804208941E+03  0.76727916106E+03  0.78871186164E+03  0.00000000000E+00 0. -1.
        -11    1    5    5    0    0  0.33242815126E+02 -0.57229530994E+02  0.62578703345E+03  0.62927713705E+03  0.00000000000E+00 0.  1.
          2    1    6    6  503    0  0.15225158850E+02  0.66213673087E+02  0.22072345423E+01  0.67977406908E+02  0.00000000000E+00 0. -1.
         -2    1    6    6    0  503  0.14655078443E+03  0.87208358852E+02 -0.46638811058E+02  0.17679821540E+03  0.00000000000E+00 0.  1.
<mgrwt>
<rscale>  0 0.17927176E+04</rscale>
<asrwt>0</asrwt>
<pdfrwt beam="1">  1        2 0.79054300E-01 0.17927176E+04</pdfrwt>
<pdfrwt beam="2">  1       -1 0.24055343E+00 0.17927176E+04</pdfrwt>
<totfact> 0.51761992E+00</totfact>
</mgrwt>
</event>
<event>
12    6  0.1611689E-007  0.1981649E+04  0.7818608E-02  0.8615249E-01
         -1   -1    0    0    0  501 -0.00000000000E+00  0.00000000000E+00  0.82451143661E+03  0.82451143661E+03  0.00000000000E+00 0.  1.
          2   -1    0    0  501    0  0.00000000000E+00 -0.00000000000E+00 -0.11906845591E+04  0.11906845591E+04  0.00000000000E+00 0. -1.
         24    2    1    2    0    0  0.15589675172E+03  0.54858504838E+03 -0.68596530960E+03  0.89870768496E+03  0.10898506567E+03 0.  0.
        254    2    1    2    0    0 -0.15589675172E+03 -0.54858504838E+03  0.31979218713E+03  0.11164883107E+04  0.90500262570E+03 0.  0.
         23    2    4    4    0    0 -0.21184521059E+03 -0.13427681799E+03  0.56405963805E+03  0.62393132173E+03  0.90655181093E+02 0.  0.
         23    2    4    4    0    0  0.55948458874E+02 -0.41430823039E+03 -0.24426745093E+03  0.49255698898E+03  0.90356294735E+02 0.  0.
          2    1    3    3  502    0  0.67857587622E+02  0.39907876513E+03 -0.51585941994E+03  0.65572818615E+03  0.00000000000E+00 0. -1.
         -1    1    3    3    0  502  0.88039164093E+02  0.14950628325E+03 -0.17010588966E+03  0.24297949881E+03  0.00000000000E+00 0.  1.
         11    1    5    5    0    0 -0.11613676268E+03 -0.58953254564E+02  0.39242779945E+03  0.41347649468E+03  0.00000000000E+00 0.  1.
        -11    1    5    5    0    0 -0.95708447909E+02 -0.75323563430E+02  0.17163183861E+03  0.21045482706E+03  0.00000000000E+00 0. -1.
          2    1    6    6  503    0  0.71257694671E+02 -0.27129893317E+03 -0.19019248999E+03  0.33890109684E+03  0.00000000000E+00 0.  1.
         -2    1    6    6    0  503 -0.15309235797E+02 -0.14300929721E+03 -0.54074960935E+02  0.15365589214E+03  0.00000000000E+00 0. -1.
<mgrwt>
<rscale>  0 0.19816488E+04</rscale>
<asrwt>0</asrwt>
<pdfrwt beam="1">  1        2 0.18318224E+00 0.19816488E+04</pdfrwt>
<pdfrwt beam="2">  1       -1 0.12684791E+00 0.19816488E+04</pdfrwt>
<totfact> 0.10981458E+01</totfact>
</mgrwt>
</event>
<event>
12    6  0.1611689E-007  0.2231386E+04  0.7818608E-02  0.8505477E-01
         -1   -1    0    0    0  501 -0.00000000000E+00  0.00000000000E+00  0.14551665857E+04  0.14551665857E+04  0.00000000000E+00 0.  1.
          2   -1    0    0  501    0  0.00000000000E+00 -0.00000000000E+00 -0.85541485898E+03  0.85541485898E+03  0.00000000000E+00 0. -1.
         24    2    1    2    0    0  0.84917957229E+03  0.33904423228E+03  0.45394725337E+03  0.10236146971E+04  0.75246274098E+02 0.  0.
        254    2    1    2    0    0 -0.84917957229E+03 -0.33904423228E+03  0.14580447337E+03  0.12869667476E+04  0.89384983506E+03 0.  0.
         23    2    4    4    0    0 -0.86991033943E+02  0.23014735473E+03  0.20026886456E+03  0.32993025598E+03  0.90615179863E+02 0.  0.
         23    2    4    4    0    0 -0.76218853834E+03 -0.56919158701E+03 -0.54464391195E+02  0.95703649166E+03  0.89677453995E+02 0.  0.
          4    1    3    3  502    0  0.35501877063E+03  0.17654609472E+03  0.21712134976E+03  0.45204925792E+03  0.00000000000E+00 0. -1.
         -3    1    3    3    0  502  0.49416080166E+03  0.16249813756E+03  0.23682590360E+03  0.57156543914E+03  0.00000000000E+00 0.  1.
         11    1    5    5    0    0 -0.45542442762E+02  0.54250169249E+02  0.17622229994E+02  0.72991355285E+02  0.00000000000E+00 0. -1.
        -11    1    5    5    0    0 -0.41448591181E+02  0.17589718548E+03  0.18264663457E+03  0.25693890069E+03  0.00000000000E+00 0.  1.
          1    1    6    6  503    0 -0.16981658846E+03 -0.14921791754E+03 -0.46795757739E+02  0.23085385761E+03  0.00000000000E+00 0. -1.
         -1    1    6    6    0  503 -0.59237194988E+03 -0.41997366947E+03 -0.76686334563E+01  0.72618263405E+03  0.00000000000E+00 0.  1.
<mgrwt>
<rscale>  0 0.22313862E+04</rscale>
<asrwt>0</asrwt>
<pdfrwt beam="1">  1        2 0.13160229E+00 0.22313862E+04</pdfrwt>
<pdfrwt beam="2">  1       -1 0.22387178E+00 0.22313862E+04</pdfrwt>
<totfact> 0.33925064E+00</totfact>
</mgrwt>
</event>
<event>
12    6  0.1611689E-007  0.1499652E+04  0.7818608E-02  0.8884684E-01
         -1   -1    0    0    0  501 -0.00000000000E+00  0.00000000000E+00  0.23349198605E+03  0.23349198605E+03  0.00000000000E+00 0.  1.
          2   -1    0    0  501    0  0.00000000000E+00 -0.00000000000E+00 -0.24079585373E+04  0.24079585373E+04  0.00000000000E+00 0. -1.
         24    2    1    2    0    0  0.45089896474E+03 -0.77577817931E+02 -0.46315525680E+03  0.65588684396E+03  0.79665337103E+02 0.  0.
        254    2    1    2    0    0 -0.45089896474E+03  0.77577817931E+02 -0.17113112945E+04  0.19855636794E+04  0.89696632276E+03 0.  0.
         23    2    4    4    0    0  0.20273363375E+03 -0.19256605827E+03 -0.46510240566E+03  0.55035147187E+03  0.91563539620E+02 0.  0.
         23    2    4    4    0    0 -0.65363259849E+03  0.27014387621E+03 -0.12462088888E+04  0.14352122075E+04  0.81143073943E+02 0.  0.
          4    1    3    3  502    0  0.55850543761E+02  0.14236553747E+02 -0.74087597862E+02  0.93866580091E+02  0.00000000000E+00 0. -1.
         -3    1    3    3    0  502  0.39504842098E+03 -0.91814371678E+02 -0.38906765894E+03  0.56202026387E+03  0.00000000000E+00 0.  1.
         11    1    5    5    0    0  0.89618840715E+02 -0.56647680074E+02 -0.25228211505E+03  0.27365445702E+03  0.00000000000E+00 0.  1.
        -11    1    5    5    0    0  0.11311479304E+03 -0.13591837820E+03 -0.21282029060E+03  0.27669701485E+03  0.00000000000E+00 0. -1.
          4    1    6    6  503    0 -0.25801799576E+03  0.14497454548E+03 -0.55651353454E+03  0.63031596767E+03  0.00000000000E+00 0. -1.
         -4    1    6    6    0  503 -0.39561460273E+03  0.12516933072E+03 -0.68969535429E+03  0.80489623988E+03  0.00000000000E+00 0.  1.
<mgrwt>
<rscale>  0 0.14996520E+04</rscale>
<asrwt>0</asrwt>
<pdfrwt beam="1">  1        2 0.37045514E+00 0.14996520E+04</pdfrwt>
<pdfrwt beam="2">  1       -1 0.35921846E-01 0.14996520E+04</pdfrwt>
<totfact> 0.32127386E+01</totfact>
</mgrwt>
</event>
<event>
12    6  0.1611689E-007  0.1580455E+04  0.7818608E-02  0.8832646E-01
          2   -1    0    0  501    0  0.00000000000E+00  0.00000000000E+00  0.42138687944E+03  0.42138687944E+03  0.00000000000E+00 0. -1.
         -1   -1    0    0    0  501 -0.00000000000E+00 -0.00000000000E+00 -0.14819155984E+04  0.14819155984E+04  0.00000000000E+00 0.  1.
         24    2    1    2    0    0 -0.25355007765E+03 -0.18542377514E+03  0.15827396602E+03  0.35736397938E+03  0.63156529153E+02 0.  0.
        254    2    1    2    0    0  0.25355007765E+03  0.18542377514E+03 -0.12188026850E+04  0.15459384984E+04  0.89765039844E+03 0.  0.
         23    2    4    4    0    0  0.47642707072E+03 -0.13675776632E+03 -0.90618597406E+03  0.10367213034E+04  0.89065149955E+02 0.  0.
         23    2    4    4    0    0 -0.22287699307E+03  0.32218154146E+03 -0.31261671090E+03  0.50921719506E+03  0.89988022054E+02 0.  0.
          2    1    3    3  502    0 -0.18743090222E+03 -0.12271199535E+03  0.14072596624E+03  0.26456071985E+03  0.00000000000E+00 0. -1.
         -1    1    3    3    0  502 -0.66119175434E+02 -0.62711779788E+02  0.17547999773E+02  0.92803259535E+02  0.00000000000E+00 0.  1.
         11    1    5    5    0    0  0.28379499854E+03 -0.76415793066E+02 -0.62418806022E+03  0.68992007446E+03  0.00000000000E+00 0. -1.
        -11    1    5    5    0    0  0.19263207218E+03 -0.60341973254E+02 -0.28199791384E+03  0.34680122892E+03  0.00000000000E+00 0.  1.
          3    1    6    6  503    0 -0.21143024878E+03  0.26846496041E+03 -0.23745180490E+03  0.41612443417E+03  0.00000000000E+00 0. -1.
         -3    1    6    6    0  503 -0.11446744283E+02  0.53716581054E+02 -0.75164906006E+02  0.93092760888E+02  0.00000000000E+00 0.  1.
<mgrwt>
<rscale>  0 0.15804554E+04</rscale>
<asrwt>0</asrwt>
<pdfrwt beam="1">  1        2 0.64828751E-01 0.15804554E+04</pdfrwt>
<pdfrwt beam="2">  1       -1 0.22798701E+00 0.15804554E+04</pdfrwt>
<totfact> 0.80150147E+00</totfact>
</mgrwt>
</event>
<event>
12    6  0.1611689E-007  0.2507081E+04  0.7818608E-02  0.8400467E-01
          2   -1    0    0  501    0  0.00000000000E+00  0.00000000000E+00  0.20651821541E+04  0.20651821541E+04  0.00000000000E+00 0. -1.
         -1   -1    0    0    0  501 -0.00000000000E+00 -0.00000000000E+00 -0.76088374480E+03  0.76088374480E+03  0.00000000000E+00 0.  1.
         24    2    1    2    0    0  0.98374080684E+03  0.37269053683E+02  0.20639346491E+02  0.98792177195E+03  0.80177848884E+02 0.  0.
        254    2    1    2    0    0 -0.98374080684E+03 -0.37269053683E+02  0.12836590628E+04  0.18381441269E+04  0.87284493723E+03 0.  0.
         23    2    4    4    0    0 -0.34989722981E+03 -0.29955267223E+02 -0.42858490671E+02  0.36515303391E+03  0.90412933217E+02 0.  0.
         23    2    4    4    0    0 -0.63384357704E+03 -0.73137864609E+01  0.13265175534E+04  0.14729910930E+04  0.90789695619E+02 0.  0.
          4    1    3    3  502    0  0.32455823607E+03 -0.17803151709E+02  0.29512132986E+02  0.32638315950E+03  0.00000000000E+00 0. -1.
         -3    1    3    3    0  502  0.65918257077E+03  0.55072205393E+02 -0.88727864950E+01  0.66153861245E+03  0.00000000000E+00 0.  1.
         11    1    5    5    0    0 -0.34992521525E+03 -0.31545277036E+02 -0.52620072864E+02  0.35526276590E+03  0.00000000000E+00 0.  1.
        -11    1    5    5    0    0  0.27985440729E-01  0.15900098136E+01  0.97615821932E+01  0.98902680099E+01  0.00000000000E+00 0. -1.
          2    1    6    6  503    0 -0.22749607236E+03 -0.46216667217E+02  0.48393837703E+03  0.53673717593E+03  0.00000000000E+00 0. -1.
         -2    1    6    6    0  503 -0.40634750468E+03  0.38902880756E+02  0.84257917641E+03  0.93625391706E+03  0.00000000000E+00 0.  1.
<mgrwt>
<rscale>  0 0.25070808E+04</rscale>
<asrwt>0</asrwt>
<pdfrwt beam="1">  1        2 0.31772033E+00 0.25070808E+04</pdfrwt>
<pdfrwt beam="2">  1       -1 0.11705904E+00 0.25070808E+04</pdfrwt>
<totfact> 0.40982992E+00</totfact>
</mgrwt>
</event>
<event>
12    6  0.1611689E-007  0.2225516E+04  0.7818608E-02  0.8507882E-01
         -1   -1    0    0    0  501 -0.00000000000E+00  0.00000000000E+00  0.43065339344E+03  0.43065339344E+03  0.00000000000E+00 0.  1.
          2   -1    0    0  501    0  0.00000000000E+00 -0.00000000000E+00 -0.28752368763E+04  0.28752368763E+04  0.00000000000E+00 0. -1.
         24    2    1    2    0    0  0.53054597806E+03 -0.34339344638E+03 -0.16370445653E+02  0.63724089014E+03  0.80061643276E+02 0.  0.
        254    2    1    2    0    0 -0.53054597806E+03  0.34339344638E+03 -0.24282130372E+04  0.26686493796E+04  0.90888550617E+03 0.  0.
         23    2    4    4    0    0  0.71007066517E+02  0.44060713989E+03 -0.13767414086E+04  0.14501132637E+04  0.90746438670E+02 0.  0.
         23    2    4    4    0    0 -0.60155304457E+03 -0.97213693509E+02 -0.10514716285E+04  0.12185361159E+04  0.89000631341E+02 0.  0.
          4    1    3    3  502    0  0.48216525247E+03 -0.33165828969E+03 -0.28808459844E+02  0.58592702546E+03  0.00000000000E+00 0. -1.
         -3    1    3    3    0  502  0.48380725590E+02 -0.11735156692E+02  0.12438014192E+02  0.51313864678E+02  0.00000000000E+00 0.  1.
         11    1    5    5    0    0  0.54732651545E+02  0.42697848084E+03 -0.12612749710E+04  0.13327118364E+04  0.00000000000E+00 0. -1.
        -11    1    5    5    0    0  0.16274414972E+02  0.13628659054E+02 -0.11546643760E+03  0.11740142734E+03  0.00000000000E+00 0.  1.
          3    1    6    6  503    0 -0.32665647309E+03 -0.90377358639E+02 -0.53243539255E+03  0.63115763927E+03  0.00000000000E+00 0. -1.
         -3    1    6    6    0  503 -0.27489657148E+03 -0.68363348696E+01 -0.51903623599E+03  0.58737847659E+03  0.00000000000E+00 0.  1.
<mgrwt>
<rscale>  0 0.22255161E+04</rscale>
<asrwt>0</asrwt>
<pdfrwt beam="1">  1        2 0.44234414E+00 0.22255161E+04</pdfrwt>
<pdfrwt beam="2">  1       -1 0.66254367E-01 0.22255161E+04</pdfrwt>
<totfact> 0.49890831E+00</totfact>
</mgrwt>
</event>
<event>
12    6  0.1611689E-007  0.1603965E+04  0.7818608E-02  0.8818116E-01
          2   -1    0    0  501    0  0.00000000000E+00  0.00000000000E+00  0.40391022778E+03  0.40391022778E+03  0.00000000000E+00 0. -1.
         -1   -1    0    0    0  501 -0.00000000000E+00 -0.00000000000E+00 -0.15923725135E+04  0.15923725135E+04  0.00000000000E+00 0.  1.
         24    2    1    2    0    0  0.16680252607E+03 -0.33788554913E+02  0.20988257746E+03  0.28323325408E+03  0.84885986759E+02 0.  0.
        254    2    1    2    0    0 -0.16680252607E+03  0.33788554913E+02 -0.13983448632E+04  0.17130494872E+04  0.97478481733E+03 0.  0.
         23    2    4    4    0    0 -0.17781195177E+03 -0.27129172161E+03 -0.65316998287E+02  0.34263423031E+03  0.88969753908E+02 0.  0.
         23    2    4    4    0    0  0.11009425699E+02  0.30508027653E+03 -0.13330278649E+04  0.13704152569E+04  0.88766576796E+02 0.  0.
          4    1    3    3  502    0  0.16015506355E+03 -0.31356973523E+02  0.14603865810E+03  0.21899815942E+03  0.00000000000E+00 0. -1.
         -3    1    3    3    0  502  0.66474625133E+01 -0.24315813899E+01  0.63843919364E+02  0.64235094657E+02  0.00000000000E+00 0.  1.
         11    1    5    5    0    0 -0.26784885068E+02 -0.69320753178E+01  0.92577538117E+01  0.29175156246E+02  0.00000000000E+00 0. -1.
        -11    1    5    5    0    0 -0.15102706670E+03 -0.26435964629E+03 -0.74574752099E+02  0.31345907407E+03  0.00000000000E+00 0.  1.
          4    1    6    6  503    0  0.11064455321E+02  0.39822923414E+02 -0.85081022236E+02  0.94588940926E+02  0.00000000000E+00 0. -1.
         -4    1    6    6    0  503 -0.55029621935E-01  0.26525735311E+03 -0.12479468427E+04  0.12758263160E+04  0.00000000000E+00 0.  1.
<mgrwt>
<rscale>  0 0.16039645E+04</rscale>
<asrwt>0</asrwt>
<pdfrwt beam="1">  1        2 0.62140036E-01 0.16039645E+04</pdfrwt>
<pdfrwt beam="2">  1       -1 0.24498038E+00 0.16039645E+04</pdfrwt>
<totfact> 0.64866981E+00</totfact>
</mgrwt>
</event>
<event>
12    6  0.1611689E-007  0.1660682E+04  0.7818608E-02  0.8784112E-01
          2   -1    0    0  501    0  0.00000000000E+00  0.00000000000E+00  0.85971029576E+03  0.85971029576E+03  0.00000000000E+00 0. -1.
         -1   -1    0    0    0  501 -0.00000000000E+00 -0.00000000000E+00 -0.80197529660E+03  0.80197529660E+03  0.00000000000E+00 0.  1.
         24    2    1    2    0    0 -0.35655310038E+03  0.26523845840E+01 -0.43736893070E+03  0.56964460146E+03  0.77886082814E+02 0.  0.
        254    2    1    2    0    0  0.35655310038E+03 -0.26523845840E+01  0.49510392986E+03  0.10920409909E+04  0.90569778399E+03 0.  0.
         23    2    4    4    0    0  0.55788447496E+03 -0.96954213416E+02  0.37268529751E+02  0.57468599878E+03  0.90773602871E+02 0.  0.
         23    2    4    4    0    0 -0.20133137458E+03  0.94301828832E+02  0.45783540011E+03  0.51735499213E+03  0.92821209709E+02 0.  0.
          2    1    3    3  502    0 -0.46865723724E+02  0.26509329759E+02 -0.54237070706E+02  0.76425129789E+02  0.00000000000E+00 0. -1.
         -1    1    3    3    0  502 -0.30968737665E+03 -0.23856945175E+02 -0.38313185999E+03  0.49321947167E+03  0.00000000000E+00 0.  1.
         11    1    5    5    0    0  0.38564486307E+03 -0.60658037371E+02 -0.16199328602E+02  0.39072212141E+03  0.00000000000E+00 0.  1.
        -11    1    5    5    0    0  0.17223961189E+03 -0.36296176045E+02  0.53467858353E+02  0.18396387737E+03  0.00000000000E+00 0. -1.
          3    1    6    6  503    0 -0.15083701147E+03  0.76388544668E+02  0.24363286167E+03  0.29655351132E+03  0.00000000000E+00 0. -1.
         -3    1    6    6    0  503 -0.50494363110E+02  0.17913284165E+02  0.21420253844E+03  0.22080148081E+03  0.00000000000E+00 0.  1.
<mgrwt>
<rscale>  0 0.16606823E+04</rscale>
<asrwt>0</asrwt>
<pdfrwt beam="1">  1        2 0.13226312E+00 0.16606823E+04</pdfrwt>
<pdfrwt beam="2">  1       -1 0.12338081E+00 0.16606823E+04</pdfrwt>
<totfact> 0.19682973E+01</totfact>
</mgrwt>
</event>
<event>
12    6  0.1611689E-007  0.2071639E+04  0.7818608E-02  0.8573841E-01
         -1   -1    0    0    0  501 -0.00000000000E+00  0.00000000000E+00  0.11388747185E+04  0.11388747185E+04  0.00000000000E+00 0.  1.
          2   -1    0    0  501    0  0.00000000000E+00 -0.00000000000E+00 -0.94208940132E+03  0.94208940132E+03  0.00000000000E+00 0. -1.
         24    2    1    2    0    0 -0.35532172118E+03  0.74393881943E+03 -0.79686945677E+02  0.83177102560E+03  0.76121857099E+02 0.  0.
        254    2    1    2    0    0  0.35532172118E+03 -0.74393881943E+03  0.27647226290E+03  0.12491930943E+04  0.89685449321E+03 0.  0.
         23    2    4    4    0    0  0.45401573757E+03 -0.11824510487E+02  0.18450384622E+03  0.49894444962E+03  0.92918165741E+02 0.  0.
         23    2    4    4    0    0 -0.98694016386E+02 -0.73211430894E+03  0.91968416681E+02  0.75024864464E+03  0.93182449507E+02 0.  0.
          2    1    3    3  502    0 -0.25127635558E+03  0.51872396896E+03 -0.20618985299E+02  0.57674908357E+03  0.00000000000E+00 0. -1.
         -1    1    3    3    0  502 -0.10404536560E+03  0.22521485047E+03 -0.59067960377E+02  0.25502194204E+03  0.00000000000E+00 0.  1.
         11    1    5    5    0    0  0.33039808061E+03  0.65840926735E+01  0.90721183074E+02  0.34269020267E+03  0.00000000000E+00 0. -1.
        -11    1    5    5    0    0  0.12361765696E+03 -0.18408603160E+02  0.93782663147E+02  0.15625424695E+03  0.00000000000E+00 0.  1.
          3    1    6    6  503    0 -0.31597333801E+02 -0.44803217996E+03  0.91396354618E+02  0.45834977847E+03  0.00000000000E+00 0. -1.
         -3    1    6    6    0  503 -0.67096682585E+02 -0.28408212898E+03  0.57206206240E+00  0.29189886618E+03  0.00000000000E+00 0.  1.
<mgrwt>
<rscale>  0 0.20716388E+04</rscale>
<asrwt>0</asrwt>
<pdfrwt beam="1">  1        2 0.14493683E+00 0.20716388E+04</pdfrwt>
<pdfrwt beam="2">  1       -1 0.17521150E+00 0.20716388E+04</pdfrwt>
<totfact> 0.65259266E+00</totfact>
</mgrwt>
</event>
<event>
12    6  0.1611689E-007  0.2013441E+04  0.7818608E-02  0.8600362E-01
         -1   -1    0    0    0  501 -0.00000000000E+00  0.00000000000E+00  0.53073624716E+03  0.53073624716E+03  0.00000000000E+00 0.  1.
          2   -1    0    0  501    0  0.00000000000E+00 -0.00000000000E+00 -0.19095848265E+04  0.19095848265E+04  0.00000000000E+00 0. -1.
         24    2    1    2    0    0  0.27224846911E+03  0.54200787777E+03 -0.11766860737E+04  0.13263024037E+04  0.81216879932E+02 0.  0.
        254    2    1    2    0    0 -0.27224846911E+03 -0.54200787777E+03 -0.20216250570E+03  0.11140186700E+04  0.91229170219E+03 0.  0.
         23    2    4    4    0    0 -0.33887666883E+03 -0.55493360562E+03 -0.48019510786E+03  0.81353579089E+03  0.92002381075E+02 0.  0.
         23    2    4    4    0    0  0.66628199719E+02  0.12925727849E+02  0.27803260216E+03  0.30048287910E+03  0.91550212081E+02 0.  0.
          2    1    3    3  502    0  0.26523590033E+03  0.50660796179E+03 -0.10633372652E+04  0.12073474435E+04  0.00000000000E+00 0. -1.
         -3    1    3    3    0  502  0.70125687839E+01  0.35399915978E+02 -0.11334880851E+03  0.11895496023E+03  0.00000000000E+00 0.  1.
         11    1    5    5    0    0 -0.89648724558E+02 -0.91975343562E+02 -0.67252162886E+02  0.14498003673E+03  0.00000000000E+00 0. -1.
        -11    1    5    5    0    0 -0.24922794427E+03 -0.46295826206E+03 -0.41294294497E+03  0.66855575416E+03  0.00000000000E+00 0.  1.
          2    1    6    6  503    0 -0.18580089659E+01  0.15501404308E+02  0.16148571719E+01  0.15695652154E+02  0.00000000000E+00 0. -1.
         -2    1    6    6    0  503  0.68486208685E+02 -0.25756764594E+01  0.27641774499E+03  0.28478722695E+03  0.00000000000E+00 0.  1.
<mgrwt>
<rscale>  0 0.20134407E+04</rscale>
<asrwt>0</asrwt>
<pdfrwt beam="1">  1        2 0.29378228E+00 0.20134407E+04</pdfrwt>
<pdfrwt beam="2">  1       -1 0.81651732E-01 0.20134407E+04</pdfrwt>
<totfact> 0.11834638E+01</totfact>
</mgrwt>
</event>
<event>
12    6  0.1611689E-007  0.1207571E+04  0.7818608E-02  0.9106256E-01
          2   -1    0    0  501    0  0.00000000000E+00  0.00000000000E+00  0.14546262617E+04  0.14546262617E+04  0.00000000000E+00 0. -1.
         -1   -1    0    0    0  501 -0.00000000000E+00 -0.00000000000E+00 -0.25061884426E+03  0.25061884426E+03  0.00000000000E+00 0.  1.
         24    2    1    2    0    0 -0.17631588741E+03 -0.10046386852E+03  0.36041206989E+02  0.21678796025E+03  0.67214359158E+02 0.  0.
        254    2    1    2    0    0  0.17631588741E+03  0.10046386852E+03  0.11679662104E+04  0.14884571457E+04  0.90009961938E+03 0.  0.
         23    2    4    4    0    0 -0.30271902886E+03 -0.14414782500E+03  0.28281829744E+03  0.44810104950E+03  0.91602157773E+02 0.  0.
         23    2    4    4    0    0  0.47903491627E+03  0.24461169352E+03  0.88514791299E+03  0.10403560962E+04  0.97696711232E+02 0.  0.
          4    1    3    3  502    0 -0.11932451362E+03 -0.53218523130E+02  0.52744415094E+02  0.14089898537E+03  0.00000000000E+00 0. -1.
         -3    1    3    3    0  502 -0.56991373790E+02 -0.47245345385E+02 -0.16703208104E+02  0.75888974878E+02  0.00000000000E+00 0.  1.
         11    1    5    5    0    0 -0.25779475958E+03 -0.98463064617E+02  0.18894063261E+03  0.33444233556E+03  0.00000000000E+00 0. -1.
        -11    1    5    5    0    0 -0.44924269281E+02 -0.45684760386E+02  0.93877664824E+02  0.11365871394E+03  0.00000000000E+00 0.  1.
          4    1    6    6  503    0  0.46240293906E+03  0.21159504977E+03  0.80614159426E+03  0.95312812000E+03  0.00000000000E+00 0. -1.
         -4    1    6    6    0  503  0.16631977215E+02  0.33016643744E+02  0.79006318732E+02  0.87227976187E+02  0.00000000000E+00 0.  1.
<mgrwt>
<rscale>  0 0.12075707E+04</rscale>
<asrwt>0</asrwt>
<pdfrwt beam="1">  1        2 0.22378865E+00 0.12075707E+04</pdfrwt>
<pdfrwt beam="2">  1       -1 0.38556746E-01 0.12075707E+04</pdfrwt>
<totfact> 0.98545950E+01</totfact>
</mgrwt>
</event>
<event>
12    6  0.1817213E-007  0.2317788E+04  0.7818608E-02  0.8470941E-01
         -1   -1    0    0    0  501 -0.00000000000E+00  0.00000000000E+00  0.82535730240E+03  0.82535730240E+03  0.00000000000E+00 0.  1.
          2   -1    0    0  501    0  0.00000000000E+00 -0.00000000000E+00 -0.16272164050E+04  0.16272164050E+04  0.00000000000E+00 0. -1.
         24    2    1    2    0    0  0.65358590513E+03 -0.60447813136E+03  0.96584872442E+02  0.89903652003E+03  0.79810275549E+02 0.  0.
        254    2    1    2    0    0 -0.65358590513E+03  0.60447813136E+03 -0.89844397505E+03  0.15535371874E+04  0.90205757555E+03 0.  0.
         23    2    4    4    0    0 -0.21491354468E+03  0.75636311760E+03 -0.51643727999E+03  0.94537758039E+03  0.93585832195E+02 0.  0.
         23    2    4    4    0    0 -0.43867236045E+03 -0.15188498624E+03 -0.38200669506E+03  0.60815960700E+03  0.91795989276E+02 0.  0.
          4    1    3    3  502    0  0.11497351183E+03 -0.13047463515E+03  0.45384856964E+02  0.17972847321E+03  0.00000000000E+00 0. -1.
         -3    1    3    3    0  502  0.53861239330E+03 -0.47400349621E+03  0.51200015478E+02  0.71930804682E+03  0.00000000000E+00 0.  1.
         11    1    5    5    0    0 -0.20996919062E+03  0.75792932083E+03 -0.51462095118E+03  0.93988224782E+03  0.00000000000E+00 0.  1.
        -11    1    5    5    0    0 -0.49443540625E+01 -0.15662032295E+01 -0.18163288061E+01  0.54953325635E+01  0.00000000000E+00 0. -1.
          4    1    6    6  503    0 -0.20772698852E+03 -0.23844653421E+02 -0.17345265192E+03  0.27167055732E+03  0.00000000000E+00 0. -1.
         -4    1    6    6    0  503 -0.23094537192E+03 -0.12804033282E+03 -0.20855404314E+03  0.33648904968E+03  0.00000000000E+00 0.  1.
<mgrwt>
<rscale>  0 0.23177877E+04</rscale>
<asrwt>0</asrwt>
<pdfrwt beam="1">  1        2 0.25034099E+00 0.23177877E+04</pdfrwt>
<pdfrwt beam="2">  1       -1 0.12697805E+00 0.23177877E+04</pdfrwt>
<totfact> 0.59735878E+00</totfact>
</mgrwt>
</event>
<event>
12    6  0.1611689E-007  0.2125830E+04  0.7818608E-02  0.8549949E-01
          2   -1    0    0  501    0  0.00000000000E+00  0.00000000000E+00  0.27412369758E+04  0.27412369758E+04  0.00000000000E+00 0. -1.
         -1   -1    0    0    0  501 -0.00000000000E+00 -0.00000000000E+00 -0.41214556382E+03  0.41214556382E+03  0.00000000000E+00 0.  1.
         24    2    1    2    0    0 -0.85816803163E+03  0.11731753069E+03  0.10705719696E+04  0.13796202953E+04  0.83737946933E+02 0.  0.
        254    2    1    2    0    0  0.85816803163E+03 -0.11731753069E+03  0.12585194424E+04  0.17737622443E+04  0.90119117774E+03 0.  0.
         23    2    4    4    0    0  0.20898361355E+03  0.36544315135E+03  0.51338491776E+03  0.67020902254E+03  0.91614477627E+02 0.  0.
         23    2    4    4    0    0  0.64918441807E+03 -0.48276068205E+03  0.74513452466E+03  0.11035532218E+04  0.90033152828E+02 0.  0.
          4    1    3    3  502    0 -0.84293923842E+03  0.10532461429E+03  0.10565011196E+04  0.13556675292E+04  0.00000000000E+00 0. -1.
         -3    1    3    3    0  502 -0.15228793202E+02  0.11992916407E+02  0.14070850015E+02  0.23952766155E+02  0.00000000000E+00 0.  1.
         11    1    5    5    0    0  0.98825465906E+02  0.89081781901E+02  0.16985096832E+03  0.21575770674E+03  0.00000000000E+00 0. -1.
        -11    1    5    5    0    0  0.11015814765E+03  0.27636136945E+03  0.34353394944E+03  0.45445131580E+03  0.00000000000E+00 0.  1.
          2    1    6    6  503    0  0.49645381434E+03 -0.40496046603E+03  0.55581501598E+03  0.84816843894E+03  0.00000000000E+00 0. -1.
         -2    1    6    6    0  503  0.15273060373E+03 -0.77800216019E+02  0.18931950868E+03  0.25538478282E+03  0.00000000000E+00 0.  1.
<mgrwt>
<rscale>  0 0.21258303E+04</rscale>
<asrwt>0</asrwt>
<pdfrwt beam="1">  1        2 0.42172875E+00 0.21258303E+04</pdfrwt>
<pdfrwt beam="2">  1       -1 0.63407011E-01 0.21258303E+04</pdfrwt>
<totfact> 0.66289511E+00</totfact>
</mgrwt>
</event>
<event>
12    6  0.1611689E-007  0.1288544E+04  0.7818608E-02  0.9038699E-01
          2   -1    0    0  501    0  0.00000000000E+00  0.00000000000E+00  0.11918403498E+04  0.11918403498E+04  0.00000000000E+00 0. -1.
         -1   -1    0    0    0  501 -0.00000000000E+00 -0.00000000000E+00 -0.34827364211E+03  0.34827364211E+03  0.00000000000E+00 0.  1.
         24    2    1    2    0    0 -0.17034553705E+03  0.27055246388E+03  0.21836408961E+03  0.39506415735E+03  0.78591189611E+02 0.  0.
        254    2    1    2    0    0  0.17034553705E+03 -0.27055246388E+03  0.62520261805E+03  0.11450498345E+04  0.90445816499E+03 0.  0.
         23    2    4    4    0    0 -0.17771596669E+03 -0.51096602402E+02  0.68863024000E+03  0.71883590674E+03  0.91211982649E+02 0.  0.
         23    2    4    4    0    0  0.34806150374E+03 -0.21945586148E+03 -0.63427621952E+02  0.42621392779E+03  0.91255484714E+02 0.  0.
          4    1    3    3  502    0 -0.90688736277E+02  0.20141413102E+03  0.17147440456E+03  0.27963470901E+03  0.00000000000E+00 0. -1.
         -3    1    3    3    0  502 -0.79656800776E+02  0.69138332861E+02  0.46889685056E+02  0.11542944835E+03  0.00000000000E+00 0.  1.
         11    1    5    5    0    0 -0.87353717953E+02 -0.21406635673E+02  0.49501704574E+03  0.50312105070E+03  0.00000000000E+00 0. -1.
        -11    1    5    5    0    0 -0.90362248732E+02 -0.29689966730E+02  0.19361319426E+03  0.21571485603E+03  0.00000000000E+00 0.  1.
          3    1    6    6  503    0  0.35211240748E+03 -0.20720425227E+03 -0.61978990620E+02  0.41322892558E+03  0.00000000000E+00 0. -1.
         -3    1    6    6    0  503 -0.40509037448E+01 -0.12251609214E+02 -0.14486313321E+01  0.12985002203E+02  0.00000000000E+00 0.  1.
<mgrwt>
<rscale>  0 0.12885443E+04</rscale>
<asrwt>0</asrwt>
<pdfrwt beam="1">  1        2 0.18336005E+00 0.12885443E+04</pdfrwt>
<pdfrwt beam="2">  1       -1 0.53580561E-01 0.12885443E+04</pdfrwt>
<totfact> 0.75285771E+01</totfact>
</mgrwt>
</event>
<event>
12    6  0.1611689E-007  0.1516144E+04  0.7818608E-02  0.8873788E-01
         -1   -1    0    0    0  501 -0.00000000000E+00  0.00000000000E+00  0.32273731958E+03  0.32273731958E+03  0.00000000000E+00 0.  1.
          2   -1    0    0  501    0  0.00000000000E+00 -0.00000000000E+00 -0.17806218782E+04  0.17806218782E+04  0.00000000000E+00 0. -1.
         24    2    1    2    0    0  0.26354390515E+03 -0.18570489369E+03  0.34181506968E+02  0.33364456968E+03  0.78794834736E+02 0.  0.
        254    2    1    2    0    0 -0.26354390515E+03  0.18570489369E+03 -0.14920660656E+04  0.17697146281E+04  0.89536976906E+03 0.  0.
         23    2    4    4    0    0 -0.34047151437E+03 -0.82744790146E+02 -0.14384902536E+03  0.38969649029E+03  0.91669297223E+02 0.  0.
         23    2    4    4    0    0  0.76927609221E+02  0.26844968383E+03 -0.13482170402E+04  0.13800181378E+04  0.93689825117E+02 0.  0.
          2    1    3    3  502    0 -0.46105897692E+01 -0.89535482638E+01  0.47425976254E+01  0.11131747247E+02  0.00000000000E+00 0. -1.
         -1    1    3    3    0  502  0.26815449491E+03 -0.17675134542E+03  0.29438909343E+02  0.32251282244E+03  0.00000000000E+00 0.  1.
         11    1    5    5    0    0 -0.67983260445E+02  0.17967019445E+02 -0.41722973049E+02  0.81763952745E+02  0.00000000000E+00 0. -1.
        -11    1    5    5    0    0 -0.27248825392E+03 -0.10071180959E+03 -0.10212605231E+03  0.30793253754E+03  0.00000000000E+00 0.  1.
          4    1    6    6  503    0  0.84012618176E+02  0.13962293307E+03 -0.84160756760E+03  0.85723741244E+03  0.00000000000E+00 0. -1.
         -4    1    6    6    0  503 -0.70850089557E+01  0.12882675077E+03 -0.50660947260E+03  0.52278072535E+03  0.00000000000E+00 0.  1.
<mgrwt>
<rscale>  0 0.15161440E+04</rscale>
<asrwt>0</asrwt>
<pdfrwt beam="1">  1        2 0.27394183E+00 0.15161440E+04</pdfrwt>
<pdfrwt beam="2">  1       -1 0.49651895E-01 0.15161440E+04</pdfrwt>
<totfact> 0.39553977E+01</totfact>
</mgrwt>
</event>
<event>
12    6  0.1611689E-007  0.1880145E+04  0.7818608E-02  0.8664803E-01
         -1   -1    0    0    0  501 -0.00000000000E+00  0.00000000000E+00  0.47909266133E+03  0.47909266133E+03  0.00000000000E+00 0.  1.
          2   -1    0    0  501    0  0.00000000000E+00 -0.00000000000E+00 -0.18446041671E+04  0.18446041671E+04  0.00000000000E+00 0. -1.
         24    2    1    2    0    0 -0.39997686691E+03 -0.35821646659E+03 -0.11416711799E+04  0.12643092141E+04  0.82244604382E+02 0.  0.
        254    2    1    2    0    0  0.39997686691E+03  0.35821646659E+03 -0.22384032591E+03  0.10593876143E+04  0.88537963321E+03 0.  0.
         23    2    4    4    0    0  0.63308464717E+03  0.23733187583E+03  0.30837696496E+02  0.68255544900E+03  0.88365081776E+02 0.  0.
         23    2    4    4    0    0 -0.23310778026E+03  0.12088459076E+03 -0.25467802241E+03  0.37683216533E+03  0.90494553586E+02 0.  0.
          2    1    3    3  502    0 -0.29149171306E+03 -0.30517108133E+03 -0.86639228931E+03  0.96370763546E+03  0.00000000000E+00 0. -1.
         -1    1    3    3    0  502 -0.10848515384E+03 -0.53045385259E+02 -0.27527889060E+03  0.30060157869E+03  0.00000000000E+00 0.  1.
         11    1    5    5    0    0  0.45872649756E+03  0.18173179815E+03 -0.15913993871E+02  0.49366962760E+03  0.00000000000E+00 0.  1.
        -11    1    5    5    0    0  0.17435814961E+03  0.55600077683E+02  0.46751690366E+02  0.18888582140E+03  0.00000000000E+00 0. -1.
          1    1    6    6  503    0 -0.55610029493E+02  0.70912167874E+02 -0.57670098562E+02  0.10698995841E+03  0.00000000000E+00 0. -1.
         -1    1    6    6    0  503 -0.17749775077E+03  0.49972422886E+02 -0.19700792384E+03  0.26984220692E+03  0.00000000000E+00 0.  1.
<mgrwt>
<rscale>  0 0.18801450E+04</rscale>
<asrwt>0</asrwt>
<pdfrwt beam="1">  1        2 0.28378526E+00 0.18801450E+04</pdfrwt>
<pdfrwt beam="2">  1       -1 0.73706563E-01 0.18801450E+04</pdfrwt>
<totfact> 0.16143379E+01</totfact>
</mgrwt>
</event>
<event>
12    6  0.1611689E-007  0.2203517E+04  0.7818608E-02  0.8516966E-01
          2   -1    0    0  501    0  0.00000000000E+00  0.00000000000E+00  0.25424177430E+04  0.25424177430E+04  0.00000000000E+00 0. -1.
         -1   -1    0    0    0  501 -0.00000000000E+00 -0.00000000000E+00 -0.47744796926E+03  0.47744796926E+03  0.00000000000E+00 0.  1.
         24    2    1    2    0    0  0.33340546592E+03  0.47725316088E+03  0.18329976892E+04  0.19251173284E+04  0.85243269802E+02 0.  0.
        254    2    1    2    0    0 -0.33340546592E+03 -0.47725316088E+03  0.23197208455E+03  0.10947483839E+04  0.89762642107E+03 0.  0.
         23    2    4    4    0    0 -0.18891198432E+03 -0.65948555864E+03 -0.79415372356E+02  0.69652141136E+03  0.90699146873E+02 0.  0.
         23    2    4    4    0    0 -0.14449348161E+03  0.18223239775E+03  0.31138745691E+03  0.39822697256E+03  0.86807605294E+02 0.  0.
          2    1    3    3  502    0  0.28487453955E+03  0.36850059679E+03  0.15382248321E+04  0.16071968850E+04  0.00000000000E+00 0. -1.
         -1    1    3    3    0  502  0.48530926371E+02  0.10875256409E+03  0.29477285715E+03  0.31792044339E+03  0.00000000000E+00 0.  1.
         11    1    5    5    0    0 -0.12469507261E+02 -0.67314963723E+02  0.18494384927E+02  0.70914280833E+02  0.00000000000E+00 0. -1.
        -11    1    5    5    0    0 -0.17644247705E+03 -0.59217059491E+03 -0.97909757283E+02  0.62560713052E+03  0.00000000000E+00 0.  1.
          3    1    6    6  503    0  0.11730392386E+02  0.15580551144E+02  0.19452722082E+02  0.27545672544E+02  0.00000000000E+00 0. -1.
         -3    1    6    6    0  503 -0.15622387400E+03  0.16665184661E+03  0.29193473483E+03  0.37068130002E+03  0.00000000000E+00 0.  1.
<mgrwt>
<rscale>  0 0.22035174E+04</rscale>
<asrwt>0</asrwt>
<pdfrwt beam="1">  1        2 0.39114118E+00 0.22035174E+04</pdfrwt>
<pdfrwt beam="2">  1       -1 0.73453535E-01 0.22035174E+04</pdfrwt>
<totfact> 0.63873776E+00</totfact>
</mgrwt>
</event>
<event>
12    6  0.1611689E-007  0.1627094E+04  0.7818608E-02  0.8804074E-01
         -1   -1    0    0    0  501 -0.00000000000E+00  0.00000000000E+00  0.37233462406E+03  0.37233462406E+03  0.00000000000E+00 0.  1.
          2   -1    0    0  501    0  0.00000000000E+00 -0.00000000000E+00 -0.17775907464E+04  0.17775907464E+04  0.00000000000E+00 0. -1.
         24    2    1    2    0    0 -0.33931013779E+02  0.11782085347E+03  0.23255167299E+03  0.27456020781E+03  0.79183078350E+02 0.  0.
        254    2    1    2    0    0  0.33931013779E+02 -0.11782085347E+03 -0.16378077953E+04  0.18753651626E+04  0.90528838036E+03 0.  0.
         23    2    4    4    0    0 -0.23973386475E+03 -0.40260301056E+03 -0.63863106427E+03  0.79706849739E+03  0.88921556859E+02 0.  0.
         23    2    4    4    0    0  0.27366487853E+03  0.28478215709E+03 -0.99917673106E+03  0.10782966653E+04  0.91521667705E+02 0.  0.
          4    1    3    3  502    0  0.23985225965E+02  0.43159142789E+02  0.10285228851E+03  0.11409029724E+03  0.00000000000E+00 0. -1.
         -3    1    3    3    0  502 -0.57916239744E+02  0.74661710681E+02  0.12969938447E+03  0.16046991058E+03  0.00000000000E+00 0.  1.
         11    1    5    5    0    0  0.43481309967E-01 -0.32161780687E+02 -0.22637832531E+02  0.39330058343E+02  0.00000000000E+00 0. -1.
        -11    1    5    5    0    0 -0.23977734606E+03 -0.37044122987E+03 -0.61599323173E+03  0.75773843905E+03  0.00000000000E+00 0.  1.
          3    1    6    6  503    0  0.39641049551E+02  0.31842401865E+02 -0.22848592140E+03  0.23407513248E+03  0.00000000000E+00 0. -1.
         -3    1    6    6    0  503  0.23402382898E+03  0.25293975522E+03 -0.77069080966E+03  0.84422153277E+03  0.00000000000E+00 0.  1.
<mgrwt>
<rscale>  0 0.16270938E+04</rscale>
<asrwt>0</asrwt>
<pdfrwt beam="1">  1        2 0.27347550E+00 0.16270938E+04</pdfrwt>
<pdfrwt beam="2">  1       -1 0.57282250E-01 0.16270938E+04</pdfrwt>
<totfact> 0.29872240E+01</totfact>
</mgrwt>
</event>
<event>
12    6  0.1611689E-007  0.2337301E+04  0.7818608E-02  0.8463357E-01
         -1   -1    0    0    0  501 -0.00000000000E+00  0.00000000000E+00  0.49486346085E+03  0.49486346085E+03  0.00000000000E+00 0.  1.
          2   -1    0    0  501    0  0.00000000000E+00 -0.00000000000E+00 -0.27598410753E+04  0.27598410753E+04  0.00000000000E+00 0. -1.
         24    2    1    2    0    0 -0.59852301535E+03 -0.77405571962E+03 -0.70609881692E+03  0.12092278090E+04  0.79147317396E+02 0.  0.
        254    2    1    2    0    0  0.59852301535E+03  0.77405571962E+03 -0.15588787975E+04  0.20454767271E+04  0.89245721403E+03 0.  0.
         23    2    4    4    0    0  0.60222568670E+03  0.78456185301E+03 -0.16473175337E+04  0.19236874633E+04  0.93302307711E+02 0.  0.
         23    2    4    4    0    0 -0.37026713520E+01 -0.10506133384E+02  0.88438736217E+02  0.12178926382E+03  0.82988710700E+02 0.  0.
          4    1    3    3  502    0 -0.10738355162E+03 -0.14544679692E+03 -0.16947408628E+03  0.24780529416E+03  0.00000000000E+00 0. -1.
         -3    1    3    3    0  502 -0.49113946373E+03 -0.62860892270E+03 -0.53662473064E+03  0.96142251486E+03  0.00000000000E+00 0.  1.
         11    1    5    5    0    0  0.20002241685E+02  0.67848874737E+01 -0.47204123207E+02  0.51714152977E+02  0.00000000000E+00 0. -1.
        -11    1    5    5    0    0  0.58222344502E+03  0.77777696553E+03 -0.16001134105E+04  0.18719733103E+04  0.00000000000E+00 0.  1.
          1    1    6    6  503    0  0.66155870628E+01 -0.39225317734E+02  0.15443604965E+02  0.42671963604E+02  0.00000000000E+00 0. -1.
         -1    1    6    6    0  503 -0.10318258415E+02  0.28719184350E+02  0.72995131253E+02  0.79117300213E+02  0.00000000000E+00 0.  1.
<mgrwt>
<rscale>  0 0.23373014E+04</rscale>
<asrwt>0</asrwt>
<pdfrwt beam="1">  1        2 0.42459092E+00 0.23373014E+04</pdfrwt>
<pdfrwt beam="2">  1       -1 0.76132842E-01 0.23373014E+04</pdfrwt>
<totfact> 0.43568739E+00</totfact>
</mgrwt>
</event>
<event>
12    6  0.1611689E-007  0.2062831E+04  0.7818608E-02  0.8577796E-01
          2   -1    0    0  501    0  0.00000000000E+00  0.00000000000E+00  0.17684266098E+04  0.17684266098E+04  0.00000000000E+00 0. -1.
         -1   -1    0    0    0  501 -0.00000000000E+00 -0.00000000000E+00 -0.60156176133E+03  0.60156176133E+03  0.00000000000E+00 0.  1.
         24    2    1    2    0    0  0.64287349295E+01  0.76632891293E+03  0.12292022760E+03  0.78015775282E+03  0.78964583924E+02 0.  0.
        254    2    1    2    0    0 -0.64287349295E+01 -0.76632891293E+03  0.10439446209E+04  0.15898306183E+04  0.92219287141E+03 0.  0.
         23    2    4    4    0    0  0.23834419855E+03 -0.59097578149E+03  0.17717213481E+03  0.66762819838E+03  0.90978649300E+02 0.  0.
         23    2    4    4    0    0 -0.24477293348E+03 -0.17535313144E+03  0.86677248607E+03  0.92220241994E+03  0.92196806177E+02 0.  0.
          2    1    3    3  502    0  0.13759129400E+02  0.75727060212E+03  0.11502015896E+03  0.76607944461E+03  0.00000000000E+00 0. -1.
         -1    1    3    3    0  502 -0.73303944705E+01  0.90583108040E+01  0.79000686379E+01  0.14078308215E+02  0.00000000000E+00 0.  1.
         11    1    5    5    0    0  0.10939639201E+03 -0.37821703513E+03  0.12822577866E+03  0.41407432492E+03  0.00000000000E+00 0.  1.
        -11    1    5    5    0    0  0.12894780654E+03 -0.21275874636E+03  0.48946356144E+02  0.25355387346E+03  0.00000000000E+00 0. -1.
          2    1    6    6  503    0 -0.15419780378E+03 -0.12455661099E+03  0.68228404502E+03  0.71049477840E+03  0.00000000000E+00 0. -1.
         -2    1    6    6    0  503 -0.90575129702E+02 -0.50796520444E+02  0.18448844104E+03  0.21170764154E+03  0.00000000000E+00 0.  1.
<mgrwt>
<rscale>  0 0.20628309E+04</rscale>
<asrwt>0</asrwt>
<pdfrwt beam="1">  1        2 0.27206563E+00 0.20628309E+04</pdfrwt>
<pdfrwt beam="2">  1       -1 0.92547964E-01 0.20628309E+04</pdfrwt>
<totfact> 0.10736495E+01</totfact>
</mgrwt>
</event>
<event>
12    6  0.1611689E-007  0.1178590E+04  0.7818608E-02  0.9131806E-01
          2   -1    0    0  501    0  0.00000000000E+00  0.00000000000E+00  0.39857369545E+03  0.39857369545E+03  0.00000000000E+00 0. -1.
         -1   -1    0    0    0  501 -0.00000000000E+00 -0.00000000000E+00 -0.87127834318E+03  0.87127834318E+03  0.00000000000E+00 0.  1.
         24    2    1    2    0    0 -0.17838834929E+02 -0.92043904354E+01 -0.21188873218E+03  0.22753816928E+03  0.80460169125E+02 0.  0.
        254    2    1    2    0    0  0.17838834929E+02  0.92043904354E+01 -0.26081591554E+03  0.10423138694E+04  0.10089550612E+04 0.  0.
         23    2    4    4    0    0 -0.17418976586E+02  0.49477883346E+03 -0.20599131713E+03  0.54402807490E+03  0.91785667560E+02 0.  0.
         23    2    4    4    0    0  0.35257811515E+02 -0.48557444302E+03 -0.54824598412E+02  0.49828579445E+03  0.90869925539E+02 0.  0.
          4    1    3    3  502    0  0.84765680443E+01  0.83335157985E+01 -0.18678136914E+03  0.18715923581E+03  0.00000000000E+00 0. -1.
         -3    1    3    3    0  502 -0.26315402973E+02 -0.17537906234E+02 -0.25107363044E+02  0.40378933465E+02  0.00000000000E+00 0.  1.
         11    1    5    5    0    0  0.61661523955E+01  0.32039357681E+03 -0.17572465521E+03  0.36547122998E+03  0.00000000000E+00 0.  1.
        -11    1    5    5    0    0 -0.23585128982E+02  0.17438525665E+03 -0.30266661922E+02  0.17855684492E+03  0.00000000000E+00 0. -1.
          2    1    6    6  503    0 -0.23023411430E+02 -0.21619216862E+03 -0.74718840497E+00  0.21741593672E+03  0.00000000000E+00 0.  1.
         -2    1    6    6    0  503  0.58281222945E+02 -0.26938227440E+03 -0.54077410007E+02  0.28086985773E+03  0.00000000000E+00 0. -1.
<mgrwt>
<rscale>  0 0.11785901E+04</rscale>
<asrwt>0</asrwt>
<pdfrwt beam="1">  1        2 0.61319031E-01 0.11785901E+04</pdfrwt>
<pdfrwt beam="2">  1       -1 0.13404282E+00 0.11785901E+04</pdfrwt>
<totfact> 0.42370104E+01</totfact>
</mgrwt>
</event>
<event>
12    6  0.1611689E-007  0.2224862E+04  0.7818608E-02  0.8508151E-01
         -1   -1    0    0    0  501 -0.00000000000E+00  0.00000000000E+00  0.49455588742E+03  0.49455588742E+03  0.00000000000E+00 0.  1.
          2   -1    0    0  501    0  0.00000000000E+00 -0.00000000000E+00 -0.25022497482E+04  0.25022497482E+04  0.00000000000E+00 0. -1.
         24    2    1    2    0    0 -0.68075880276E+03 -0.59463917136E+03 -0.56339611884E+03  0.10686329877E+04  0.86792765136E+02 0.  0.
        254    2    1    2    0    0  0.68075880276E+03  0.59463917136E+03 -0.14442977420E+04  0.19281726479E+04  0.90267685306E+03 0.  0.
         23    2    4    4    0    0  0.57415900190E+03 -0.50375215075E+02 -0.89716325499E+03  0.10707787054E+04  0.97308314063E+02 0.  0.
         23    2    4    4    0    0  0.10659980087E+03  0.64501438643E+03 -0.54713448696E+03  0.85739394254E+03  0.91439322150E+02 0.  0.
          4    1    3    3  502    0 -0.61643524110E+03 -0.55630092871E+03 -0.53872312178E+03  0.98979075147E+03  0.00000000000E+00 0. -1.
         -3    1    3    3    0  502 -0.64323561658E+02 -0.38338242649E+02 -0.24672997063E+02  0.78842236256E+02  0.00000000000E+00 0.  1.
         11    1    5    5    0    0  0.33989005589E+03 -0.22963295150E+02 -0.61469405072E+03  0.70278114588E+03  0.00000000000E+00 0.  1.
        -11    1    5    5    0    0  0.23426894601E+03 -0.27411919925E+02 -0.28246920427E+03  0.36799755947E+03  0.00000000000E+00 0. -1.
          2    1    6    6  503    0  0.98442253300E+02  0.34090074274E+03 -0.31888435603E+03  0.47706543173E+03  0.00000000000E+00 0.  1.
         -2    1    6    6    0  503  0.81575475660E+01  0.30411364370E+03 -0.22825013093E+03  0.38032851081E+03  0.00000000000E+00 0. -1.
<mgrwt>
<rscale>  0 0.22248617E+04</rscale>
<asrwt>0</asrwt>
<pdfrwt beam="1">  1        2 0.38496151E+00 0.22248617E+04</pdfrwt>
<pdfrwt beam="2">  1       -1 0.76085520E-01 0.22248617E+04</pdfrwt>
<totfact> 0.62499098E+00</totfact>
</mgrwt>
</event>
<event>
12    6  0.1611689E-007  0.1403998E+04  0.7818608E-02  0.8950929E-01
         -1   -1    0    0    0  501 -0.00000000000E+00  0.00000000000E+00  0.47670658146E+03  0.47670658146E+03  0.00000000000E+00 0.  1.
          2   -1    0    0  501    0  0.00000000000E+00 -0.00000000000E+00 -0.10337655391E+04  0.10337655391E+04  0.00000000000E+00 0. -1.
         24    2    1    2    0    0  0.36720386773E+03 -0.15626261890E+03 -0.27382264334E+03  0.49047688117E+03  0.79574144134E+02 0.  0.
        254    2    1    2    0    0 -0.36720386773E+03  0.15626261890E+03 -0.28323631433E+03  0.10199952394E+04  0.89493619446E+03 0.  0.
         23    2    4    4    0    0 -0.29087992323E+03  0.49272192594E+03 -0.31751573780E+03  0.66022223796E+03  0.87699108952E+02 0.  0.
         23    2    4    4    0    0 -0.76323944497E+02 -0.33645930704E+03  0.34279423468E+02  0.35977300146E+03  0.96079778896E+02 0.  0.
          4    1    3    3  502    0  0.36555952942E+03 -0.15995029509E+03 -0.26043012889E+03  0.47648894896E+03  0.00000000000E+00 0. -1.
         -3    1    3    3    0  502  0.16443383104E+01  0.36876761880E+01 -0.13392514453E+02  0.13987932210E+02  0.00000000000E+00 0.  1.
         11    1    5    5    0    0 -0.14984898480E+03  0.27408209833E+03 -0.22132104100E+03  0.38282988136E+03  0.00000000000E+00 0. -1.
        -11    1    5    5    0    0 -0.14103093843E+03  0.21863982761E+03 -0.96194696802E+02  0.27739235661E+03  0.00000000000E+00 0.  1.
          3    1    6    6  503    0 -0.28505270866E+02 -0.92201414232E+02  0.53129972774E+02  0.11016553572E+03  0.00000000000E+00 0. -1.
         -3    1    6    6    0  503 -0.47818673631E+02 -0.24425789281E+03 -0.18850549306E+02  0.24960746574E+03  0.00000000000E+00 0.  1.
<mgrwt>
<rscale>  0 0.14039983E+04</rscale>
<asrwt>0</asrwt>
<pdfrwt beam="1">  1        2 0.15904085E+00 0.14039983E+04</pdfrwt>
<pdfrwt beam="2">  1       -1 0.73339475E-01 0.14039983E+04</pdfrwt>
<totfact> 0.49852523E+01</totfact>
</mgrwt>
</event>
<event>
12    6  0.1611689E-007  0.1159824E+04  0.7818608E-02  0.9148768E-01
          2   -1    0    0  501    0  0.00000000000E+00  0.00000000000E+00  0.22621333889E+04  0.22621333889E+04  0.00000000000E+00 0. -1.
         -3   -1    0    0    0  501 -0.00000000000E+00 -0.00000000000E+00 -0.14866413099E+03  0.14866413099E+03  0.00000000000E+00 0.  1.
         24    2    1    2    0    0 -0.13256094760E+03 -0.17344182907E+03  0.30837963064E+03  0.38601056118E+03  0.79067590404E+02 0.  0.
        254    2    1    2    0    0  0.13256094760E+03  0.17344182907E+03  0.18050896273E+04  0.20247869587E+04  0.89093164314E+03 0.  0.
         23    2    4    4    0    0 -0.36991290519E+02  0.83167134595E+02 -0.64306359593E+02  0.14335490026E+03  0.90167575620E+02 0.  0.
         23    2    4    4    0    0  0.16955223812E+03  0.90274694477E+02  0.18693959869E+04  0.18814320585E+04  0.90817139928E+02 0.  0.
          2    1    3    3  502    0 -0.11228460262E+02  0.79847537347E+01  0.15305669856E+02  0.20593643238E+02  0.00000000000E+00 0. -1.
         -1    1    3    3    0  502 -0.12133248734E+03 -0.18142658281E+03  0.29307396078E+03  0.36541691795E+03  0.00000000000E+00 0.  1.
         11    1    5    5    0    0 -0.64275666453E+02  0.72942482827E+02 -0.38963639248E+02  0.10473839927E+03  0.00000000000E+00 0.  1.
        -11    1    5    5    0    0  0.27284375934E+02  0.10224651768E+02 -0.25342720345E+02  0.38616500986E+02  0.00000000000E+00 0. -1.
          2    1    6    6  503    0  0.21592132213E+02  0.13893597955E+02  0.73936041711E+02  0.78267429379E+02  0.00000000000E+00 0. -1.
         -2    1    6    6    0  503  0.14796010591E+03  0.76381096522E+02  0.17954599452E+04  0.18031646291E+04  0.00000000000E+00 0.  1.
<mgrwt>
<rscale>  0 0.11598243E+04</rscale>
<asrwt>0</asrwt>
<pdfrwt beam="1">  1        2 0.34802050E+00 0.11598243E+04</pdfrwt>
<pdfrwt beam="2">  1       -3 0.22871406E-01 0.11598243E+04</pdfrwt>
<totfact> 0.55311348E+01</totfact>
</mgrwt>
</event>
<event>
12    6  0.1611689E-007  0.1380010E+04  0.7818608E-02  0.8968417E-01
         -1   -1    0    0    0  501 -0.00000000000E+00  0.00000000000E+00  0.40846881155E+03  0.40846881155E+03  0.00000000000E+00 0.  1.
          2   -1    0    0  501    0  0.00000000000E+00 -0.00000000000E+00 -0.11655894520E+04  0.11655894520E+04  0.00000000000E+00 0. -1.
         24    2    1    2    0    0  0.19315560870E+03  0.27159429628E+03 -0.44480359358E+03  0.56153884691E+03  0.80019302520E+02 0.  0.
        254    2    1    2    0    0 -0.19315560870E+03 -0.27159429628E+03 -0.31231704690E+03  0.10125194167E+04  0.90364875943E+03 0.  0.
         23    2    4    4    0    0  0.37462217952E+02  0.12201924266E+02  0.28724078413E+03  0.30436566192E+03  0.92622261691E+02 0.  0.
         23    2    4    4    0    0 -0.23061782666E+03 -0.28379622054E+03 -0.59955783103E+03  0.70815375476E+03  0.91034448796E+02 0.  0.
          4    1    3    3  502    0  0.10488468192E+03  0.13493747838E+03 -0.29203298792E+03  0.33836693930E+03  0.00000000000E+00 0. -1.
         -3    1    3    3    0  502  0.88270926781E+02  0.13665681789E+03 -0.15277060566E+03  0.22317190761E+03  0.00000000000E+00 0.  1.
         11    1    5    5    0    0 -0.20066135345E+02  0.75677547081E+01  0.19059965042E+03  0.19180236557E+03  0.00000000000E+00 0.  1.
        -11    1    5    5    0    0  0.57528353297E+02  0.46341695578E+01  0.96641133707E+02  0.11256329635E+03  0.00000000000E+00 0. -1.
          4    1    6    6  503    0 -0.13127570573E+03 -0.11598658319E+03 -0.21809634731E+03  0.27973597392E+03  0.00000000000E+00 0. -1.
         -4    1    6    6    0  503 -0.99342120923E+02 -0.16780963735E+03 -0.38146148372E+03  0.42841778084E+03  0.00000000000E+00 0.  1.
<mgrwt>
<rscale>  0 0.13800101E+04</rscale>
<asrwt>0</asrwt>
<pdfrwt beam="1">  1        2 0.17932145E+00 0.13800101E+04</pdfrwt>
<pdfrwt beam="2">  1       -1 0.62841356E-01 0.13800101E+04</pdfrwt>
<totfact> 0.56710160E+01</totfact>
</mgrwt>
</event>
<event>
12    6  0.1611689E-007  0.1672452E+04  0.7818608E-02  0.8777234E-01
         -1   -1    0    0    0  501 -0.00000000000E+00  0.00000000000E+00  0.65751696842E+03  0.65751696842E+03  0.00000000000E+00 0.  1.
          2   -1    0    0  501    0  0.00000000000E+00 -0.00000000000E+00 -0.10635067578E+04  0.10635067578E+04  0.00000000000E+00 0. -1.
         24    2    1    2    0    0  0.11682769275E+02 -0.18238108954E+03 -0.72274262446E+03  0.75000839417E+03  0.82196965925E+02 0.  0.
        254    2    1    2    0    0 -0.11682769275E+02  0.18238108954E+03  0.31675283504E+03  0.97101533208E+03  0.89952157713E+03 0.  0.
         23    2    4    4    0    0  0.20322064267E+03  0.48194407864E+03  0.24337252070E+03  0.58414761680E+03  0.91812471072E+02 0.  0.
         23    2    4    4    0    0 -0.21490341195E+03 -0.29956298910E+03  0.73380314342E+02  0.38686771528E+03  0.91435757165E+02 0.  0.
          4    1    3    3  502    0  0.61367868780E+01 -0.14891589378E+03 -0.67611309453E+03  0.69234566524E+03  0.00000000000E+00 0. -1.
         -3    1    3    3    0  502  0.55459823969E+01 -0.33465195753E+02 -0.46629529924E+02  0.57662728937E+02  0.00000000000E+00 0.  1.
         11    1    5    5    0    0  0.86164508136E+02  0.24416052043E+03  0.16784339262E+03  0.30856131748E+03  0.00000000000E+00 0. -1.
        -11    1    5    5    0    0  0.11705613454E+03  0.23778355821E+03  0.75529128079E+02  0.27558629932E+03  0.00000000000E+00 0.  1.
          2    1    6    6  503    0 -0.10090046710E+03 -0.13257533566E+03  0.79462422700E+02  0.18458439942E+03  0.00000000000E+00 0.  1.
         -2    1    6    6    0  503 -0.11400294485E+03 -0.16698765343E+03 -0.60821083586E+01  0.20228331586E+03  0.00000000000E+00 0. -1.
<mgrwt>
<rscale>  0 0.16724518E+04</rscale>
<asrwt>0</asrwt>
<pdfrwt beam="1">  1        2 0.16361642E+00 0.16724518E+04</pdfrwt>
<pdfrwt beam="2">  1       -1 0.10115646E+00 0.16724518E+04</pdfrwt>
<totfact> 0.23182885E+01</totfact>
</mgrwt>
</event>
<event>
12    6  0.1611689E-007  0.1742202E+04  0.7818608E-02  0.8737655E-01
         -1   -1    0    0    0  501 -0.00000000000E+00  0.00000000000E+00  0.77815970940E+03  0.77815970940E+03  0.00000000000E+00 0.  1.
          2   -1    0    0  501    0  0.00000000000E+00 -0.00000000000E+00 -0.97514261870E+03  0.97514261870E+03  0.00000000000E+00 0. -1.
         24    2    1    2    0    0 -0.52219209709E+03 -0.10544798347E+03  0.27449389595E+03  0.60467297599E+03  0.80490033470E+02 0.  0.
        254    2    1    2    0    0  0.52219209709E+03  0.10544798347E+03 -0.47147680526E+03  0.11486293521E+04  0.90180660185E+03 0.  0.
         23    2    4    4    0    0  0.34269918579E+03 -0.35650922995E+03 -0.77866933510E+02  0.50928955708E+03  0.93653780696E+02 0.  0.
         23    2    4    4    0    0  0.17949291130E+03  0.46195721342E+03 -0.39360987174E+03  0.63933979502E+03  0.90578530138E+02 0.  0.
          4    1    3    3  502    0 -0.12115345555E+02 -0.16984015515E+02  0.73579939151E+01  0.22121899905E+02  0.00000000000E+00 0. -1.
         -3    1    3    3    0  502 -0.51007675154E+03 -0.88463967955E+02  0.26713590204E+03  0.58255107608E+03  0.00000000000E+00 0.  1.
         11    1    5    5    0    0  0.12822406385E+03 -0.14811968842E+03 -0.76300030636E+02  0.21024401851E+03  0.00000000000E+00 0. -1.
        -11    1    5    5    0    0  0.21447512194E+03 -0.20838954154E+03 -0.15669028737E+01  0.29904553857E+03  0.00000000000E+00 0.  1.
          3    1    6    6  503    0  0.92930410214E+00  0.80284756689E+02 -0.42447576452E+02  0.90820165764E+02  0.00000000000E+00 0. -1.
         -3    1    6    6    0  503  0.17856360720E+03  0.38167245673E+03 -0.35116229529E+03  0.54851962926E+03  0.00000000000E+00 0.  1.
<mgrwt>
<rscale>  0 0.17422017E+04</rscale>
<asrwt>0</asrwt>
<pdfrwt beam="1">  1        2 0.15002194E+00 0.17422017E+04</pdfrwt>
<pdfrwt beam="2">  1       -1 0.11971688E+00 0.17422017E+04</pdfrwt>
<totfact> 0.17615511E+01</totfact>
</mgrwt>
</event>
<event>
12    6  0.1611689E-007  0.2424127E+04  0.7818608E-02  0.8430526E-01
          2   -1    0    0  501    0  0.00000000000E+00  0.00000000000E+00  0.29921022440E+04  0.29921022440E+04  0.00000000000E+00 0. -1.
         -1   -1    0    0    0  501 -0.00000000000E+00 -0.00000000000E+00 -0.49099202755E+03  0.49099202755E+03  0.00000000000E+00 0.  1.
         24    2    1    2    0    0 -0.58105457355E+03 -0.41572829304E+02  0.23184480264E+04  0.23918483072E+04  0.79902165757E+02 0.  0.
        254    2    1    2    0    0  0.58105457355E+03  0.41572829304E+02  0.18266219009E+03  0.10912459644E+04  0.90448856349E+03 0.  0.
         23    2    4    4    0    0 -0.33497333858E+02  0.35773292961E+03  0.12766486165E+03  0.39199269351E+03  0.90912235463E+02 0.  0.
         23    2    4    4    0    0  0.61455190741E+03 -0.31616010031E+03  0.54997328441E+02  0.69925327086E+03  0.91099806523E+02 0.  0.
          4    1    3    3  502    0 -0.56966149619E+03 -0.37700466508E+02  0.22029447565E+04  0.22757199181E+04  0.00000000000E+00 0. -1.
         -3    1    3    3    0  502 -0.11393077355E+02 -0.38723627962E+01  0.11550326988E+03  0.11612838912E+03  0.00000000000E+00 0.  1.
         11    1    5    5    0    0 -0.37951963106E+02  0.36050944794E+03  0.11840603543E+03  0.38134944970E+03  0.00000000000E+00 0. -1.
        -11    1    5    5    0    0  0.44546292484E+01 -0.27765183300E+01  0.92588262180E+01  0.10643243806E+02  0.00000000000E+00 0.  1.
          2    1    6    6  503    0  0.45354737299E+03 -0.27675627949E+03  0.43700378735E+02  0.53311254054E+03  0.00000000000E+00 0. -1.
         -2    1    6    6    0  503  0.16100453442E+03 -0.39403820823E+02  0.11296949706E+02  0.16614073032E+03  0.00000000000E+00 0.  1.
<mgrwt>
<rscale>  0 0.24241273E+04</rscale>
<asrwt>0</asrwt>
<pdfrwt beam="1">  1        2 0.46032341E+00 0.24241273E+04</pdfrwt>
<pdfrwt beam="2">  1       -1 0.75537237E-01 0.24241273E+04</pdfrwt>
<totfact> 0.31675331E+00</totfact>
</mgrwt>
</event>
<event>
12    6  0.1611689E-007  0.2152847E+04  0.7818608E-02  0.8538315E-01
         -1   -1    0    0    0  501 -0.00000000000E+00  0.00000000000E+00  0.53342172577E+03  0.53342172577E+03  0.00000000000E+00 0.  1.
          2   -1    0    0  501    0  0.00000000000E+00 -0.00000000000E+00 -0.21721788198E+04  0.21721788198E+04  0.00000000000E+00 0. -1.
         24    2    1    2    0    0  0.68946346379E+03 -0.83184169487E+02  0.17290698803E+02  0.69928775139E+03  0.80155580124E+02 0.  0.
        254    2    1    2    0    0 -0.68946346379E+03  0.83184169487E+02 -0.16560477929E+04  0.20063127942E+04  0.89471630253E+03 0.  0.
         23    2    4    4    0    0 -0.29391789052E+03  0.28473683613E+03 -0.16993260503E+03  0.45267740595E+03  0.92611831780E+02 0.  0.
         23    2    4    4    0    0 -0.39554557327E+03 -0.20155266665E+03 -0.14861151878E+04  0.15536353883E+04  0.90359228619E+02 0.  0.
          2    1    3    3  502    0  0.52301487872E+03 -0.96327831503E+02  0.21827714139E+02  0.53225939503E+03  0.00000000000E+00 0. -1.
         -1    1    3    3    0  502  0.16644858507E+03  0.13143662016E+02 -0.45370153362E+01  0.16702835636E+03  0.00000000000E+00 0.  1.
         11    1    5    5    0    0 -0.25485909174E+03  0.26394881230E+03 -0.12016535246E+03  0.38608528085E+03  0.00000000000E+00 0. -1.
        -11    1    5    5    0    0 -0.39058798777E+02  0.20788023831E+02 -0.49767252565E+02  0.66592125094E+02  0.00000000000E+00 0.  1.
          3    1    6    6  503    0 -0.14254367378E+03 -0.99825806168E+02 -0.70978378986E+03  0.73080566422E+03  0.00000000000E+00 0. -1.
         -3    1    6    6    0  503 -0.25300189950E+03 -0.10172686048E+03 -0.77633139796E+03  0.82282972403E+03  0.00000000000E+00 0.  1.
<mgrwt>
<rscale>  0 0.21528468E+04</rscale>
<asrwt>0</asrwt>
<pdfrwt beam="1">  1        2 0.33418135E+00 0.21528468E+04</pdfrwt>
<pdfrwt beam="2">  1       -1 0.82064882E-01 0.21528468E+04</pdfrwt>
<totfact> 0.82574439E+00</totfact>
</mgrwt>
</event>
<event>
12    6  0.1611689E-007  0.1993506E+04  0.7818608E-02  0.8609663E-01
          2   -1    0    0  501    0  0.00000000000E+00  0.00000000000E+00  0.16751992424E+04  0.16751992424E+04  0.00000000000E+00 0. -1.
         -1   -1    0    0    0  501 -0.00000000000E+00 -0.00000000000E+00 -0.59307372651E+03  0.59307372651E+03  0.00000000000E+00 0.  1.
         24    2    1    2    0    0 -0.66275581962E+03  0.35009607251E+03  0.69279708651E+03  0.10238506525E+04  0.80559413376E+02 0.  0.
        254    2    1    2    0    0  0.66275581962E+03 -0.35009607251E+03  0.38932842938E+03  0.12444223164E+04  0.91389153583E+03 0.  0.
         23    2    4    4    0    0  0.52451447363E+02  0.98456653277E+02  0.45595704772E+03  0.47832648322E+03  0.91948508836E+02 0.  0.
         23    2    4    4    0    0  0.61030437226E+03 -0.44855272579E+03 -0.66628618337E+02  0.76609583321E+03  0.93768215664E+02 0.  0.
          4    1    3    3  502    0 -0.64154643581E+03  0.32301144322E+03  0.67220896220E+03  0.98375968134E+03  0.00000000000E+00 0. -1.
         -1    1    3    3    0  502 -0.21209383810E+02  0.27084629284E+02  0.20588124314E+02  0.40090971151E+02  0.00000000000E+00 0.  1.
         11    1    5    5    0    0  0.62371521198E+01  0.90200879941E+02  0.36422047705E+03  0.37527544113E+03  0.00000000000E+00 0. -1.
        -11    1    5    5    0    0  0.46214295243E+02  0.82557733365E+01  0.91736570668E+02  0.10305104209E+03  0.00000000000E+00 0.  1.
          1    1    6    6  503    0  0.59951662886E+03 -0.45310723995E+03 -0.65512735896E+02  0.75433300189E+03  0.00000000000E+00 0. -1.
         -1    1    6    6    0  503  0.10787743400E+02  0.45545141681E+01 -0.11158824415E+01  0.11762831317E+02  0.00000000000E+00 0.  1.
<mgrwt>
<rscale>  0 0.19935061E+04</rscale>
<asrwt>0</asrwt>
<pdfrwt beam="1">  1        2 0.25772296E+00 0.19935061E+04</pdfrwt>
<pdfrwt beam="2">  1       -1 0.91242112E-01 0.19935061E+04</pdfrwt>
<totfact> 0.12560034E+01</totfact>
</mgrwt>
</event>
<event>
12    6  0.1611689E-007  0.2423315E+04  0.7818608E-02  0.8430826E-01
         -1   -1    0    0    0  501 -0.00000000000E+00  0.00000000000E+00  0.56516583389E+03  0.56516583389E+03  0.00000000000E+00 0.  1.
          2   -1    0    0  501    0  0.00000000000E+00 -0.00000000000E+00 -0.25976685489E+04  0.25976685489E+04  0.00000000000E+00 0. -1.
         24    2    1    2    0    0  0.57703759924E+03 -0.18316014363E+03  0.22909713884E+03  0.65210000661E+03  0.78923320040E+02 0.  0.
        254    2    1    2    0    0 -0.57703759924E+03  0.18316014363E+03 -0.22615998538E+04  0.25107343762E+04  0.90688101734E+03 0.  0.
         23    2    4    4    0    0 -0.55226605852E+03  0.18610151680E+03 -0.58199486071E+03  0.82861197533E+03  0.90819677521E+02 0.  0.
         23    2    4    4    0    0 -0.24771540721E+02 -0.29413731724E+01 -0.16796049931E+04  0.16821224008E+04  0.88546922792E+02 0.  0.
          2    1    3    3  502    0  0.30954290668E+03 -0.10283685118E+03  0.16503619798E+03  0.36555324602E+03  0.00000000000E+00 0. -1.
         -1    1    3    3    0  502  0.26749469256E+03 -0.80323292456E+02  0.64060940862E+02  0.28654676059E+03  0.00000000000E+00 0.  1.
         11    1    5    5    0    0 -0.23721761038E+03  0.74445764178E+02 -0.31194396870E+03  0.39890275267E+03  0.00000000000E+00 0.  1.
        -11    1    5    5    0    0 -0.31504844813E+03  0.11165575263E+03 -0.27005089201E+03  0.42970922267E+03  0.00000000000E+00 0. -1.
          2    1    6    6  503    0 -0.29803453120E+02 -0.90203459198E+01 -0.16667339162E+04  0.16670247628E+04  0.00000000000E+00 0. -1.
         -2    1    6    6    0  503  0.50319123991E+01  0.60789727474E+01 -0.12871076910E+02  0.15097637990E+02  0.00000000000E+00 0.  1.
<mgrwt>
<rscale>  0 0.24233147E+04</rscale>
<asrwt>0</asrwt>
<pdfrwt beam="1">  1        2 0.39964131E+00 0.24233147E+04</pdfrwt>
<pdfrwt beam="2">  1       -1 0.86948591E-01 0.24233147E+04</pdfrwt>
<totfact> 0.40610292E+00</totfact>
</mgrwt>
</event>
<event>
12    6  0.1611689E-007  0.2057109E+04  0.7818608E-02  0.8580376E-01
          2   -1    0    0  501    0  0.00000000000E+00  0.00000000000E+00  0.13363280718E+04  0.13363280718E+04  0.00000000000E+00 0. -1.
         -1   -1    0    0    0  501 -0.00000000000E+00 -0.00000000000E+00 -0.79166512352E+03  0.79166512352E+03  0.00000000000E+00 0.  1.
         24    2    1    2    0    0 -0.69837975694E+03  0.31043181297E+03 -0.11646557359E+03  0.77726989230E+03  0.80511242980E+02 0.  0.
        254    2    1    2    0    0  0.69837975694E+03 -0.31043181297E+03  0.66112852185E+03  0.13507233030E+04  0.89624791407E+03 0.  0.
         23    2    4    4    0    0  0.82283485067E+03 -0.32234879317E+03  0.26713823740E+03  0.92723252766E+03  0.86205490188E+02 0.  0.
         23    2    4    4    0    0 -0.12445509373E+03  0.11916980199E+02  0.39399028445E+03  0.42349077534E+03  0.92114101992E+02 0.  0.
          2    1    3    3  502    0 -0.55502349558E+02  0.42615776563E+02 -0.27472499999E+02  0.75175484532E+02  0.00000000000E+00 0. -1.
         -1    1    3    3    0  502 -0.64287740738E+03  0.26781603640E+03 -0.88993073588E+02  0.70209440777E+03  0.00000000000E+00 0.  1.
         11    1    5    5    0    0  0.51115653260E+03 -0.23042444168E+03  0.13697778031E+03  0.57718223850E+03  0.00000000000E+00 0. -1.
        -11    1    5    5    0    0  0.31167831807E+03 -0.91924351490E+02  0.13016045709E+03  0.35005028916E+03  0.00000000000E+00 0.  1.
          2    1    6    6  503    0 -0.42731945984E+02  0.46924342663E+02  0.20566329051E+03  0.21523313454E+03  0.00000000000E+00 0. -1.
         -2    1    6    6    0  503 -0.81723147747E+02 -0.35007362464E+02  0.18832699394E+03  0.20825764080E+03  0.00000000000E+00 0.  1.
<mgrwt>
<rscale>  0 0.20571090E+04</rscale>
<asrwt>0</asrwt>
<pdfrwt beam="1">  1        2 0.20558893E+00 0.20571090E+04</pdfrwt>
<pdfrwt beam="2">  1       -1 0.12179463E+00 0.20571090E+04</pdfrwt>
<totfact> 0.99067544E+00</totfact>
</mgrwt>
</event>
<event>
12    6  0.1611689E-007  0.2468502E+04  0.7818608E-02  0.8414293E-01
          2   -1    0    0  501    0  0.00000000000E+00  0.00000000000E+00  0.10287974545E+04  0.10287974545E+04  0.00000000000E+00 0. -1.
         -1   -1    0    0    0  501 -0.00000000000E+00 -0.00000000000E+00 -0.14807345962E+04  0.14807345962E+04  0.00000000000E+00 0.  1.
         24    2    1    2    0    0 -0.99143869839E+03  0.18266950146E+03  0.17287110640E+03  0.10260224185E+04  0.80738741123E+02 0.  0.
        254    2    1    2    0    0  0.99143869839E+03 -0.18266950146E+03 -0.62480824810E+03  0.14835096323E+04  0.89112100347E+03 0.  0.
         23    2    4    4    0    0  0.25149142087E+03  0.26773406708E+02 -0.65528732932E+03  0.70806932682E+03  0.89420006347E+02 0.  0.
         23    2    4    4    0    0  0.73994727751E+03 -0.20944290817E+03  0.30479081216E+02  0.77544030549E+03  0.94817655008E+02 0.  0.
          4    1    3    3  502    0 -0.60959929482E+03  0.75609389004E+02  0.12109129170E+03  0.62609199075E+03  0.00000000000E+00 0. -1.
         -1    1    3    3    0  502 -0.38183940356E+03  0.10706011246E+03  0.51779814699E+02  0.39993042771E+03  0.00000000000E+00 0.  1.
         11    1    5    5    0    0  0.21229342287E+03  0.29041543306E+02 -0.61732769517E+03  0.65345649576E+03  0.00000000000E+00 0.  1.
        -11    1    5    5    0    0  0.39197998005E+02 -0.22681365984E+01 -0.37959634151E+02  0.54612831057E+02  0.00000000000E+00 0. -1.
          3    1    6    6  503    0  0.11102881993E+03 -0.32114712353E+02  0.38886369396E+02  0.12194631331E+03  0.00000000000E+00 0. -1.
         -3    1    6    6    0  503  0.62891845758E+03 -0.17732819582E+03 -0.84072881797E+01  0.65349399218E+03  0.00000000000E+00 0.  1.
<mgrwt>
<rscale>  0 0.24685024E+04</rscale>
<asrwt>0</asrwt>
<pdfrwt beam="1">  1        2 0.15827653E+00 0.24685024E+04</pdfrwt>
<pdfrwt beam="2">  1       -1 0.22780532E+00 0.24685024E+04</pdfrwt>
<totfact> 0.24024022E+00</totfact>
</mgrwt>
</event>
<event>
12    6  0.1611689E-007  0.1444341E+04  0.7818608E-02  0.8922333E-01
         -1   -1    0    0    0  501 -0.00000000000E+00  0.00000000000E+00  0.20876922898E+04  0.20876922898E+04  0.00000000000E+00 0.  1.
          2   -1    0    0  501    0  0.00000000000E+00 -0.00000000000E+00 -0.24981181564E+03  0.24981181564E+03  0.00000000000E+00 0. -1.
         24    2    1    2    0    0 -0.15066648863E+03 -0.39633165759E+03  0.70950646875E+03  0.83037574149E+03  0.79657198407E+02 0.  0.
        254    2    1    2    0    0  0.15066648863E+03  0.39633165759E+03  0.11283740054E+04  0.15071283640E+04  0.90467056751E+03 0.  0.
         23    2    4    4    0    0  0.70392957053E+02 -0.11223340770E+03 -0.89208619317E+02  0.18202030149E+03  0.87302383633E+02 0.  0.
         23    2    4    4    0    0  0.80273531580E+02  0.50856506529E+03  0.12175826247E+04  0.13251080625E+04  0.91223153043E+02 0.  0.
          4    1    3    3  502    0 -0.19124032561E+02 -0.73274278258E+02  0.76603288338E+02  0.10771681512E+03  0.00000000000E+00 0. -1.
         -3    1    3    3    0  502 -0.13154245607E+03 -0.32305737933E+03  0.63290318041E+03  0.72265892637E+03  0.00000000000E+00 0.  1.
         11    1    5    5    0    0 -0.47148875435E+01 -0.28056282834E+02  0.11604147186E+02  0.30725256759E+02  0.00000000000E+00 0. -1.
        -11    1    5    5    0    0  0.75107844597E+02 -0.84177124861E+02 -0.10081276650E+03  0.15129504473E+03  0.00000000000E+00 0.  1.
          1    1    6    6  503    0  0.20428349928E+02  0.64600827344E+02  0.24708507439E+03  0.25620620281E+03  0.00000000000E+00 0. -1.
         -1    1    6    6    0  503  0.59845181652E+02  0.44396423794E+03  0.97049755035E+03  0.10689018597E+04  0.00000000000E+00 0.  1.
<mgrwt>
<rscale>  0 0.14443410E+04</rscale>
<asrwt>0</asrwt>
<pdfrwt beam="1">  1        2 0.38432588E-01 0.14443410E+04</pdfrwt>
<pdfrwt beam="2">  1       -1 0.32118342E+00 0.14443410E+04</pdfrwt>
<totfact> 0.36158866E+00</totfact>
</mgrwt>
</event>
<event>
12    6  0.1611689E-007  0.3138664E+04  0.7818608E-02  0.8205206E-01
         -1   -1    0    0    0  501 -0.00000000000E+00  0.00000000000E+00  0.66525263548E+03  0.66525263548E+03  0.00000000000E+00 0.  1.
          2   -1    0    0  501    0  0.00000000000E+00 -0.00000000000E+00 -0.37020573959E+04  0.37020573959E+04  0.00000000000E+00 0. -1.
         24    2    1    2    0    0 -0.27836345216E+03  0.87669998994E+03  0.14562152031E+03  0.93489919557E+03  0.82108433466E+02 0.  0.
        254    2    1    2    0    0  0.27836345216E+03 -0.87669998994E+03 -0.31824262807E+04  0.34324108358E+04  0.89862006974E+03 0.  0.
         23    2    4    4    0    0 -0.18768310977E+03  0.72110051067E+02 -0.46388879822E+03  0.51412438803E+03  0.93307342143E+02 0.  0.
         23    2    4    4    0    0  0.46604656193E+03 -0.94881004100E+03 -0.27185374825E+04  0.29182864478E+04  0.92248879346E+02 0.  0.
          4    1    3    3  502    0 -0.18219943307E+03  0.60964987354E+03  0.63685799558E+02  0.63947281629E+03  0.00000000000E+00 0. -1.
         -3    1    3    3    0  502 -0.96164019090E+02  0.26705011640E+03  0.81935720749E+02  0.29542637928E+03  0.00000000000E+00 0.  1.
         11    1    5    5    0    0 -0.14993249869E+03  0.24199832624E+02 -0.38863023992E+03  0.41725154217E+03  0.00000000000E+00 0.  1.
        -11    1    5    5    0    0 -0.37750611084E+02  0.47910218444E+02 -0.75258558301E+02  0.96872845865E+02  0.00000000000E+00 0. -1.
          3    1    6    6  503    0  0.10056562219E+03 -0.29854433228E+03 -0.82929513120E+03  0.88711474869E+03  0.00000000000E+00 0. -1.
         -3    1    6    6    0  503  0.36548093974E+03 -0.65026570872E+03 -0.18892423513E+04  0.20311716991E+04  0.00000000000E+00 0.  1.
<mgrwt>
<rscale>  0 0.31386643E+04</rscale>
<asrwt>0</asrwt>
<pdfrwt beam="1">  1        2 0.56954729E+00 0.31386643E+04</pdfrwt>
<pdfrwt beam="2">  1       -1 0.10234656E+00 0.31386643E+04</pdfrwt>
<totfact> 0.50449777E-01</totfact>
</mgrwt>
</event>
<event>
12    6  0.1611689E-007  0.2029317E+04  0.7818608E-02  0.8593035E-01
         -1   -1    0    0    0  501 -0.00000000000E+00  0.00000000000E+00  0.71687869558E+03  0.71687869558E+03  0.00000000000E+00 0.  1.
          2   -1    0    0  501    0  0.00000000000E+00 -0.00000000000E+00 -0.14361309774E+04  0.14361309774E+04  0.00000000000E+00 0. -1.
         24    2    1    2    0    0 -0.41756479029E+03  0.26253772237E+02  0.45116938015E+03  0.62062153984E+03  0.81041171514E+02 0.  0.
        254    2    1    2    0    0  0.41756479029E+03 -0.26253772237E+02 -0.11704216620E+04  0.15323881331E+04  0.89625716685E+03 0.  0.
         23    2    4    4    0    0  0.52797656261E+03 -0.24697945800E+03 -0.11184580472E+04  0.12643560513E+04  0.88824083416E+02 0.  0.
         23    2    4    4    0    0 -0.11041177232E+03  0.22072568576E+03 -0.51963614804E+02  0.26803208186E+03  0.90721506938E+02 0.  0.
          2    1    3    3  502    0 -0.13057590613E+03  0.20043741163E+02  0.19710650866E+03  0.23728209915E+03  0.00000000000E+00 0. -1.
         -1    1    3    3    0  502 -0.28698888416E+03  0.62100310740E+01  0.25406287149E+03  0.38333944069E+03  0.00000000000E+00 0.  1.
         11    1    5    5    0    0  0.39045536409E+03 -0.18898104556E+03 -0.74359174236E+03  0.86087043522E+03  0.00000000000E+00 0.  1.
        -11    1    5    5    0    0  0.13752119851E+03 -0.57998412444E+02 -0.37486630481E+03  0.40348561606E+03  0.00000000000E+00 0. -1.
          4    1    6    6  503    0 -0.58688093152E+02  0.76718408762E+02  0.20473282973E+02  0.98737843993E+02  0.00000000000E+00 0. -1.
         -4    1    6    6    0  503 -0.51723679168E+02  0.14400727700E+03 -0.72436897776E+02  0.16929423787E+03  0.00000000000E+00 0.  1.
<mgrwt>
<rscale>  0 0.20293168E+04</rscale>
<asrwt>0</asrwt>
<pdfrwt beam="1">  1        2 0.22094323E+00 0.20293168E+04</pdfrwt>
<pdfrwt beam="2">  1       -1 0.11028903E+00 0.20293168E+04</pdfrwt>
<totfact> 0.11053896E+01</totfact>
</mgrwt>
</event>
<event>
12    6  0.1611689E-007  0.1283340E+04  0.7818608E-02  0.9042882E-01
         -3   -1    0    0    0  501 -0.00000000000E+00  0.00000000000E+00  0.29318833266E+03  0.29318833266E+03  0.00000000000E+00 0.  1.
          2   -1    0    0  501    0  0.00000000000E+00 -0.00000000000E+00 -0.14043548133E+04  0.14043548133E+04  0.00000000000E+00 0. -1.
         24    2    1    2    0    0  0.30980163906E+03  0.76757781110E+02 -0.57224681431E+02  0.33330837692E+03  0.77142708262E+02 0.  0.
        254    2    1    2    0    0 -0.30980163906E+03 -0.76757781110E+02 -0.10539417992E+04  0.13642347690E+04  0.80527906741E+03 0.  0.
         23    2    4    4    0    0 -0.20412541589E+03  0.32053089268E+03 -0.74761718707E+03  0.84361550249E+03  0.91369683542E+02 0.  0.
         23    2    4    4    0    0 -0.10567622317E+03 -0.39728867379E+03 -0.30632461213E+03  0.52061926654E+03  0.90575373219E+02 0.  0.
          4    1    3    3  502    0  0.10218395605E+03 -0.13273770867E+01 -0.43507365359E+02  0.11106850878E+03  0.00000000000E+00 0. -1.
         -3    1    3    3    0  502  0.20761768301E+03  0.78085158197E+02 -0.13717316073E+02  0.22223986814E+03  0.00000000000E+00 0.  1.
         11    1    5    5    0    0 -0.18220128366E+03  0.30733513381E+03 -0.63976951953E+03  0.73277365561E+03  0.00000000000E+00 0.  1.
        -11    1    5    5    0    0 -0.21924132234E+02  0.13195758870E+02 -0.10784766753E+03  0.11084184688E+03  0.00000000000E+00 0. -1.
          1    1    6    6  503    0  0.27978654450E+01 -0.12374964740E+03 -0.63583481180E+02  0.13915697022E+03  0.00000000000E+00 0. -1.
         -1    1    6    6    0  503 -0.10847408861E+03 -0.27353902639E+03 -0.24274113095E+03  0.38146229632E+03  0.00000000000E+00 0.  1.
<mgrwt>
<rscale>  0 0.12833401E+04</rscale>
<asrwt>0</asrwt>
<pdfrwt beam="1">  1        2 0.21605459E+00 0.12833401E+04</pdfrwt>
<pdfrwt beam="2">  1       -3 0.45105897E-01 0.12833401E+04</pdfrwt>
<totfact> 0.44225713E+01</totfact>
</mgrwt>
</event>
<event>
12    6  0.1611689E-007  0.1339330E+04  0.7818608E-02  0.8998945E-01
          2   -1    0    0  501    0  0.00000000000E+00  0.00000000000E+00  0.64222478423E+03  0.64222478423E+03  0.00000000000E+00 0. -1.
         -1   -1    0    0    0  501 -0.00000000000E+00 -0.00000000000E+00 -0.69827713883E+03  0.69827713883E+03  0.00000000000E+00 0.  1.
         24    2    1    2    0    0  0.20413937194E+03  0.22012437695E+03  0.20651859300E+03  0.37351504430E+03  0.82072739422E+02 0.  0.
        254    2    1    2    0    0 -0.20413937194E+03 -0.22012437695E+03 -0.26257094760E+03  0.96698687876E+03  0.88090436295E+03 0.  0.
         23    2    4    4    0    0 -0.82526179521E+02 -0.28456861300E+03  0.26896129159E+03  0.40992279498E+03  0.88919377299E+02 0.  0.
         23    2    4    4    0    0 -0.12161319241E+03  0.64444236051E+02 -0.53153223920E+03  0.55706408378E+03  0.94079987280E+02 0.  0.
          2    1    3    3  502    0  0.12102492199E+03  0.92096904905E+02  0.14106734010E+03  0.20743400415E+03  0.00000000000E+00 0. -1.
         -1    1    3    3    0  502  0.83114449943E+02  0.12802747205E+03  0.65451252905E+02  0.16608104014E+03  0.00000000000E+00 0.  1.
         11    1    5    5    0    0 -0.91700094203E+02 -0.15982297104E+03  0.15911467958E+03  0.24345383670E+03  0.00000000000E+00 0. -1.
        -11    1    5    5    0    0  0.91739146819E+01 -0.12474564197E+03  0.10984661201E+03  0.16646895828E+03  0.00000000000E+00 0.  1.
          1    1    6    6  503    0 -0.13251713615E+03  0.37637619760E+02 -0.44224213917E+03  0.46320135087E+03  0.00000000000E+00 0. -1.
         -1    1    6    6    0  503  0.10903943740E+02  0.26806616291E+02 -0.89290100028E+02  0.93862732909E+02  0.00000000000E+00 0.  1.
<mgrwt>
<rscale>  0 0.13393295E+04</rscale>
<asrwt>0</asrwt>
<pdfrwt beam="1">  1        2 0.98803813E-01 0.13393295E+04</pdfrwt>
<pdfrwt beam="2">  1       -1 0.10742725E+00 0.13393295E+04</pdfrwt>
<totfact> 0.41151895E+01</totfact>
</mgrwt>
</event>
<event>
12    6  0.1611689E-007  0.2008786E+04  0.7818608E-02  0.8602524E-01
         -1   -1    0    0    0  501 -0.00000000000E+00  0.00000000000E+00  0.34082048859E+03  0.34082048859E+03  0.00000000000E+00 0.  1.
          2   -1    0    0  501    0  0.00000000000E+00 -0.00000000000E+00 -0.29599301654E+04  0.29599301654E+04  0.00000000000E+00 0. -1.
         24    2    1    2    0    0 -0.38396288256E+03  0.15596142323E+03 -0.21829012328E+04  0.22233121776E+04  0.79421572710E+02 0.  0.
        254    2    1    2    0    0  0.38396288256E+03 -0.15596142323E+03 -0.43620844396E+03  0.10774384763E+04  0.89378095917E+03 0.  0.
         23    2    4    4    0    0  0.28532782108E+02  0.17321650647E+03 -0.53872022988E+03  0.57390953794E+03  0.91293996981E+02 0.  0.
         23    2    4    4    0    0  0.35543010045E+03 -0.32917792971E+03  0.10251178592E+03  0.50352893839E+03  0.91345825505E+02 0.  0.
          4    1    3    3  502    0 -0.34545871853E+03  0.12720122857E+03 -0.20274725020E+04  0.20606228731E+04  0.00000000000E+00 0. -1.
         -3    1    3    3    0  502 -0.38504164022E+02  0.28760194660E+02 -0.15542873084E+03  0.16268930455E+03  0.00000000000E+00 0.  1.
         11    1    5    5    0    0  0.13393816463E+02  0.12432584171E+03 -0.47997464968E+03  0.49599594109E+03  0.00000000000E+00 0. -1.
        -11    1    5    5    0    0  0.15138965645E+02  0.48890664760E+02 -0.58745580197E+02  0.77913596850E+02  0.00000000000E+00 0.  1.
          1    1    6    6  503    0  0.34972586949E+03 -0.33317428736E+03  0.10764791479E+03  0.49487509849E+03  0.00000000000E+00 0. -1.
         -1    1    6    6    0  503  0.57042309526E+01  0.39963576496E+01 -0.51361288729E+01  0.86538399005E+01  0.00000000000E+00 0.  1.
<mgrwt>
<rscale>  0 0.20087855E+04</rscale>
<asrwt>0</asrwt>
<pdfrwt beam="1">  1        2 0.45537388E+00 0.20087855E+04</pdfrwt>
<pdfrwt beam="2">  1       -1 0.52433921E-01 0.20087855E+04</pdfrwt>
<totfact> 0.71579637E+00</totfact>
</mgrwt>
</event>
<event>
12    6  0.1611689E-007  0.2302432E+04  0.7818608E-02  0.8476963E-01
          2   -1    0    0  501    0  0.00000000000E+00  0.00000000000E+00  0.29190216545E+04  0.29190216545E+04  0.00000000000E+00 0. -1.
         -1   -1    0    0    0  501 -0.00000000000E+00 -0.00000000000E+00 -0.45402147737E+03  0.45402147737E+03  0.00000000000E+00 0.  1.
         24    2    1    2    0    0  0.24610165297E+03 -0.91341408619E+03  0.13702449508E+04  0.16670267237E+04  0.80718994298E+02 0.  0.
        254    2    1    2    0    0 -0.24610165297E+03  0.91341408619E+03  0.10947552264E+04  0.17060164081E+04  0.90394228952E+03 0.  0.
         23    2    4    4    0    0 -0.12376299435E+03  0.93137121127E+02  0.80184151450E+03  0.82217590015E+03  0.95034700576E+02 0.  0.
         23    2    4    4    0    0 -0.12233865863E+03  0.82027696507E+03  0.29291371186E+03  0.88384050800E+03  0.86916938338E+02 0.  0.
          2    1    3    3  502    0  0.12999792882E+03 -0.49724089561E+03  0.67372449474E+03  0.84737988210E+03  0.00000000000E+00 0. -1.
         -1    1    3    3    0  502  0.11610372415E+03 -0.41617319059E+03  0.69652045605E+03  0.81964684165E+03  0.00000000000E+00 0.  1.
         11    1    5    5    0    0 -0.10890572405E+03  0.35705415741E+02  0.63110468443E+03  0.64142689073E+03  0.00000000000E+00 0.  1.
        -11    1    5    5    0    0 -0.14857270300E+02  0.57431705386E+02  0.17073683007E+03  0.18074900942E+03  0.00000000000E+00 0. -1.
          1    1    6    6  503    0 -0.44797940751E+02  0.16833227128E+03  0.30705665352E+02  0.17687692596E+03  0.00000000000E+00 0. -1.
         -1    1    6    6    0  503 -0.77540717874E+02  0.65194469378E+03  0.26220804651E+03  0.70696358204E+03  0.00000000000E+00 0.  1.
<mgrwt>
<rscale>  0 0.23024322E+04</rscale>
<asrwt>0</asrwt>
<pdfrwt beam="1">  1        2 0.44908024E+00 0.23024322E+04</pdfrwt>
<pdfrwt beam="2">  1       -1 0.69849460E-01 0.23024322E+04</pdfrwt>
<totfact> 0.41816128E+00</totfact>
</mgrwt>
</event>
<event>
12    6  0.1611689E-007  0.1953219E+04  0.7818608E-02  0.8628810E-01
          2   -1    0    0  501    0  0.00000000000E+00  0.00000000000E+00  0.36120227465E+04  0.36120227465E+04  0.00000000000E+00 0. -1.
         -1   -1    0    0    0  501 -0.00000000000E+00 -0.00000000000E+00 -0.26405309357E+03  0.26405309357E+03  0.00000000000E+00 0.  1.
         24    2    1    2    0    0  0.36466219002E+03  0.66513453329E+03  0.10837311022E+04  0.13252549263E+04  0.80281115687E+02 0.  0.
        254    2    1    2    0    0 -0.36466219002E+03 -0.66513453329E+03  0.22642385507E+04  0.25508209138E+04  0.89695521595E+03 0.  0.
         23    2    4    4    0    0 -0.23613708406E+03 -0.68454444844E+03  0.81887232175E+03  0.10968135918E+04  0.89924143129E+02 0.  0.
         23    2    4    4    0    0 -0.12852510596E+03  0.19409915155E+02  0.14453662290E+04  0.14540073220E+04  0.90323356821E+02 0.  0.
          4    1    3    3  502    0  0.14501522630E+03  0.20931247867E+03  0.41080476145E+03  0.48332357858E+03  0.00000000000E+00 0. -1.
         -3    1    3    3    0  502  0.21964696372E+03  0.45582205462E+03  0.67292634076E+03  0.84193134769E+03  0.00000000000E+00 0.  1.
         11    1    5    5    0    0 -0.14003219734E+03 -0.47255866240E+03  0.50055311165E+03  0.70247713364E+03  0.00000000000E+00 0. -1.
        -11    1    5    5    0    0 -0.96104886729E+02 -0.21198578604E+03  0.31831921010E+03  0.39433645819E+03  0.00000000000E+00 0.  1.
          2    1    6    6  503    0 -0.64379020431E+02 -0.18725986713E+02  0.36787691762E+03  0.37393682270E+03  0.00000000000E+00 0. -1.
         -2    1    6    6    0  503 -0.64146085527E+02  0.38135901867E+02  0.10774893114E+04  0.10800704993E+04  0.00000000000E+00 0.  1.
<mgrwt>
<rscale>  0 0.19532187E+04</rscale>
<asrwt>0</asrwt>
<pdfrwt beam="1">  1        2 0.55569577E+00 0.19532187E+04</pdfrwt>
<pdfrwt beam="2">  1       -1 0.40623555E-01 0.19532187E+04</pdfrwt>
<totfact> 0.42838702E+00</totfact>
</mgrwt>
</event>
<event>
12    6  0.1611689E-007  0.2689063E+04  0.7818608E-02  0.8338562E-01
         -1   -1    0    0    0  501 -0.00000000000E+00  0.00000000000E+00  0.88013908244E+03  0.88013908244E+03  0.00000000000E+00 0.  1.
          2   -1    0    0  501    0  0.00000000000E+00 -0.00000000000E+00 -0.20539543246E+04  0.20539543246E+04  0.00000000000E+00 0. -1.
         24    2    1    2    0    0 -0.10696102658E+04  0.30888906722E+03 -0.23470053353E+03  0.11409639349E+04  0.85063410605E+02 0.  0.
        254    2    1    2    0    0  0.10696102658E+04 -0.30888906722E+03 -0.93911470860E+03  0.17931294721E+04  0.10458959276E+04 0.  0.
         23    2    4    4    0    0  0.32087443802E+03 -0.60137286805E+03 -0.61111570077E+03  0.91991393381E+03  0.90385366578E+02 0.  0.
         23    2    4    4    0    0  0.74873582774E+03  0.29248380083E+03 -0.32799900783E+03  0.87321553830E+03  0.93647817388E+02 0.  0.
          4    1    3    3  502    0 -0.10350992921E+03  0.18197576581E+02 -0.45341806822E+02  0.11446107061E+03  0.00000000000E+00 0. -1.
         -1    1    3    3    0  502 -0.96610033655E+03  0.29069149064E+03 -0.18935872671E+03  0.10265028643E+04  0.00000000000E+00 0.  1.
         11    1    5    5    0    0 -0.52894643466E+00 -0.45040120207E+02 -0.37432515537E+02  0.58566931216E+02  0.00000000000E+00 0.  1.
        -11    1    5    5    0    0  0.32140338446E+03 -0.55633274784E+03 -0.57368318523E+03  0.86134700259E+03  0.00000000000E+00 0. -1.
          4    1    6    6  503    0  0.36751995589E+02  0.33998628701E+02 -0.34909405407E+02  0.61035092522E+02  0.00000000000E+00 0.  1.
         -4    1    6    6    0  503  0.71198383215E+03  0.25848517213E+03 -0.29308960242E+03  0.81218044578E+03  0.00000000000E+00 0. -1.
<mgrwt>
<rscale>  0 0.26890634E+04</rscale>
<asrwt>0</asrwt>
<pdfrwt beam="1">  1        2 0.31599297E+00 0.26890634E+04</pdfrwt>
<pdfrwt beam="2">  1       -1 0.13540601E+00 0.26890634E+04</pdfrwt>
<totfact> 0.28464685E+00</totfact>
</mgrwt>
</event>
<event>
12    6  0.1611689E-007  0.1274165E+04  0.7818608E-02  0.9050308E-01
         -1   -1    0    0    0  501 -0.00000000000E+00  0.00000000000E+00  0.19139874393E+03  0.19139874393E+03  0.00000000000E+00 0.  1.
          2   -1    0    0  501    0  0.00000000000E+00 -0.00000000000E+00 -0.21205670110E+04  0.21205670110E+04  0.00000000000E+00 0. -1.
         24    2    1    2    0    0  0.13554806527E+03 -0.16225180209E+03 -0.88971273771E+03  0.91783698469E+03  0.78339323065E+02 0.  0.
        254    2    1    2    0    0 -0.13554806527E+03  0.16225180209E+03 -0.10394555294E+04  0.13941287702E+04  0.90467027430E+03 0.  0.
         23    2    4    4    0    0 -0.26504279437E+03  0.11139030292E+03 -0.11532630852E+04  0.11919235141E+04  0.89501046794E+02 0.  0.
         23    2    4    4    0    0  0.12949472909E+03  0.50861499167E+02  0.11380755581E+03  0.20220525615E+03  0.92623047320E+02 0.  0.
          4    1    3    3  502    0  0.31857272093E+02 -0.36976881377E+01 -0.20100465880E+03  0.20354712364E+03  0.00000000000E+00 0. -1.
         -3    1    3    3    0  502  0.10369079318E+03 -0.15855411395E+03 -0.68870807891E+03  0.71428986105E+03  0.00000000000E+00 0.  1.
         11    1    5    5    0    0 -0.26223038905E+03  0.10596448778E+03 -0.11512593509E+04  0.11854920256E+04  0.00000000000E+00 0.  1.
        -11    1    5    5    0    0 -0.28124053150E+01  0.54258151398E+01 -0.20037342571E+01  0.64314885182E+01  0.00000000000E+00 0. -1.
          1    1    6    6  503    0  0.38076259371E+02 -0.63515331128E+01  0.80592769481E+02  0.89360718401E+02  0.00000000000E+00 0. -1.
         -1    1    6    6    0  503  0.91418469724E+02  0.57213032280E+02  0.33214786332E+02  0.11284453775E+03  0.00000000000E+00 0.  1.
<mgrwt>
<rscale>  0 0.12741646E+04</rscale>
<asrwt>0</asrwt>
<pdfrwt beam="1">  1        2 0.32624106E+00 0.12741646E+04</pdfrwt>
<pdfrwt beam="2">  1       -1 0.29445962E-01 0.12741646E+04</pdfrwt>
<totfact> 0.67594166E+01</totfact>
</mgrwt>
</event>
<event>
12    6  0.1611689E-007  0.1914129E+04  0.7818608E-02  0.8647855E-01
          2   -1    0    0  501    0  0.00000000000E+00  0.00000000000E+00  0.93098893247E+03  0.93098893247E+03  0.00000000000E+00 0. -1.
         -1   -1    0    0    0  501 -0.00000000000E+00 -0.00000000000E+00 -0.98387011738E+03  0.98387011738E+03  0.00000000000E+00 0.  1.
         24    2    1    2    0    0 -0.59595238525E+03 -0.37784203389E+03 -0.38767673737E+03  0.80912633535E+03  0.80425902540E+02 0.  0.
        254    2    1    2    0    0  0.59595238525E+03  0.37784203389E+03  0.33479555247E+03  0.11057327145E+04  0.78270871077E+03 0.  0.
         23    2    4    4    0    0  0.67445157842E+03  0.38418989119E+03  0.35549501968E+02  0.78270655267E+03  0.94228320455E+02 0.  0.
         23    2    4    4    0    0 -0.78499193170E+02 -0.63478572995E+01  0.29924605050E+03  0.32302616183E+03  0.92710753794E+02 0.  0.
          2    1    3    3  502    0 -0.28192479260E+03 -0.21097517783E+03 -0.15916984989E+03  0.38642871977E+03  0.00000000000E+00 0. -1.
         -1    1    3    3    0  502 -0.31402759264E+03 -0.16686685605E+03 -0.22850688748E+03  0.42269761558E+03  0.00000000000E+00 0.  1.
         11    1    5    5    0    0  0.34860803608E+03  0.18468078449E+03 -0.27525595241E+02  0.39546455388E+03  0.00000000000E+00 0. -1.
        -11    1    5    5    0    0  0.32584354233E+03  0.19950910670E+03  0.63075097210E+02  0.38724199879E+03  0.00000000000E+00 0.  1.
          3    1    6    6  503    0 -0.61999450234E+02  0.38812027324E+02  0.19347480036E+03  0.20684004368E+03  0.00000000000E+00 0. -1.
         -3    1    6    6    0  503 -0.16499742936E+02 -0.45159884623E+02  0.10577125014E+03  0.11618611816E+03  0.00000000000E+00 0.  1.
<mgrwt>
<rscale>  0 0.19141287E+04</rscale>
<asrwt>0</asrwt>
<pdfrwt beam="1">  1        2 0.14322907E+00 0.19141287E+04</pdfrwt>
<pdfrwt beam="2">  1       -1 0.15136463E+00 0.19141287E+04</pdfrwt>
<totfact> 0.10157218E+01</totfact>
</mgrwt>
</event>
<event>
12    6  0.1611689E-007  0.1384341E+04  0.7818608E-02  0.8965232E-01
         -1   -1    0    0    0  501 -0.00000000000E+00  0.00000000000E+00  0.50587776996E+03  0.50587776996E+03  0.00000000000E+00 0.  1.
          2   -1    0    0  501    0  0.00000000000E+00 -0.00000000000E+00 -0.94706641106E+03  0.94706641106E+03  0.00000000000E+00 0. -1.
         24    2    1    2    0    0  0.88405819975E+02 -0.33835475073E+03 -0.46675945429E+02  0.36210497052E+03  0.81497481220E+02 0.  0.
        254    2    1    2    0    0 -0.88405819975E+02  0.33835475073E+03 -0.39451269567E+03  0.10908392105E+04  0.95498187929E+03 0.  0.
         23    2    4    4    0    0 -0.14527849151E+03  0.60839598102E+03 -0.47336910776E+03  0.78971070542E+03  0.91176621209E+02 0.  0.
         23    2    4    4    0    0  0.56872671533E+02 -0.27004123030E+03  0.78856412093E+02  0.30112850508E+03  0.91122313473E+02 0.  0.
          2    1    3    3  502    0  0.47169020618E+02 -0.22577396607E+03 -0.67702538957E+02  0.24037977045E+03  0.00000000000E+00 0. -1.
         -1    1    3    3    0  502  0.41236799357E+02 -0.11258078466E+03  0.21026593528E+02  0.12172520007E+03  0.00000000000E+00 0.  1.
         11    1    5    5    0    0 -0.10579893911E+03  0.24998123687E+03 -0.19706651044E+03  0.33543888242E+03  0.00000000000E+00 0.  1.
        -11    1    5    5    0    0 -0.39479552395E+02  0.35841474415E+03 -0.27630259732E+03  0.45427182300E+03  0.00000000000E+00 0. -1.
          2    1    6    6  503    0  0.56537226304E+02 -0.67387590516E+02  0.24482677939E+02  0.91306882724E+02  0.00000000000E+00 0.  1.
         -2    1    6    6    0  503  0.33544522881E+00 -0.20265363978E+03  0.54373734154E+02  0.20982162235E+03  0.00000000000E+00 0. -1.
<mgrwt>
<rscale>  0 0.13843408E+04</rscale>
<asrwt>0</asrwt>
<pdfrwt beam="1">  1        2 0.14570252E+00 0.13843408E+04</pdfrwt>
<pdfrwt beam="2">  1       -1 0.77827350E-01 0.13843408E+04</pdfrwt>
<totfact> 0.50162915E+01</totfact>
</mgrwt>
</event>
<event>
12    6  0.1611689E-007  0.2451301E+04  0.7818608E-02  0.8420543E-01
         -1   -1    0    0    0  501 -0.00000000000E+00  0.00000000000E+00  0.21005150019E+04  0.21005150019E+04  0.00000000000E+00 0.  1.
          2   -1    0    0  501    0  0.00000000000E+00 -0.00000000000E+00 -0.71516707998E+03  0.71516707998E+03  0.00000000000E+00 0. -1.
         24    2    1    2    0    0  0.20989332132E+03 -0.90707075590E+03  0.11620334586E+04  0.14911485612E+04  0.79810464014E+02 0.  0.
        254    2    1    2    0    0 -0.20989332132E+03  0.90707075590E+03  0.22331446336E+03  0.13245335207E+04  0.91525249815E+03 0.  0.
         23    2    4    4    0    0 -0.22302703946E+03 -0.31771858789E+01 -0.20255494069E+03  0.31487812055E+03  0.91479899234E+02 0.  0.
         23    2    4    4    0    0  0.13133718147E+02  0.91024794178E+03  0.42586940404E+03  0.10096554001E+04  0.96516670481E+02 0.  0.
          2    1    3    3  502    0  0.13279373300E+03 -0.58848799754E+03  0.69107644294E+03  0.91735432019E+03  0.00000000000E+00 0. -1.
         -1    1    3    3    0  502  0.77099588313E+02 -0.31858275836E+03  0.47095701564E+03  0.57379424102E+03  0.00000000000E+00 0.  1.
         11    1    5    5    0    0 -0.22176660557E+03 -0.17763968162E+02 -0.17274915741E+03  0.28167047643E+03  0.00000000000E+00 0. -1.
        -11    1    5    5    0    0 -0.12604338964E+01  0.14586782284E+02 -0.29805783279E+02  0.33207644118E+02  0.00000000000E+00 0.  1.
          4    1    6    6  503    0 -0.19599243716E+02  0.25728608105E+03  0.16175461636E+03  0.30454033193E+03  0.00000000000E+00 0.  1.
         -4    1    6    6    0  503  0.32732961862E+02  0.65296186073E+03  0.26411478768E+03  0.70511506822E+03  0.00000000000E+00 0. -1.
<mgrwt>
<rscale>  0 0.24513010E+04</rscale>
<asrwt>0</asrwt>
<pdfrwt beam="1">  1        2 0.11002570E+00 0.24513010E+04</pdfrwt>
<pdfrwt beam="2">  1       -1 0.32315615E+00 0.24513010E+04</pdfrwt>
<totfact> 0.95087830E-01</totfact>
</mgrwt>
</event>
<event>
12    6  0.1611689E-007  0.1238162E+04  0.7818608E-02  0.9080094E-01
          2   -1    0    0  501    0  0.00000000000E+00  0.00000000000E+00  0.98594765966E+03  0.98594765966E+03  0.00000000000E+00 0. -1.
         -1   -1    0    0    0  501 -0.00000000000E+00 -0.00000000000E+00 -0.38872364865E+03  0.38872364865E+03  0.00000000000E+00 0.  1.
         24    2    1    2    0    0  0.17456965686E+03  0.11296360420E+03 -0.66692022362E+02  0.23332063214E+03  0.82190939669E+02 0.  0.
        254    2    1    2    0    0 -0.17456965686E+03 -0.11296360420E+03  0.66391603337E+03  0.11413506762E+04  0.90479916316E+03 0.  0.
         23    2    4    4    0    0 -0.14659539228E+03  0.28451170674E+03  0.65219152392E+03  0.73219063633E+03  0.91171397661E+02 0.  0.
         23    2    4    4    0    0 -0.27974264575E+02 -0.39747531094E+03  0.11724509457E+02  0.40916003984E+03  0.92224138922E+02 0.  0.
          2    1    3    3  502    0 -0.15227864951E+01  0.13732559728E+02 -0.22524057578E+02  0.26424141333E+02  0.00000000000E+00 0. -1.
         -1    1    3    3    0  502  0.17609244335E+03  0.99231044474E+02 -0.44167964784E+02  0.20689649080E+03  0.00000000000E+00 0.  1.
         11    1    5    5    0    0 -0.14738474864E+02 -0.96136627784E+00  0.12344261389E+02  0.19249094931E+02  0.00000000000E+00 0. -1.
        -11    1    5    5    0    0 -0.13185691742E+03  0.28547307301E+03  0.63984726253E+03  0.71294154140E+03  0.00000000000E+00 0.  1.
          1    1    6    6  503    0 -0.70553710548E+01  0.32168820849E+01  0.20900937158E+00  0.77569501730E+01  0.00000000000E+00 0. -1.
         -1    1    6    6    0  503 -0.20918893520E+02 -0.40069219302E+03  0.11515500085E+02  0.40140308967E+03  0.00000000000E+00 0.  1.
<mgrwt>
<rscale>  0 0.12381618E+04</rscale>
<asrwt>0</asrwt>
<pdfrwt beam="1">  1        2 0.15168425E+00 0.12381618E+04</pdfrwt>
<pdfrwt beam="2">  1       -1 0.59803639E-01 0.12381618E+04</pdfrwt>
<totfact> 0.81873259E+01</totfact>
</mgrwt>
</event>
<event>
12    6  0.1611689E-007  0.1143377E+04  0.7818608E-02  0.9163915E-01
          2   -1    0    0  501    0  0.00000000000E+00  0.00000000000E+00  0.47916744528E+03  0.47916744528E+03  0.00000000000E+00 0. -1.
         -1   -1    0    0    0  501 -0.00000000000E+00 -0.00000000000E+00 -0.68207426715E+03  0.68207426715E+03  0.00000000000E+00 0.  1.
         24    2    1    2    0    0  0.15428209710E+02  0.17374091475E+03  0.92022651804E+02  0.21260261843E+03  0.79421469430E+02 0.  0.
        254    2    1    2    0    0 -0.15428209710E+02 -0.17374091475E+03 -0.29492947368E+03  0.94863909400E+03  0.88459527532E+03 0.  0.
         23    2    4    4    0    0  0.15383627259E+03  0.25926426945E+03  0.10031536525E+03  0.33043797774E+03  0.90788349738E+02 0.  0.
         23    2    4    4    0    0 -0.16926448230E+03 -0.43300518419E+03 -0.39524483893E+03  0.61820111627E+03  0.99046367651E+02 0.  0.
          4    1    3    3  502    0  0.32608246341E+02  0.11539689538E+03  0.93034421067E+02  0.15177333329E+03  0.00000000000E+00 0. -1.
         -3    1    3    3    0  502 -0.17180036631E+02  0.58344019362E+02 -0.10117692627E+01  0.60829285143E+02  0.00000000000E+00 0.  1.
         11    1    5    5    0    0  0.11164198274E+03  0.24485485543E+03  0.75902390491E+02  0.27960508833E+03  0.00000000000E+00 0. -1.
        -11    1    5    5    0    0  0.42194289857E+02  0.14409414015E+02  0.24412974761E+02  0.50832889407E+02  0.00000000000E+00 0.  1.
          4    1    6    6  503    0 -0.13504371046E+03 -0.32561025136E+03 -0.24039098949E+03  0.42666927163E+03  0.00000000000E+00 0. -1.
         -4    1    6    6    0  503 -0.34220771842E+02 -0.10739493284E+03 -0.15485384944E+03  0.19153184464E+03  0.00000000000E+00 0.  1.
<mgrwt>
<rscale>  0 0.11433771E+04</rscale>
<asrwt>0</asrwt>
<pdfrwt beam="1">  1        2 0.73718068E-01 0.11433771E+04</pdfrwt>
<pdfrwt beam="2">  1       -1 0.10493450E+00 0.11433771E+04</pdfrwt>
<totfact> 0.62514918E+01</totfact>
</mgrwt>
</event>
<event>
12    6  0.1611689E-007  0.1317655E+04  0.7818608E-02  0.9015680E-01
         -1   -1    0    0    0  501 -0.00000000000E+00  0.00000000000E+00  0.28315769843E+03  0.28315769843E+03  0.00000000000E+00 0.  1.
          2   -1    0    0  501    0  0.00000000000E+00 -0.00000000000E+00 -0.15329048562E+04  0.15329048562E+04  0.00000000000E+00 0. -1.
         24    2    1    2    0    0  0.54429312824E+02 -0.35419998841E+03 -0.32386062553E+03  0.48988086923E+03  0.81715233439E+02 0.  0.
        254    2    1    2    0    0 -0.54429312824E+02  0.35419998841E+03 -0.92588653227E+03  0.13261816854E+04  0.87924502287E+03 0.  0.
         23    2    4    4    0    0  0.13460911590E+03  0.58580775729E+03 -0.75441597697E+03  0.96881316616E+03  0.90361175536E+02 0.  0.
         23    2    4    4    0    0 -0.18903842872E+03 -0.23160776888E+03 -0.17147055531E+03  0.35736851927E+03  0.94511486547E+02 0.  0.
          4    1    3    3  502    0  0.59183654650E+02 -0.35418726869E+03 -0.32568283671E+03  0.48478927011E+03  0.00000000000E+00 0. -1.
         -3    1    3    3    0  502 -0.47543418262E+01 -0.12719721109E-01  0.18222111808E+01  0.50915991181E+01  0.00000000000E+00 0.  1.
         11    1    5    5    0    0  0.56222298812E+02  0.10855048066E+03 -0.12262152859E+03  0.17314789346E+03  0.00000000000E+00 0.  1.
        -11    1    5    5    0    0  0.78386817085E+02  0.47725727663E+03 -0.63179444837E+03  0.79566527270E+03  0.00000000000E+00 0. -1.
          3    1    6    6  503    0 -0.91566627646E+02 -0.11289870641E+03 -0.29748518766E+02  0.14837634440E+03  0.00000000000E+00 0. -1.
         -3    1    6    6    0  503 -0.97471801076E+02 -0.11870906247E+03 -0.14172203654E+03  0.20899217487E+03  0.00000000000E+00 0.  1.
<mgrwt>
<rscale>  0 0.13176552E+04</rscale>
<asrwt>0</asrwt>
<pdfrwt beam="1">  1        2 0.23583151E+00 0.13176552E+04</pdfrwt>
<pdfrwt beam="2">  1       -1 0.43562724E-01 0.13176552E+04</pdfrwt>
<totfact> 0.70573595E+01</totfact>
</mgrwt>
</event>
<event>
12    6  0.1611689E-007  0.1629842E+04  0.7818608E-02  0.8802422E-01
          2   -1    0    0  501    0  0.00000000000E+00  0.00000000000E+00  0.36682662275E+04  0.36682662275E+04  0.00000000000E+00 0. -1.
         -1   -1    0    0    0  501 -0.00000000000E+00 -0.00000000000E+00 -0.18103815408E+03  0.18103815408E+03  0.00000000000E+00 0.  1.
         24    2    1    2    0    0  0.44356823812E+03  0.33596409720E+03  0.11016461904E+04  0.12367363203E+04  0.79169064413E+02 0.  0.
        254    2    1    2    0    0 -0.44356823812E+03 -0.33596409720E+03  0.23855818831E+04  0.26125680613E+04  0.90823251293E+03 0.  0.
         23    2    4    4    0    0  0.25125122118E+03 -0.23243921731E+03  0.87618300675E+03  0.94509341759E+03  0.91376915917E+02 0.  0.
         23    2    4    4    0    0 -0.69481945931E+03 -0.10352487989E+03  0.15093988763E+04  0.16674746437E+04  0.93248258680E+02 0.  0.
          4    1    3    3  502    0  0.19392955024E+03  0.15437214255E+03  0.57737806226E+03  0.62833498680E+03  0.00000000000E+00 0. -1.
         -3    1    3    3    0  502  0.24963868788E+03  0.18159195465E+03  0.52426812811E+03  0.60840133352E+03  0.00000000000E+00 0.  1.
         11    1    5    5    0    0  0.11209153598E+03 -0.14667959189E+03  0.55162692625E+03  0.58169724159E+03  0.00000000000E+00 0. -1.
        -11    1    5    5    0    0  0.13915968520E+03 -0.85759625420E+02  0.32455608051E+03  0.36339617600E+03  0.00000000000E+00 0.  1.
          1    1    6    6  503    0 -0.29447904128E+02 -0.25059650313E+02  0.81507504537E+02  0.90214402549E+02  0.00000000000E+00 0. -1.
         -1    1    6    6    0  503 -0.66537155518E+03 -0.78465229574E+02  0.14278913718E+04  0.15772602411E+04  0.00000000000E+00 0.  1.
<mgrwt>
<rscale>  0 0.16298419E+04</rscale>
<asrwt>0</asrwt>
<pdfrwt beam="1">  1        2 0.56434860E+00 0.16298419E+04</pdfrwt>
<pdfrwt beam="2">  1       -1 0.27852026E-01 0.16298419E+04</pdfrwt>
<totfact> 0.79045455E+00</totfact>
</mgrwt>
</event>
<event>
12    6  0.1611689E-007  0.2108925E+04  0.7818608E-02  0.8557322E-01
          2   -1    0    0  501    0  0.00000000000E+00  0.00000000000E+00  0.12119647974E+04  0.12119647974E+04  0.00000000000E+00 0. -1.
         -1   -1    0    0    0  501 -0.00000000000E+00 -0.00000000000E+00 -0.91742832016E+03  0.91742832016E+03  0.00000000000E+00 0.  1.
         24    2    1    2    0    0 -0.54740322181E+02  0.56590330242E+03 -0.52812231032E+03  0.78006026562E+03  0.79610255516E+02 0.  0.
        254    2    1    2    0    0  0.54740322181E+02 -0.56590330242E+03  0.82265878757E+03  0.13493328519E+04  0.90591865751E+03 0.  0.
         23    2    4    4    0    0 -0.37615708697E+03 -0.21726403766E+03  0.14067401026E+03  0.46568579645E+03  0.91521952084E+02 0.  0.
         23    2    4    4    0    0  0.43089740915E+03 -0.34863926476E+03  0.68198477731E+03  0.88364705550E+03  0.92233226445E+02 0.  0.
          2    1    3    3  502    0  0.17744716196E+02  0.61580785481E+02 -0.69630586311E+02  0.94633433011E+02  0.00000000000E+00 0. -1.
         -1    1    3    3    0  502 -0.72485038377E+02  0.50432251694E+03 -0.45849172400E+03  0.68542683261E+03  0.00000000000E+00 0.  1.
         11    1    5    5    0    0 -0.49816547848E+02 -0.69960663463E+02  0.27418259116E+02  0.90155109698E+02  0.00000000000E+00 0.  1.
        -11    1    5    5    0    0 -0.32634053913E+03 -0.14730337420E+03  0.11325575115E+03  0.37553068675E+03  0.00000000000E+00 0. -1.
          4    1    6    6  503    0  0.40239168169E+03 -0.29513616964E+03  0.58126060810E+03  0.76608636501E+03  0.00000000000E+00 0. -1.
         -4    1    6    6    0  503  0.28505727467E+02 -0.53503095126E+02  0.10072416920E+03  0.11756069049E+03  0.00000000000E+00 0.  1.
<mgrwt>
<rscale>  0 0.21089247E+04</rscale>
<asrwt>0</asrwt>
<pdfrwt beam="1">  1        2 0.18645612E+00 0.21089247E+04</pdfrwt>
<pdfrwt beam="2">  1       -1 0.14114282E+00 0.21089247E+04</pdfrwt>
<totfact> 0.80263595E+00</totfact>
</mgrwt>
</event>
<event>
12    6  0.1611689E-007  0.1426367E+04  0.7818608E-02  0.8934951E-01
         -1   -1    0    0    0  501 -0.00000000000E+00  0.00000000000E+00  0.78026213904E+03  0.78026213904E+03  0.00000000000E+00 0.  1.
          2   -1    0    0  501    0  0.00000000000E+00 -0.00000000000E+00 -0.65187144640E+03  0.65187144640E+03  0.00000000000E+00 0. -1.
         24    2    1    2    0    0  0.54409790283E+02 -0.25374995025E+03  0.42751263275E+03  0.50640709745E+03  0.79571569410E+02 0.  0.
        254    2    1    2    0    0 -0.54409790283E+02  0.25374995025E+03 -0.29912194011E+03  0.92572648798E+03  0.83674735313E+03 0.  0.
         23    2    4    4    0    0 -0.16772018314E+03  0.34756225015E+03 -0.51355299537E+03  0.64861310503E+03  0.89625350160E+02 0.  0.
         23    2    4    4    0    0  0.11331039286E+03 -0.93812299902E+02  0.21443105526E+03  0.27711338296E+03  0.95766156914E+02 0.  0.
          2    1    3    3  502    0  0.18889657555E+02 -0.47270712964E+01  0.23927121189E+02  0.30849173311E+02  0.00000000000E+00 0. -1.
         -1    1    3    3    0  502  0.35520132728E+02 -0.24902287896E+03  0.40358551156E+03  0.47555792414E+03  0.00000000000E+00 0.  1.
         11    1    5    5    0    0 -0.12603474686E+03  0.22746626546E+03 -0.27618275926E+03  0.37934492992E+03  0.00000000000E+00 0.  1.
        -11    1    5    5    0    0 -0.41685436287E+02  0.12009598469E+03 -0.23737023611E+03  0.26926817511E+03  0.00000000000E+00 0. -1.
          4    1    6    6  503    0  0.54253929294E+02 -0.34507955687E+02  0.23176321555E+02  0.68347858272E+02  0.00000000000E+00 0.  1.
         -4    1    6    6    0  503  0.59056463566E+02 -0.59304344215E+02  0.19125473371E+03  0.20876552469E+03  0.00000000000E+00 0. -1.
<mgrwt>
<rscale>  0 0.14263669E+04</rscale>
<asrwt>0</asrwt>
<pdfrwt beam="1">  1        2 0.10028792E+00 0.14263669E+04</pdfrwt>
<pdfrwt beam="2">  1       -1 0.12004033E+00 0.14263669E+04</pdfrwt>
<totfact> 0.30768199E+01</totfact>
</mgrwt>
</event>
<event>
12    6  0.1611689E-007  0.1205147E+04  0.7818608E-02  0.9108363E-01
         -1   -1    0    0    0  501 -0.00000000000E+00  0.00000000000E+00  0.25876520154E+03  0.25876520154E+03  0.00000000000E+00 0.  1.
          2   -1    0    0  501    0  0.00000000000E+00 -0.00000000000E+00 -0.14031824219E+04  0.14031824219E+04  0.00000000000E+00 0. -1.
         24    2    1    2    0    0 -0.48094101303E+02  0.15302558934E+02  0.94956750779E+02  0.13473757221E+03  0.81180157411E+02 0.  0.
        254    2    1    2    0    0  0.48094101303E+02 -0.15302558934E+02 -0.12393739711E+04  0.15272100512E+04  0.89094078890E+03 0.  0.
         23    2    4    4    0    0 -0.36806070296E+03 -0.92866435167E+02 -0.29731327357E+03  0.49045015953E+03  0.89740294764E+02 0.  0.
         23    2    4    4    0    0  0.41615480426E+03  0.77563876233E+02 -0.94206069756E+03  0.10367598917E+04  0.90508226694E+02 0.  0.
          4    1    3    3  502    0 -0.31486094018E+02  0.10395381011E+02 -0.47870496616E+01  0.33501550820E+02  0.00000000000E+00 0. -1.
         -3    1    3    3    0  502 -0.16608007285E+02  0.49071779227E+01  0.99743800441E+02  0.10123602139E+03  0.00000000000E+00 0.  1.
         11    1    5    5    0    0 -0.32674057096E+03 -0.51700643215E+02 -0.24016406028E+03  0.40879228597E+03  0.00000000000E+00 0. -1.
        -11    1    5    5    0    0 -0.41320132004E+02 -0.41165791952E+02 -0.57149213290E+02  0.81657873567E+02  0.00000000000E+00 0.  1.
          4    1    6    6  503    0  0.23419815262E+02 -0.14146552655E+02 -0.38034340928E+02  0.46853215351E+02  0.00000000000E+00 0.  1.
         -4    1    6    6    0  503  0.39273498900E+03  0.91710428888E+02 -0.90402635663E+03  0.98990667633E+03  0.00000000000E+00 0. -1.
<mgrwt>
<rscale>  0 0.12051469E+04</rscale>
<asrwt>0</asrwt>
<pdfrwt beam="1">  1        2 0.21587421E+00 0.12051469E+04</pdfrwt>
<pdfrwt beam="2">  1       -1 0.39810032E-01 0.12051469E+04</pdfrwt>
<totfact> 0.99472908E+01</totfact>
</mgrwt>
</event>
<event>
12    6  0.1611689E-007  0.1688433E+04  0.7818608E-02  0.8767989E-01
         -1   -1    0    0    0  501 -0.00000000000E+00  0.00000000000E+00  0.22640553241E+04  0.22640553241E+04  0.00000000000E+00 0.  1.
          2   -1    0    0  501    0  0.00000000000E+00 -0.00000000000E+00 -0.31478969773E+03  0.31478969773E+03  0.00000000000E+00 0. -1.
         24    2    1    2    0    0  0.70025483717E+02  0.56285186383E+03  0.97769879702E+03  0.11333136043E+04  0.82456042513E+02 0.  0.
        254    2    1    2    0    0 -0.70025483717E+02 -0.56285186383E+03  0.97156682939E+03  0.14455314176E+04  0.90769663783E+03 0.  0.
         23    2    4    4    0    0 -0.36284914672E+03 -0.13453657997E+02  0.13210431105E+03  0.39666872725E+03  0.89744225396E+02 0.  0.
         23    2    4    4    0    0  0.29282366301E+03 -0.54939820583E+03  0.83946251834E+03  0.10488626904E+04  0.88495973510E+02 0.  0.
          4    1    3    3  502    0  0.19712136821E+02  0.50108067751E+02  0.58016369476E+02  0.79153559104E+02  0.00000000000E+00 0. -1.
         -3    1    3    3    0  502  0.50313346896E+02  0.51274379608E+03  0.91968242755E+03  0.10541600452E+04  0.00000000000E+00 0.  1.
         11    1    5    5    0    0 -0.13491427784E+03  0.28409150083E+02  0.20292563274E+02  0.13935828034E+03  0.00000000000E+00 0. -1.
        -11    1    5    5    0    0 -0.22793486888E+03 -0.41862808080E+02  0.11181174778E+03  0.25731044692E+03  0.00000000000E+00 0.  1.
          4    1    6    6  503    0  0.15681291975E+03 -0.38258299763E+03  0.54262084629E+03  0.68220042854E+03  0.00000000000E+00 0.  1.
         -4    1    6    6    0  503  0.13601074326E+03 -0.16681520820E+03  0.29684167205E+03  0.36666226181E+03  0.00000000000E+00 0. -1.
<mgrwt>
<rscale>  0 0.16884328E+04</rscale>
<asrwt>0</asrwt>
<pdfrwt beam="1">  1        2 0.48429186E-01 0.16884328E+04</pdfrwt>
<pdfrwt beam="2">  1       -1 0.34831619E+00 0.16884328E+04</pdfrwt>
<totfact> 0.18137264E+00</totfact>
</mgrwt>
</event>
<event>
12    6  0.1611689E-007  0.2326018E+04  0.7818608E-02  0.8467733E-01
          2   -1    0    0  501    0  0.00000000000E+00  0.00000000000E+00  0.29767849780E+04  0.29767849780E+04  0.00000000000E+00 0. -1.
         -1   -1    0    0    0  501 -0.00000000000E+00 -0.00000000000E+00 -0.45437954644E+03  0.45437954644E+03  0.00000000000E+00 0.  1.
         24    2    1    2    0    0  0.19394850172E+03  0.52035074237E+03  0.22464446912E+04  0.23154039676E+04  0.78745576597E+02 0.  0.
        254    2    1    2    0    0 -0.19394850172E+03 -0.52035074237E+03  0.27596074029E+03  0.11157605568E+04  0.92757014484E+03 0.  0.
         23    2    4    4    0    0 -0.92006254709E+02 -0.72493939239E+03  0.40227287943E+03  0.83903834721E+03  0.90330532035E+02 0.  0.
         23    2    4    4    0    0 -0.10194224701E+03  0.20458865003E+03 -0.12631213915E+03  0.27672220962E+03  0.91496925383E+02 0.  0.
          2    1    3    3  502    0  0.20128721538E+03  0.50895406068E+03  0.21901655274E+04  0.22575154077E+04  0.00000000000E+00 0. -1.
         -1    1    3    3    0  502 -0.73387136661E+01  0.11396681690E+02  0.56279163869E+02  0.57888559816E+02  0.00000000000E+00 0.  1.
         11    1    5    5    0    0 -0.99402537717E+02 -0.43295181785E+03  0.23975510405E+03  0.50478772865E+03  0.00000000000E+00 0. -1.
        -11    1    5    5    0    0  0.73962830077E+01 -0.29198757455E+03  0.16251777539E+03  0.33425061856E+03  0.00000000000E+00 0.  1.
          3    1    6    6  503    0 -0.29484929036E+02  0.15097009803E+03 -0.61311174641E+02  0.16559103743E+03  0.00000000000E+00 0. -1.
         -3    1    6    6    0  503 -0.72457317971E+02  0.53618551994E+02 -0.65000964507E+02  0.11113117219E+03  0.00000000000E+00 0.  1.
<mgrwt>
<rscale>  0 0.23260182E+04</rscale>
<asrwt>0</asrwt>
<pdfrwt beam="1">  1        2 0.45796691E+00 0.23260182E+04</pdfrwt>
<pdfrwt beam="2">  1       -1 0.69904547E-01 0.23260182E+04</pdfrwt>
<totfact> 0.38363552E+00</totfact>
</mgrwt>
</event>
<event>
12    6  0.1611689E-007  0.1742100E+04  0.7818608E-02  0.8737711E-01
          2   -1    0    0  501    0  0.00000000000E+00  0.00000000000E+00  0.46266204127E+03  0.46266204127E+03  0.00000000000E+00 0. -1.
         -3   -1    0    0    0  501 -0.00000000000E+00 -0.00000000000E+00 -0.16399178322E+04  0.16399178322E+04  0.00000000000E+00 0.  1.
         24    2    1    2    0    0  0.18469918516E+03  0.15565162223E+03 -0.11402803803E+04  0.11683642028E+04  0.80587518453E+02 0.  0.
        254    2    1    2    0    0 -0.18469918516E+03 -0.15565162223E+03 -0.36975410642E+02  0.93421567070E+03  0.90169314175E+03 0.  0.
         23    2    4    4    0    0 -0.22439975821E+03 -0.26900309115E+03 -0.40148903512E+03  0.54030563706E+03  0.89547873101E+02 0.  0.
         23    2    4    4    0    0  0.39700573047E+02  0.11335146892E+03  0.36451362448E+03  0.39391003364E+03  0.88714379705E+02 0.  0.
          4    1    3    3  502    0  0.59456576312E+02  0.71691899166E+02 -0.28321948604E+03  0.29814105747E+03  0.00000000000E+00 0. -1.
         -3    1    3    3    0  502  0.12524260885E+03  0.83959723066E+02 -0.85706089429E+03  0.87022314534E+03  0.00000000000E+00 0.  1.
         11    1    5    5    0    0 -0.97888252785E+01 -0.12215716053E+02  0.23415213827E+01  0.15828061834E+02  0.00000000000E+00 0.  1.
        -11    1    5    5    0    0 -0.21461093293E+03 -0.25678737510E+03 -0.40383055650E+03  0.52447757522E+03  0.00000000000E+00 0. -1.
          4    1    6    6  503    0 -0.32660949532E+01  0.10535421494E+03  0.26687144882E+03  0.28693300295E+03  0.00000000000E+00 0. -1.
         -4    1    6    6    0  503  0.42966668000E+02  0.79972539842E+01  0.97642175654E+02  0.10697703070E+03  0.00000000000E+00 0.  1.
<mgrwt>
<rscale>  0 0.17420996E+04</rscale>
<asrwt>0</asrwt>
<pdfrwt beam="1">  1        2 0.71178777E-01 0.17420996E+04</pdfrwt>
<pdfrwt beam="2">  1       -3 0.25229505E+00 0.17420996E+04</pdfrwt>
<totfact> 0.28287459E+00</totfact>
</mgrwt>
</event>
<event>
12    6  0.1611689E-007  0.3027250E+04  0.7818608E-02  0.8235992E-01
         -1   -1    0    0    0  501 -0.00000000000E+00  0.00000000000E+00  0.17340265032E+04  0.17340265032E+04  0.00000000000E+00 0.  1.
          2   -1    0    0  501    0  0.00000000000E+00 -0.00000000000E+00 -0.13212372022E+04  0.13212372022E+04  0.00000000000E+00 0. -1.
         24    2    1    2    0    0 -0.13586984496E+04 -0.20051760707E+03  0.91100756557E+02  0.13787397523E+04  0.79719313893E+02 0.  0.
        254    2    1    2    0    0  0.13586984496E+04  0.20051760707E+03  0.32168854441E+03  0.16765239531E+04  0.90607960915E+03 0.  0.
         23    2    4    4    0    0  0.32123977257E+02  0.29058301634E+03  0.12251503183E+03  0.32896255683E+03  0.87954485207E+02 0.  0.
         23    2    4    4    0    0  0.13265744724E+04 -0.90065409276E+02  0.19917351257E+03  0.13475613963E+04  0.91323710281E+02 0.  0.
          2    1    3    3  502    0 -0.88488567024E+03 -0.14793769420E+03  0.93377057461E+02  0.90201301854E+03  0.00000000000E+00 0. -1.
         -1    1    3    3    0  502 -0.47381277938E+03 -0.52579912866E+02 -0.22763009041E+01  0.47672673377E+03  0.00000000000E+00 0.  1.
         11    1    5    5    0    0  0.14987899565E+02  0.27164998905E+03  0.87825714555E+02  0.28588758249E+03  0.00000000000E+00 0.  1.
        -11    1    5    5    0    0  0.17136077692E+02  0.18933027292E+02  0.34689317275E+02  0.43074974337E+02  0.00000000000E+00 0. -1.
          3    1    6    6  503    0  0.24807163916E+03 -0.52707273938E+02  0.38840873018E+02  0.25656618698E+03  0.00000000000E+00 0. -1.
         -3    1    6    6    0  503  0.10785028332E+04 -0.37358135338E+02  0.16033263956E+03  0.10909952093E+04  0.00000000000E+00 0.  1.
<mgrwt>
<rscale>  0 0.30272498E+04</rscale>
<asrwt>0</asrwt>
<pdfrwt beam="1">  1        2 0.20326726E+00 0.30272498E+04</pdfrwt>
<pdfrwt beam="2">  1       -1 0.26677331E+00 0.30272498E+04</pdfrwt>
<totfact> 0.84746778E-01</totfact>
</mgrwt>
</event>
<event>
12    6  0.1611689E-007  0.1500379E+04  0.7818608E-02  0.8884201E-01
         -1   -1    0    0    0  501 -0.00000000000E+00  0.00000000000E+00  0.41089684450E+03  0.41089684450E+03  0.00000000000E+00 0.  1.
          2   -1    0    0  501    0  0.00000000000E+00 -0.00000000000E+00 -0.13696492028E+04  0.13696492028E+04  0.00000000000E+00 0. -1.
         24    2    1    2    0    0 -0.13497992848E+03  0.12510011412E+03 -0.83069094874E+03  0.85444939368E+03  0.78528303185E+02 0.  0.
        254    2    1    2    0    0  0.13497992848E+03 -0.12510011412E+03 -0.12806140953E+03  0.92609665359E+03  0.89854641924E+03 0.  0.
         23    2    4    4    0    0  0.17460493082E+03  0.32707582963E+03 -0.23768557939E+03  0.45014263097E+03  0.93104636683E+02 0.  0.
         23    2    4    4    0    0 -0.39625002336E+02 -0.45217594375E+03  0.10962416986E+03  0.47595402262E+03  0.92095320792E+02 0.  0.
          2    1    3    3  502    0 -0.13199548462E+03  0.80200301130E+02 -0.61319769931E+03  0.63234983569E+03  0.00000000000E+00 0. -1.
         -1    1    3    3    0  502 -0.29844438598E+01  0.44899812994E+02 -0.21749324943E+03  0.22209955799E+03  0.00000000000E+00 0.  1.
         11    1    5    5    0    0  0.14764306769E+03  0.18215508177E+03 -0.15579694271E+03  0.28151667199E+03  0.00000000000E+00 0.  1.
        -11    1    5    5    0    0  0.26961863129E+02  0.14492074786E+03 -0.81888636683E+02  0.16862595898E+03  0.00000000000E+00 0. -1.
          3    1    6    6  503    0  0.59232841369E+01 -0.32520434283E+03  0.10186718670E+03  0.34083701914E+03  0.00000000000E+00 0. -1.
         -3    1    6    6    0  503 -0.45548286473E+02 -0.12697160093E+03  0.77569831604E+01  0.13511700348E+03  0.00000000000E+00 0.  1.
<mgrwt>
<rscale>  0 0.15003793E+04</rscale>
<asrwt>0</asrwt>
<pdfrwt beam="1">  1        2 0.21071526E+00 0.15003793E+04</pdfrwt>
<pdfrwt beam="2">  1       -1 0.63214899E-01 0.15003793E+04</pdfrwt>
<totfact> 0.42100857E+01</totfact>
</mgrwt>
</event>
<event>
12    6  0.1611689E-007  0.1672336E+04  0.7818608E-02  0.8777301E-01
          2   -1    0    0  501    0  0.00000000000E+00  0.00000000000E+00  0.37367120567E+04  0.37367120567E+04  0.00000000000E+00 0. -1.
         -1   -1    0    0    0  501 -0.00000000000E+00 -0.00000000000E+00 -0.18711022150E+03  0.18711022150E+03  0.00000000000E+00 0.  1.
         24    2    1    2    0    0  0.28306922165E+03 -0.70497908420E+02  0.84121071025E+02  0.31369261488E+03  0.78921243668E+02 0.  0.
        254    2    1    2    0    0 -0.28306922165E+03  0.70497908420E+02  0.34654807642E+04  0.36101296633E+04  0.96870073800E+03 0.  0.
         23    2    4    4    0    0 -0.39404890576E+03  0.24319298343E+03  0.75457631921E+03  0.88997700900E+03  0.90864116804E+02 0.  0.
         23    2    4    4    0    0  0.11097968411E+03 -0.17269507501E+03  0.27109044450E+04  0.27201526543E+04  0.89930383421E+02 0.  0.
          4    1    3    3  502    0  0.27915762810E+02 -0.11098030323E+02  0.36753065757E+02  0.47468346641E+02  0.00000000000E+00 0. -1.
         -3    1    3    3    0  502  0.25515345884E+03 -0.59399878097E+02  0.47368005268E+02  0.26622426823E+03  0.00000000000E+00 0.  1.
         11    1    5    5    0    0 -0.31464257459E+03  0.17105926199E+03  0.51291421500E+03  0.62557350711E+03  0.00000000000E+00 0.  1.
        -11    1    5    5    0    0 -0.79406331168E+02  0.72133721444E+02  0.24166210421E+03  0.26440350189E+03  0.00000000000E+00 0. -1.
          4    1    6    6  503    0  0.69756553398E+02 -0.43104362318E+02  0.13443674307E+04  0.13468658996E+04  0.00000000000E+00 0. -1.
         -4    1    6    6    0  503  0.41223130713E+02 -0.12959071269E+03  0.13665370142E+04  0.13732867547E+04  0.00000000000E+00 0.  1.
<mgrwt>
<rscale>  0 0.16723361E+04</rscale>
<asrwt>0</asrwt>
<pdfrwt beam="1">  1        2 0.57487872E+00 0.16723361E+04</pdfrwt>
<pdfrwt beam="2">  1       -1 0.28786191E-01 0.16723361E+04</pdfrwt>
<totfact> 0.66193954E+00</totfact>
</mgrwt>
</event>
<event>
12    6  0.1611689E-007  0.1291360E+04  0.7818608E-02  0.9036445E-01
         -1   -1    0    0    0  501 -0.00000000000E+00  0.00000000000E+00  0.85873420140E+03  0.85873420140E+03  0.00000000000E+00 0.  1.
          2   -1    0    0  501    0  0.00000000000E+00 -0.00000000000E+00 -0.48548539874E+03  0.48548539874E+03  0.00000000000E+00 0. -1.
         24    2    1    2    0    0  0.21821723598E+03  0.18422273084E+03  0.27123505848E+03  0.40153974185E+03  0.78159648819E+02 0.  0.
        254    2    1    2    0    0 -0.21821723598E+03 -0.18422273084E+03  0.10201374417E+03  0.94267985828E+03  0.89257029671E+03 0.  0.
         23    2    4    4    0    0 -0.46878334898E+03  0.57378468136E+02 -0.14474449461E+03  0.50360345232E+03  0.98057899130E+02 0.  0.
         23    2    4    4    0    0  0.25056611300E+03 -0.24160119897E+03  0.24675823878E+03  0.43907640597E+03  0.10365300547E+03 0.  0.
          2    1    3    3  502    0  0.21937712080E+03  0.18997338957E+03  0.26524198403E+03  0.39315330339E+03  0.00000000000E+00 0. -1.
         -1    1    3    3    0  502 -0.11598848252E+01 -0.57506587330E+01  0.59930744552E+01  0.83864384632E+01  0.00000000000E+00 0.  1.
         11    1    5    5    0    0 -0.46606103248E+03  0.67656136004E+02 -0.13706038132E+03  0.49048525652E+03  0.00000000000E+00 0.  1.
        -11    1    5    5    0    0 -0.27223164968E+01 -0.10277667869E+02 -0.76841132888E+01  0.13118195797E+02  0.00000000000E+00 0. -1.
          2    1    6    6  503    0  0.68335260054E+02 -0.10336463491E+03  0.13906833914E+03  0.18626314308E+03  0.00000000000E+00 0. -1.
         -2    1    6    6    0  503  0.18223085295E+03 -0.13823656406E+03  0.10768989963E+03  0.25281326289E+03  0.00000000000E+00 0.  1.
<mgrwt>
<rscale>  0 0.12913604E+04</rscale>
<asrwt>0</asrwt>
<pdfrwt beam="1">  1        2 0.74690061E-01 0.12913604E+04</pdfrwt>
<pdfrwt beam="2">  1       -1 0.13211295E+00 0.12913604E+04</pdfrwt>
<totfact> 0.34804711E+01</totfact>
</mgrwt>
</event>
<event>
12    6  0.1611689E-007  0.2277055E+04  0.7818608E-02  0.8487023E-01
          2   -1    0    0  501    0  0.00000000000E+00  0.00000000000E+00  0.24766303093E+04  0.24766303093E+04  0.00000000000E+00 0. -1.
         -1   -1    0    0    0  501 -0.00000000000E+00 -0.00000000000E+00 -0.52339056650E+03  0.52339056650E+03  0.00000000000E+00 0.  1.
         24    2    1    2    0    0 -0.52024735026E+03 -0.76550132733E+03  0.48671781354E+03  0.10487716961E+04  0.79863965424E+02 0.  0.
        254    2    1    2    0    0  0.52024735026E+03  0.76550132733E+03  0.14665219292E+04  0.19512491796E+04  0.89444798872E+03 0.  0.
         23    2    4    4    0    0  0.58687273811E+03  0.91970237932E+03  0.12191003175E+04  0.16385828813E+04  0.92066266100E+02 0.  0.
         23    2    4    4    0    0 -0.66625387847E+02 -0.15420105199E+03  0.24742161171E+03  0.31266629837E+03  0.91246114738E+02 0.  0.
          4    1    3    3  502    0 -0.64940543640E+02 -0.72723892817E+02  0.75907071580E+02  0.12356343436E+03  0.00000000000E+00 0. -1.
         -3    1    3    3    0  502 -0.45530680662E+03 -0.69277743451E+03  0.41081074196E+03  0.92520826176E+03  0.00000000000E+00 0.  1.
         11    1    5    5    0    0  0.34149777150E+03  0.61542291267E+03  0.79722035401E+03  0.10634502255E+04  0.00000000000E+00 0. -1.
        -11    1    5    5    0    0  0.24537496661E+03  0.30427946665E+03  0.42187996352E+03  0.57513265573E+03  0.00000000000E+00 0.  1.
          4    1    6    6  503    0 -0.34263306463E+02 -0.12630586003E+03  0.11742591288E+03  0.17582943286E+03  0.00000000000E+00 0. -1.
         -4    1    6    6    0  503 -0.32362081384E+02 -0.27895191964E+02  0.12999569883E+03  0.13683686550E+03  0.00000000000E+00 0.  1.
<mgrwt>
<rscale>  0 0.22770551E+04</rscale>
<asrwt>0</asrwt>
<pdfrwt beam="1">  1        2 0.38102004E+00 0.22770551E+04</pdfrwt>
<pdfrwt beam="2">  1       -1 0.80521627E-01 0.22770551E+04</pdfrwt>
<totfact> 0.57098924E+00</totfact>
</mgrwt>
</event>
<event>
12    6  0.1611689E-007  0.1649206E+04  0.7818608E-02  0.8790876E-01
          2   -1    0    0  501    0  0.00000000000E+00  0.00000000000E+00  0.88169671835E+03  0.88169671835E+03  0.00000000000E+00 0. -1.
         -1   -1    0    0    0  501 -0.00000000000E+00 -0.00000000000E+00 -0.77120624284E+03  0.77120624284E+03  0.00000000000E+00 0.  1.
         24    2    1    2    0    0  0.45165078392E+03  0.28155900905E+03  0.29791927525E+03  0.61535652059E+03  0.81509794986E+02 0.  0.
        254    2    1    2    0    0 -0.45165078392E+03 -0.28155900905E+03 -0.18742879973E+03  0.10375464406E+04  0.87069463949E+03 0.  0.
         23    2    4    4    0    0 -0.46982329919E+03 -0.49544528640E+03 -0.32887797561E+03  0.76437675730E+03  0.99554708474E+02 0.  0.
         23    2    4    4    0    0  0.18172515276E+02  0.21388627736E+03  0.14144917588E+03  0.27316968330E+03  0.92391701803E+02 0.  0.
          4    1    3    3  502    0  0.23742326854E+03  0.14274621620E+03  0.10865294841E+03  0.29757646728E+03  0.00000000000E+00 0. -1.
         -3    1    3    3    0  502  0.21422751538E+03  0.13881279285E+03  0.18926632685E+03  0.31778005331E+03  0.00000000000E+00 0.  1.
         11    1    5    5    0    0 -0.37797734834E+03 -0.44924975878E+03 -0.27534399910E+03  0.64846475577E+03  0.00000000000E+00 0. -1.
        -11    1    5    5    0    0 -0.91845950851E+02 -0.46195527618E+02 -0.53533976509E+02  0.11591200154E+03  0.00000000000E+00 0.  1.
          2    1    6    6  503    0 -0.32956302844E+01  0.19732246136E+03  0.94169079817E+02  0.21866602509E+03  0.00000000000E+00 0. -1.
         -2    1    6    6    0  503  0.21468145560E+02  0.16563816000E+02  0.47280096061E+02  0.54503658205E+02  0.00000000000E+00 0.  1.
<mgrwt>
<rscale>  0 0.16492059E+04</rscale>
<asrwt>0</asrwt>
<pdfrwt beam="1">  1        2 0.13564565E+00 0.16492059E+04</pdfrwt>
<pdfrwt beam="2">  1       -1 0.11864711E+00 0.16492059E+04</pdfrwt>
<totfact> 0.20946790E+01</totfact>
</mgrwt>
</event>
<event>
12    6  0.1611689E-007  0.1404948E+04  0.7818608E-02  0.8950245E-01
          2   -1    0    0  501    0  0.00000000000E+00  0.00000000000E+00  0.69074316881E+03  0.69074316881E+03  0.00000000000E+00 0. -1.
         -1   -1    0    0    0  501 -0.00000000000E+00 -0.00000000000E+00 -0.71440367961E+03  0.71440367961E+03  0.00000000000E+00 0.  1.
         24    2    1    2    0    0 -0.49468049769E+01 -0.15439334589E+03  0.36459507291E+03  0.40786009106E+03  0.97767635499E+02 0.  0.
        254    2    1    2    0    0  0.49468049769E+01  0.15439334589E+03 -0.38825558372E+03  0.99728675736E+03  0.90552564954E+03 0.  0.
         23    2    4    4    0    0 -0.21799297480E+03  0.40758388956E+03 -0.43866106115E+03  0.64372443278E+03  0.91170470525E+02 0.  0.
         23    2    4    4    0    0  0.22293977978E+03 -0.25319054367E+03  0.50405477433E+02  0.35356232458E+03  0.93048419630E+02 0.  0.
          4    1    3    3  502    0  0.33066043245E+02 -0.95638102055E+02  0.28199364864E+03  0.29960044668E+03  0.00000000000E+00 0. -1.
         -3    1    3    3    0  502 -0.38012848222E+02 -0.58755243835E+02  0.82601424275E+02  0.10825964438E+03  0.00000000000E+00 0.  1.
         11    1    5    5    0    0 -0.51026652200E+02  0.15936590142E+03 -0.11531015722E+03  0.20321821308E+03  0.00000000000E+00 0. -1.
        -11    1    5    5    0    0 -0.16696632260E+03  0.24821798814E+03 -0.32335090393E+03  0.44050621969E+03  0.00000000000E+00 0.  1.
          1    1    6    6  503    0  0.50435401947E+02 -0.12070365983E+03  0.35469020982E+02  0.13554023283E+03  0.00000000000E+00 0. -1.
         -1    1    6    6    0  503  0.17250437783E+03 -0.13248688384E+03  0.14936456451E+02  0.21802209175E+03  0.00000000000E+00 0.  1.
<mgrwt>
<rscale>  0 0.14049476E+04</rscale>
<asrwt>0</asrwt>
<pdfrwt beam="1">  1        2 0.10626818E+00 0.14049476E+04</pdfrwt>
<pdfrwt beam="2">  1       -1 0.10990826E+00 0.14049476E+04</pdfrwt>
<totfact> 0.35427695E+01</totfact>
</mgrwt>
</event>
<event>
12    6  0.1611689E-007  0.1633301E+04  0.7818608E-02  0.8800347E-01
         -1   -1    0    0    0  501 -0.00000000000E+00  0.00000000000E+00  0.38989998216E+03  0.38989998216E+03  0.00000000000E+00 0.  1.
          2   -1    0    0  501    0  0.00000000000E+00 -0.00000000000E+00 -0.17104846456E+04  0.17104846456E+04  0.00000000000E+00 0. -1.
         24    2    1    2    0    0 -0.38276871429E+03  0.39281822621E+03 -0.45483744943E+03  0.71712760455E+03  0.81097770112E+02 0.  0.
        254    2    1    2    0    0  0.38276871429E+03 -0.39281822621E+03 -0.86574721398E+03  0.13832570232E+04  0.92901222071E+03 0.  0.
         23    2    4    4    0    0  0.33396511897E+02 -0.14787861104E+03  0.17785019318E+03  0.25213818646E+03  0.94654969484E+02 0.  0.
         23    2    4    4    0    0  0.34937220239E+03 -0.24493961517E+03 -0.10435974072E+04  0.11311188367E+04  0.90983095652E+02 0.  0.
          4    1    3    3  502    0 -0.11163527619E+02  0.27881227333E+02 -0.85142452417E+01  0.31216655146E+02  0.00000000000E+00 0. -1.
         -3    1    3    3    0  502 -0.37160518667E+03  0.36493699887E+03 -0.44632320419E+03  0.68591094940E+03  0.00000000000E+00 0.  1.
         11    1    5    5    0    0  0.58452291368E+02 -0.66338164675E+02  0.12005648081E+03  0.14910057358E+03  0.00000000000E+00 0. -1.
        -11    1    5    5    0    0 -0.25055779472E+02 -0.81540446360E+02  0.57793712373E+02  0.10303761288E+03  0.00000000000E+00 0.  1.
          1    1    6    6  503    0  0.29935771367E+03 -0.23648439204E+03 -0.86359633275E+03  0.94410726846E+03  0.00000000000E+00 0. -1.
         -1    1    6    6    0  503  0.50014488720E+02 -0.84552231322E+01 -0.18000107441E+03  0.18701156828E+03  0.00000000000E+00 0.  1.
<mgrwt>
<rscale>  0 0.16333009E+04</rscale>
<asrwt>0</asrwt>
<pdfrwt beam="1">  1        2 0.26315148E+00 0.16333009E+04</pdfrwt>
<pdfrwt beam="2">  1       -1 0.59984613E-01 0.16333009E+04</pdfrwt>
<totfact> 0.29709210E+01</totfact>
</mgrwt>
</event>
<event>
12    6  0.1611689E-007  0.2219434E+04  0.7818608E-02  0.8510383E-01
          2   -1    0    0  501    0  0.00000000000E+00  0.00000000000E+00  0.11844430391E+04  0.11844430391E+04  0.00000000000E+00 0. -1.
         -1   -1    0    0    0  501 -0.00000000000E+00 -0.00000000000E+00 -0.10397053704E+04  0.10397053704E+04  0.00000000000E+00 0.  1.
         24    2    1    2    0    0 -0.67300877507E+03  0.38724238443E+03  0.55916474946E+03  0.96013017638E+03  0.79292262809E+02 0.  0.
        254    2    1    2    0    0  0.67300877507E+03 -0.38724238443E+03 -0.41442708075E+03  0.12640182332E+04  0.90724572910E+03 0.  0.
         23    2    4    4    0    0  0.64755383608E+03  0.12010048972E+02  0.35449739580E+02  0.65480248357E+03  0.89662682051E+02 0.  0.
         23    2    4    4    0    0  0.25454938984E+02 -0.39925243340E+03 -0.44987682033E+03  0.60921574962E+03  0.93296391253E+02 0.  0.
          4    1    3    3  502    0 -0.61454096218E+03  0.32932430921E+03  0.51442418892E+03  0.86645677386E+03  0.00000000000E+00 0. -1.
         -3    1    3    3    0  502 -0.58467812890E+02  0.57918075222E+02  0.44740560540E+02  0.93673402516E+02  0.00000000000E+00 0.  1.
         11    1    5    5    0    0  0.41968139260E+03 -0.35114691379E+02  0.23035614291E+02  0.42177737299E+03  0.00000000000E+00 0. -1.
        -11    1    5    5    0    0  0.22787244348E+03  0.47124740351E+02  0.12414125289E+02  0.23302511058E+03  0.00000000000E+00 0.  1.
          3    1    6    6  503    0 -0.15807446345E+02 -0.11910883236E+02 -0.11979889021E+02  0.23135735138E+02  0.00000000000E+00 0. -1.
         -3    1    6    6    0  503  0.41262385329E+02 -0.38734155016E+03 -0.43789693131E+03  0.58608001449E+03  0.00000000000E+00 0.  1.
<mgrwt>
<rscale>  0 0.22194340E+04</rscale>
<asrwt>0</asrwt>
<pdfrwt beam="1">  1        2 0.18222201E+00 0.22194340E+04</pdfrwt>
<pdfrwt beam="2">  1       -1 0.15995467E+00 0.22194340E+04</pdfrwt>
<totfact> 0.58886521E+00</totfact>
</mgrwt>
</event>
<event>
12    6  0.1611689E-007  0.1659633E+04  0.7818608E-02  0.8784728E-01
         -1   -1    0    0    0  501 -0.00000000000E+00  0.00000000000E+00  0.75802696949E+03  0.75802696949E+03  0.00000000000E+00 0.  1.
          2   -1    0    0  501    0  0.00000000000E+00 -0.00000000000E+00 -0.90840541504E+03  0.90840541504E+03  0.00000000000E+00 0. -1.
         24    2    1    2    0    0  0.35749367822E+03 -0.29802344471E+03  0.30942640483E+03  0.56451583792E+03  0.79458968661E+02 0.  0.
        254    2    1    2    0    0 -0.35749367822E+03  0.29802344471E+03 -0.45980485037E+03  0.11019165466E+04  0.88666784745E+03 0.  0.
         23    2    4    4    0    0  0.15492068475E+03 -0.58470412954E+02 -0.43135836134E+03  0.47028535575E+03  0.87630315441E+02 0.  0.
         23    2    4    4    0    0 -0.51241436296E+03  0.35649385766E+03 -0.28446489025E+02  0.63163119085E+03  0.92154265230E+02 0.  0.
          2    1    3    3  502    0  0.36143486642E+02 -0.84673854207E+01  0.41591308902E+02  0.55748410010E+02  0.00000000000E+00 0. -1.
         -1    1    3    3    0  502  0.32135019157E+03 -0.28955605929E+03  0.26783509592E+03  0.50876742791E+03  0.00000000000E+00 0.  1.
         11    1    5    5    0    0  0.31765229614E+02  0.47846278353E+01 -0.24163871778E+02  0.40197203575E+02  0.00000000000E+00 0.  1.
        -11    1    5    5    0    0  0.12315545513E+03 -0.63255040789E+02 -0.40719448956E+03  0.43008815218E+03  0.00000000000E+00 0. -1.
          3    1    6    6  503    0 -0.17983736914E+03  0.17850344935E+03 -0.51356303564E+00  0.25338749874E+03  0.00000000000E+00 0. -1.
         -3    1    6    6    0  503 -0.33257699382E+03  0.17799040831E+03 -0.27932925990E+02  0.37824369211E+03  0.00000000000E+00 0.  1.
<mgrwt>
<rscale>  0 0.16596335E+04</rscale>
<asrwt>0</asrwt>
<pdfrwt beam="1">  1        2 0.13975468E+00 0.16596335E+04</pdfrwt>
<pdfrwt beam="2">  1       -1 0.11661953E+00 0.16596335E+04</pdfrwt>
<totfact> 0.20927476E+01</totfact>
</mgrwt>
</event>
<event>
12    6  0.1611689E-007  0.2711493E+04  0.7818608E-02  0.8331285E-01
          2   -1    0    0  501    0  0.00000000000E+00  0.00000000000E+00  0.21051210009E+04  0.21051210009E+04  0.00000000000E+00 0. -1.
         -1   -1    0    0    0  501 -0.00000000000E+00 -0.00000000000E+00 -0.87313219877E+03  0.87313219877E+03  0.00000000000E+00 0.  1.
         24    2    1    2    0    0 -0.91976840517E+03 -0.71678236725E+03  0.21955342772E+03  0.11892219269E+04  0.79336011596E+02 0.  0.
        254    2    1    2    0    0  0.91976840517E+03  0.71678236725E+03  0.10124353744E+04  0.17890312727E+04  0.90324782111E+03 0.  0.
         23    2    4    4    0    0  0.92273198791E+03  0.69692358259E+03  0.49404287544E+03  0.12608057924E+04  0.91739205776E+02 0.  0.
         23    2    4    4    0    0 -0.29635827429E+01  0.19858784659E+02  0.51839249898E+03  0.52822548035E+03  0.99439534106E+02 0.  0.
          2    1    3    3  502    0 -0.49303755276E+03 -0.37975309899E+03  0.77028536534E+02  0.62708200426E+03  0.00000000000E+00 0. -1.
         -1    1    3    3    0  502 -0.42673085240E+03 -0.33702926827E+03  0.14252489118E+03  0.56213992268E+03  0.00000000000E+00 0.  1.
         11    1    5    5    0    0  0.47120540633E+03  0.34922394094E+03  0.30006477377E+03  0.65881011250E+03  0.00000000000E+00 0.  1.
        -11    1    5    5    0    0  0.45152658158E+03  0.34769964166E+03  0.19397810167E+03  0.60199567989E+03  0.00000000000E+00 0. -1.
          4    1    6    6  503    0  0.15896397164E+02  0.40682333030E+02  0.10292602421E+03  0.11181017004E+03  0.00000000000E+00 0. -1.
         -4    1    6    6    0  503 -0.18859979906E+02 -0.20823548370E+02  0.41546647477E+03  0.41641531031E+03  0.00000000000E+00 0.  1.
<mgrwt>
<rscale>  0 0.27114933E+04</rscale>
<asrwt>0</asrwt>
<pdfrwt beam="1">  1        2 0.32386477E+00 0.27114933E+04</pdfrwt>
<pdfrwt beam="2">  1       -1 0.13432803E+00 0.27114933E+04</pdfrwt>
<totfact> 0.27151031E+00</totfact>
</mgrwt>
</event>
<event>
12    6  0.1611689E-007  0.2633374E+04  0.7818608E-02  0.8356953E-01
          2   -1    0    0  501    0  0.00000000000E+00  0.00000000000E+00  0.37389748824E+04  0.37389748824E+04  0.00000000000E+00 0. -1.
         -1   -1    0    0    0  501 -0.00000000000E+00 -0.00000000000E+00 -0.46367361457E+03  0.46367361457E+03  0.00000000000E+00 0.  1.
         24    2    1    2    0    0 -0.25664809493E+03  0.30422178484E+03 -0.29309471719E+03  0.50068944679E+03  0.79788908261E+02 0.  0.
        254    2    1    2    0    0  0.25664809493E+03 -0.30422178484E+03  0.35683959850E+04  0.37019590502E+04  0.90146090559E+03 0.  0.
         23    2    4    4    0    0  0.20215592858E+03 -0.29578911144E+03  0.35777891296E+04  0.35968111094E+04  0.90093745538E+02 0.  0.
         23    2    4    4    0    0  0.54492166344E+02 -0.84326733975E+01 -0.93931445898E+01  0.10514794076E+03  0.89035678845E+02 0.  0.
          2    1    3    3  502    0 -0.78699225144E+02  0.43352536799E+02 -0.73109790145E+02  0.11583631512E+03  0.00000000000E+00 0. -1.
         -1    1    3    3    0  502 -0.17794886978E+03  0.26086924804E+03 -0.21998492705E+03  0.38485313167E+03  0.00000000000E+00 0.  1.
         11    1    5    5    0    0  0.34507905175E+02 -0.89572722709E+02  0.13076413595E+04  0.13111597894E+04  0.00000000000E+00 0. -1.
        -11    1    5    5    0    0  0.16764802341E+03 -0.20621638874E+03  0.22701477701E+04  0.22856513201E+04  0.00000000000E+00 0.  1.
          3    1    6    6  503    0  0.78250634937E+02 -0.74187230676E+01  0.23282152514E+01  0.78635996250E+02  0.00000000000E+00 0. -1.
         -3    1    6    6    0  503 -0.23758468593E+02 -0.10139503299E+01 -0.11721359841E+02  0.26511944510E+02  0.00000000000E+00 0.  1.
<mgrwt>
<rscale>  0 0.26333735E+04</rscale>
<asrwt>0</asrwt>
<pdfrwt beam="1">  1        2 0.57522688E+00 0.26333735E+04</pdfrwt>
<pdfrwt beam="2">  1       -1 0.71334405E-01 0.26333735E+04</pdfrwt>
<totfact> 0.10879855E+00</totfact>
</mgrwt>
</event>
<event>
12    6  0.1611689E-007  0.1476393E+04  0.7818608E-02  0.8900305E-01
          2   -1    0    0  501    0  0.00000000000E+00  0.00000000000E+00  0.99296350765E+03  0.99296350765E+03  0.00000000000E+00 0. -1.
         -1   -1    0    0    0  501 -0.00000000000E+00 -0.00000000000E+00 -0.54879598742E+03  0.54879598742E+03  0.00000000000E+00 0.  1.
         24    2    1    2    0    0 -0.21441414217E+03  0.26761518391E+03  0.49763304243E+03  0.60997335488E+03  0.82689405150E+02 0.  0.
        254    2    1    2    0    0  0.21441414217E+03 -0.26761518391E+03 -0.53465522190E+02  0.93178614019E+03  0.86474015632E+03 0.  0.
         23    2    4    4    0    0 -0.74828382111E+02 -0.41437558040E+03  0.23344804915E+03  0.48952256707E+03  0.88475666801E+02 0.  0.
         23    2    4    4    0    0  0.28924252428E+03  0.14676039649E+03 -0.28691357134E+03  0.44226357312E+03  0.89876686937E+02 0.  0.
          4    1    3    3  502    0 -0.15793337245E+03  0.16520694237E+03  0.26759981583E+03  0.35191752638E+03  0.00000000000E+00 0. -1.
         -3    1    3    3    0  502 -0.56480769724E+02  0.10240824154E+03  0.23003322660E+03  0.25805582850E+03  0.00000000000E+00 0.  1.
         11    1    5    5    0    0  0.35904131262E+01 -0.98291617736E+02  0.91244715606E+02  0.13416307730E+03  0.00000000000E+00 0. -1.
        -11    1    5    5    0    0 -0.78418795237E+02 -0.31608396267E+03  0.14220333355E+03  0.35535948977E+03  0.00000000000E+00 0.  1.
          1    1    6    6  503    0  0.23719684007E+03  0.10675491554E+03 -0.26905793996E+03  0.37423405509E+03  0.00000000000E+00 0. -1.
         -1    1    6    6    0  503  0.52045684209E+02  0.40005480955E+02 -0.17855631381E+02  0.68029518029E+02  0.00000000000E+00 0.  1.
<mgrwt>
<rscale>  0 0.14763934E+04</rscale>
<asrwt>0</asrwt>
<pdfrwt beam="1">  1        2 0.15276362E+00 0.14763934E+04</pdfrwt>
<pdfrwt beam="2">  1       -1 0.84430152E-01 0.14763934E+04</pdfrwt>
<totfact> 0.39057746E+01</totfact>
</mgrwt>
</event>
<event>
12    6  0.1611689E-007  0.2182775E+04  0.7818608E-02  0.8525632E-01
          2   -1    0    0  501    0  0.00000000000E+00  0.00000000000E+00  0.12224640200E+04  0.12224640200E+04  0.00000000000E+00 0. -1.
         -1   -1    0    0    0  501 -0.00000000000E+00 -0.00000000000E+00 -0.97436526413E+03  0.97436526413E+03  0.00000000000E+00 0.  1.
         24    2    1    2    0    0 -0.41172741037E+03  0.30414338351E+03  0.85096147587E+03  0.99634659916E+03  0.80922518830E+02 0.  0.
        254    2    1    2    0    0  0.41172741037E+03 -0.30414338351E+03 -0.60286272003E+03  0.12004826849E+04  0.90315699603E+03 0.  0.
         23    2    4    4    0    0  0.64048895682E+03 -0.84758746804E+00 -0.36330765349E+03  0.74210046532E+03  0.92161962492E+02 0.  0.
         23    2    4    4    0    0 -0.22876154646E+03 -0.30329579604E+03 -0.23955506654E+03  0.45838221963E+03  0.91692117061E+02 0.  0.
          4    1    3    3  502    0 -0.27975589030E+03  0.21046196877E+03  0.50590979360E+03  0.61522542025E+03  0.00000000000E+00 0. -1.
         -1    1    3    3    0  502 -0.13197152007E+03  0.93681414740E+02  0.34505168227E+03  0.38112117891E+03  0.00000000000E+00 0.  1.
         11    1    5    5    0    0  0.59702606086E+02 -0.16781577057E+02 -0.61677777414E+02  0.87465254409E+02  0.00000000000E+00 0. -1.
        -11    1    5    5    0    0  0.58078635074E+03  0.15933989589E+02 -0.30162987607E+03  0.65463521091E+03  0.00000000000E+00 0.  1.
          4    1    6    6  503    0 -0.18629866370E+03 -0.20698807589E+03 -0.13300711557E+03  0.30861326680E+03  0.00000000000E+00 0. -1.
         -4    1    6    6    0  503 -0.42462882759E+02 -0.96307720151E+02 -0.10654795097E+03  0.14976895282E+03  0.00000000000E+00 0.  1.
<mgrwt>
<rscale>  0 0.21827748E+04</rscale>
<asrwt>0</asrwt>
<pdfrwt beam="1">  1        2 0.18807139E+00 0.21827748E+04</pdfrwt>
<pdfrwt beam="2">  1       -1 0.14990235E+00 0.21827748E+04</pdfrwt>
<totfact> 0.66980794E+00</totfact>
</mgrwt>
</event>
<event>
12    6  0.1611689E-007  0.1070305E+04  0.7818608E-02  0.9234628E-01
          2   -1    0    0  501    0  0.00000000000E+00  0.00000000000E+00  0.20814874802E+04  0.20814874802E+04  0.00000000000E+00 0. -1.
         -1   -1    0    0    0  501 -0.00000000000E+00 -0.00000000000E+00 -0.13758816688E+03  0.13758816688E+03  0.00000000000E+00 0.  1.
         24    2    1    2    0    0  0.63233014437E+02  0.11587821445E+03  0.55516208271E+03  0.57619464387E+03  0.79806984930E+02 0.  0.
        254    2    1    2    0    0 -0.63233014437E+02 -0.11587821445E+03  0.13887372306E+04  0.16428810032E+04  0.86777918867E+03 0.  0.
         23    2    4    4    0    0 -0.31975690004E+03 -0.13714975898E+03  0.13085017262E+04  0.13570380186E+04  0.91218885726E+02 0.  0.
         23    2    4    4    0    0  0.25652388561E+03  0.21271544529E+02  0.80235504410E+02  0.28584298454E+03  0.94928884699E+02 0.  0.
          4    1    3    3  502    0  0.71903960528E+02  0.66621828592E+02  0.43745176609E+03  0.44829978278E+03  0.00000000000E+00 0. -1.
         -3    1    3    3    0  502 -0.86709460916E+01  0.49256385860E+02  0.11771031662E+03  0.12789486109E+03  0.00000000000E+00 0.  1.
         11    1    5    5    0    0 -0.32576677652E+03 -0.13233410014E+03  0.12702033212E+04  0.13179729830E+04  0.00000000000E+00 0. -1.
        -11    1    5    5    0    0  0.60098764801E+01 -0.48156588395E+01  0.38298404938E+02  0.39065035596E+02  0.00000000000E+00 0.  1.
          3    1    6    6  503    0  0.18712356209E+03  0.33796721556E+01  0.13053343587E+02  0.18760874034E+03  0.00000000000E+00 0. -1.
         -3    1    6    6    0  503  0.69400323519E+02  0.17891872373E+02  0.67182160822E+02  0.98234244204E+02  0.00000000000E+00 0.  1.
<mgrwt>
<rscale>  0 0.10703047E+04</rscale>
<asrwt>0</asrwt>
<pdfrwt beam="1">  1        2 0.32022882E+00 0.10703047E+04</pdfrwt>
<pdfrwt beam="2">  1       -1 0.21167412E-01 0.10703047E+04</pdfrwt>
<totfact> 0.12720283E+02</totfact>
</mgrwt>
</event>
<event>
12    6  0.1611689E-007  0.1474267E+04  0.7818608E-02  0.8901748E-01
         -1   -1    0    0    0  501 -0.00000000000E+00  0.00000000000E+00  0.41774439450E+03  0.41774439450E+03  0.00000000000E+00 0.  1.
          2   -1    0    0  501    0  0.00000000000E+00 -0.00000000000E+00 -0.13007134759E+04  0.13007134759E+04  0.00000000000E+00 0. -1.
         24    2    1    2    0    0  0.18695134769E+03 -0.22737193870E+03  0.12211310595E+03  0.32848037166E+03  0.79617454182E+02 0.  0.
        254    2    1    2    0    0 -0.18695134769E+03  0.22737193870E+03 -0.10050821873E+04  0.13899774987E+04  0.91389191851E+03 0.  0.
         23    2    4    4    0    0 -0.35510573959E+03  0.37907911104E+03 -0.10176127092E+04  0.11460485285E+04  0.89947456798E+02 0.  0.
         23    2    4    4    0    0  0.16815439189E+03 -0.15170717233E+03  0.12530521920E+02  0.24392897019E+03  0.89740530794E+02 0.  0.
          4    1    3    3  502    0  0.73181959713E+02 -0.14647683763E+03  0.49112910143E+02  0.17094777311E+03  0.00000000000E+00 0. -1.
         -3    1    3    3    0  502  0.11376938798E+03 -0.80895101075E+02  0.73000195805E+02  0.15753259855E+03  0.00000000000E+00 0.  1.
         11    1    5    5    0    0 -0.66551279119E+01  0.39035643623E+02 -0.62253525604E+02  0.73780577734E+02  0.00000000000E+00 0.  1.
        -11    1    5    5    0    0 -0.34845061167E+03  0.34004346741E+03 -0.95535918364E+03  0.10722679508E+04  0.00000000000E+00 0. -1.
          3    1    6    6  503    0  0.17315304657E+03 -0.15794089707E+03  0.74975807065E+01  0.23448564609E+03  0.00000000000E+00 0. -1.
         -3    1    6    6    0  503 -0.49986546832E+01  0.62337247376E+01  0.50329412134E+01  0.94433240971E+01  0.00000000000E+00 0.  1.
<mgrwt>
<rscale>  0 0.14742670E+04</rscale>
<asrwt>0</asrwt>
<pdfrwt beam="1">  1        2 0.20010977E+00 0.14742670E+04</pdfrwt>
<pdfrwt beam="2">  1       -1 0.64268368E-01 0.14742670E+04</pdfrwt>
<totfact> 0.44745219E+01</totfact>
</mgrwt>
</event>
<event>
12    6  0.1611689E-007  0.2661641E+04  0.7818608E-02  0.8347559E-01
          2   -1    0    0  501    0  0.00000000000E+00  0.00000000000E+00  0.10897835882E+04  0.10897835882E+04  0.00000000000E+00 0. -1.
         -1   -1    0    0    0  501 -0.00000000000E+00 -0.00000000000E+00 -0.16251696875E+04  0.16251696875E+04  0.00000000000E+00 0.  1.
         24    2    1    2    0    0  0.11552421353E+04  0.15388482233E+03 -0.39011726352E+02  0.11686808986E+04  0.77641472682E+02 0.  0.
        254    2    1    2    0    0 -0.11552421353E+04 -0.15388482233E+03 -0.49637437298E+03  0.15462723771E+04  0.88673886585E+03 0.  0.
         23    2    4    4    0    0 -0.11478897870E+04  0.31586002105E+02 -0.61708393734E+03  0.13068447386E+04  0.91662131587E+02 0.  0.
         23    2    4    4    0    0 -0.73523483473E+01 -0.18547082444E+03  0.12070956436E+03  0.23942763854E+03  0.91111532877E+02 0.  0.
          2    1    3    3  502    0  0.31085565968E+03  0.17535802573E+02 -0.35336882684E+02  0.31334875267E+03  0.00000000000E+00 0. -1.
         -1    1    3    3    0  502  0.84438647566E+03  0.13634901976E+03 -0.36748436685E+01  0.85533214597E+03  0.00000000000E+00 0.  1.
         11    1    5    5    0    0 -0.52485315097E+02 -0.15835867791E+02 -0.39629885929E+02  0.67646218433E+02  0.00000000000E+00 0. -1.
        -11    1    5    5    0    0 -0.10954044719E+04  0.47421869896E+02 -0.57745405141E+03  0.12391985201E+04  0.00000000000E+00 0.  1.
          1    1    6    6  503    0  0.38056052292E+02 -0.85133259953E+02  0.34003442092E+02  0.99258093576E+02  0.00000000000E+00 0. -1.
         -1    1    6    6    0  503 -0.45408400640E+02 -0.10033756448E+03  0.86706122269E+02  0.14016954496E+03  0.00000000000E+00 0.  1.
<mgrwt>
<rscale>  0 0.26616410E+04</rscale>
<asrwt>0</asrwt>
<pdfrwt beam="1">  1        2 0.16765901E+00 0.26616410E+04</pdfrwt>
<pdfrwt beam="2">  1       -1 0.25002611E+00 0.26616410E+04</pdfrwt>
<totfact> 0.15452336E+00</totfact>
</mgrwt>
</event>
<event>
12    6  0.1611689E-007  0.1450883E+04  0.7818608E-02  0.8917789E-01
         -1   -1    0    0    0  501 -0.00000000000E+00  0.00000000000E+00  0.59554380198E+03  0.59554380198E+03  0.00000000000E+00 0.  1.
          2   -1    0    0  501    0  0.00000000000E+00 -0.00000000000E+00 -0.88367137845E+03  0.88367137845E+03  0.00000000000E+00 0. -1.
         24    2    1    2    0    0 -0.23235890702E+03  0.50686981181E+02  0.28875667377E+03  0.38296941622E+03  0.82008081172E+02 0.  0.
        254    2    1    2    0    0  0.23235890702E+03 -0.50686981181E+02 -0.57688425024E+03  0.10962457642E+04  0.90133207291E+03 0.  0.
         23    2    4    4    0    0  0.49347305529E+03 -0.27410338843E+03 -0.41368694466E+03  0.70577873509E+03  0.91314899491E+02 0.  0.
         23    2    4    4    0    0 -0.26111414826E+03  0.22341640725E+03 -0.16319730558E+03  0.39046702913E+03  0.87952548796E+02 0.  0.
          2    1    3    3  502    0 -0.47340975533E+02  0.46485892186E+02  0.70428562896E+02  0.96758920046E+02  0.00000000000E+00 0. -1.
         -1    1    3    3    0  502 -0.18501793149E+03  0.42010889945E+01  0.21832811088E+03  0.28621049617E+03  0.00000000000E+00 0.  1.
         11    1    5    5    0    0  0.34540167852E+03 -0.14647476769E+03 -0.25031882359E+03  0.45101739494E+03  0.00000000000E+00 0. -1.
        -11    1    5    5    0    0  0.14807137677E+03 -0.12762862074E+03 -0.16336812107E+03  0.25476134014E+03  0.00000000000E+00 0.  1.
          4    1    6    6  503    0 -0.21197782756E+03  0.21694602875E+03 -0.15358437468E+03  0.33998285091E+03  0.00000000000E+00 0.  1.
         -4    1    6    6    0  503 -0.49136320703E+02  0.64703785002E+01 -0.96129308946E+01  0.50484178220E+02  0.00000000000E+00 0. -1.
<mgrwt>
<rscale>  0 0.14508825E+04</rscale>
<asrwt>0</asrwt>
<pdfrwt beam="1">  1        2 0.13594944E+00 0.14508825E+04</pdfrwt>
<pdfrwt beam="2">  1       -1 0.91622124E-01 0.14508825E+04</pdfrwt>
<totfact> 0.38669853E+01</totfact>
</mgrwt>
</event>
<event>
12    6  0.1611689E-007  0.4373142E+04  0.7818608E-02  0.7933230E-01
          2   -1    0    0  501    0  0.00000000000E+00  0.00000000000E+00  0.15909070693E+04  0.15909070693E+04  0.00000000000E+00 0. -1.
         -1   -1    0    0    0  501 -0.00000000000E+00 -0.00000000000E+00 -0.30052624271E+04  0.30052624271E+04  0.00000000000E+00 0.  1.
         24    2    1    2    0    0 -0.45572106423E+03  0.55016494730E+03 -0.27490690638E+04  0.28415030252E+04  0.79972290191E+02 0.  0.
        254    2    1    2    0    0  0.45572106423E+03 -0.55016494730E+03  0.13347137060E+04  0.17546664712E+04  0.88714744576E+03 0.  0.
         23    2    4    4    0    0  0.47926760388E+03 -0.67062951969E+03  0.65244291115E+03  0.10554140428E+04  0.93678496538E+02 0.  0.
         23    2    4    4    0    0 -0.23546539656E+02  0.12046457239E+03  0.68227079482E+03  0.69925242832E+03  0.91620785391E+02 0.  0.
          2    1    3    3  502    0 -0.56751865525E+02  0.33974719097E+02 -0.22978268344E+03  0.23911323131E+03  0.00000000000E+00 0. -1.
         -1    1    3    3    0  502 -0.39896919870E+03  0.51619022821E+03 -0.25192863803E+04  0.26023897939E+04  0.00000000000E+00 0.  1.
         11    1    5    5    0    0  0.81289516124E+02 -0.18227718899E+03  0.16060071527E+03  0.25617484030E+03  0.00000000000E+00 0. -1.
        -11    1    5    5    0    0  0.39797808776E+03 -0.48835233070E+03  0.49184219588E+03  0.79923920255E+03  0.00000000000E+00 0.  1.
          1    1    6    6  503    0  0.10600884101E+02 -0.10836894577E+02  0.11440963707E+03  0.11540962734E+03  0.00000000000E+00 0. -1.
         -1    1    6    6    0  503 -0.34147423756E+02  0.13130146697E+03  0.56786115776E+03  0.58384280099E+03  0.00000000000E+00 0.  1.
<mgrwt>
<rscale>  0 0.43731422E+04</rscale>
<asrwt>0</asrwt>
<pdfrwt beam="1">  1        2 0.24475493E+00 0.43731422E+04</pdfrwt>
<pdfrwt beam="2">  1       -1 0.46234806E+00 0.43731422E+04</pdfrwt>
<totfact> 0.26217230E-02</totfact>
</mgrwt>
</event>
<event>
12    6  0.1611689E-007  0.2191226E+04  0.7818608E-02  0.8522089E-01
          2   -1    0    0  501    0  0.00000000000E+00  0.00000000000E+00  0.15403754985E+04  0.15403754985E+04  0.00000000000E+00 0. -1.
         -1   -1    0    0    0  501 -0.00000000000E+00 -0.00000000000E+00 -0.77926951894E+03  0.77926951894E+03  0.00000000000E+00 0.  1.
         24    2    1    2    0    0 -0.64533089722E+03  0.42742685166E+03 -0.19067742815E+03  0.80086646269E+03  0.76704165706E+02 0.  0.
        254    2    1    2    0    0  0.64533089722E+03 -0.42742685166E+03  0.95178340769E+03  0.15187785547E+04  0.89534963157E+03 0.  0.
         23    2    4    4    0    0 -0.15753049339E+03  0.10923861487E+03  0.17533108185E+03  0.27632532328E+03  0.94158189736E+02 0.  0.
         23    2    4    4    0    0  0.80286139061E+03 -0.53666546653E+03  0.77645232583E+03  0.12424532314E+04  0.90639850800E+02 0.  0.
          4    1    3    3  502    0 -0.78798395253E+02  0.75254387720E+02 -0.81048070187E+01  0.10926160287E+03  0.00000000000E+00 0. -1.
         -3    1    3    3    0  502 -0.56653250196E+03  0.35217246394E+03 -0.18257262113E+03  0.69160485982E+03  0.00000000000E+00 0.  1.
         11    1    5    5    0    0 -0.12428510615E+03  0.39863246039E+02  0.77233386902E+02  0.15166035094E+03  0.00000000000E+00 0.  1.
        -11    1    5    5    0    0 -0.33245387246E+02  0.69375368833E+02  0.98097694952E+02  0.12466497234E+03  0.00000000000E+00 0. -1.
          2    1    6    6  503    0  0.44082666661E+03 -0.33495760151E+03  0.40563866089E+03  0.68634354955E+03  0.00000000000E+00 0. -1.
         -2    1    6    6    0  503  0.36203472400E+03 -0.20170786502E+03  0.37081366494E+03  0.55610968190E+03  0.00000000000E+00 0.  1.
<mgrwt>
<rscale>  0 0.21912258E+04</rscale>
<asrwt>0</asrwt>
<pdfrwt beam="1">  1        2 0.23698085E+00 0.21912258E+04</pdfrwt>
<pdfrwt beam="2">  1       -1 0.11988762E+00 0.21912258E+04</pdfrwt>
<totfact> 0.77880675E+00</totfact>
</mgrwt>
</event>
<event>
12    6  0.1611689E-007  0.2022507E+04  0.7818608E-02  0.8596170E-01
         -3   -1    0    0    0  501 -0.00000000000E+00  0.00000000000E+00  0.18930246079E+04  0.18930246079E+04  0.00000000000E+00 0.  1.
          4   -1    0    0  501    0  0.00000000000E+00 -0.00000000000E+00 -0.54021141591E+03  0.54021141591E+03  0.00000000000E+00 0. -1.
         24    2    1    2    0    0 -0.11213784454E+02 -0.63916474054E+03  0.11506778807E+04  0.13185865032E+04  0.77158710229E+02 0.  0.
        254    2    1    2    0    0  0.11213784454E+02  0.63916474054E+03  0.20213531125E+03  0.11146495207E+04  0.89046479736E+03 0.  0.
         23    2    4    4    0    0  0.39579540439E+03  0.10380459671E+03  0.15683339879E+03  0.44755349301E+03  0.90983612218E+02 0.  0.
         23    2    4    4    0    0 -0.38458161994E+03  0.53536014382E+03  0.45301912462E+02  0.66709602765E+03  0.91931174511E+02 0.  0.
          4    1    3    3  502    0 -0.26519601296E+01 -0.10358841363E+03  0.25065420239E+03  0.27122890979E+03  0.00000000000E+00 0. -1.
         -3    1    3    3    0  502 -0.85618243248E+01 -0.53557632691E+03  0.90002367835E+03  0.10473575934E+04  0.00000000000E+00 0.  1.
         11    1    5    5    0    0  0.23882541084E+03  0.70811020867E+02  0.14134079996E+03  0.28640705172E+03  0.00000000000E+00 0.  1.
        -11    1    5    5    0    0  0.15696999355E+03  0.32993575846E+02  0.15492598827E+02  0.16114644129E+03  0.00000000000E+00 0. -1.
          2    1    6    6  503    0 -0.16067643977E+03  0.23205318453E+03  0.64795307389E+02  0.28959287043E+03  0.00000000000E+00 0. -1.
         -2    1    6    6    0  503 -0.22390518017E+03  0.30330695929E+03 -0.19493394927E+02  0.37750315722E+03  0.00000000000E+00 0.  1.
<mgrwt>
<rscale>  0 0.20225069E+04</rscale>
<asrwt>0</asrwt>
<pdfrwt beam="1">  1        4 0.83109450E-01 0.20225069E+04</pdfrwt>
<pdfrwt beam="2">  1       -3 0.29123455E+00 0.20225069E+04</pdfrwt>
<totfact> 0.11504941E-01</totfact>
</mgrwt>
</event>
<event>
12    6  0.1611689E-007  0.1830498E+04  0.7818608E-02  0.8690247E-01
          2   -1    0    0  501    0  0.00000000000E+00  0.00000000000E+00  0.13989155199E+04  0.13989155199E+04  0.00000000000E+00 0. -1.
         -1   -1    0    0    0  501 -0.00000000000E+00 -0.00000000000E+00 -0.59880733910E+03  0.59880733910E+03  0.00000000000E+00 0.  1.
         24    2    1    2    0    0  0.46723443723E+03 -0.12862503835E+03 -0.23430564155E+03  0.54409268223E+03  0.79279842107E+02 0.  0.
        254    2    1    2    0    0 -0.46723443723E+03  0.12862503835E+03  0.10344138224E+04  0.14536301768E+04  0.89898627085E+03 0.  0.
         23    2    4    4    0    0 -0.19308558577E+03  0.36723802757E+03  0.98815313854E+03  0.10755289946E+04  0.90389052208E+02 0.  0.
         23    2    4    4    0    0 -0.27414885147E+03 -0.23861298922E+03  0.46260683835E+02  0.37810118218E+03  0.93416817046E+02 0.  0.
          2    1    3    3  502    0  0.22814251946E+02 -0.12790344996E+02  0.43560867657E+01  0.26515250497E+02  0.00000000000E+00 0. -1.
         -1    1    3    3    0  502  0.44442018529E+03 -0.11583469335E+03 -0.23866172831E+03  0.51757743173E+03  0.00000000000E+00 0.  1.
         11    1    5    5    0    0 -0.12565138357E+03  0.18572383703E+03  0.62447316462E+03  0.66351213038E+03  0.00000000000E+00 0. -1.
        -11    1    5    5    0    0 -0.67434202199E+02  0.18151419055E+03  0.36367997392E+03  0.41201686425E+03  0.00000000000E+00 0.  1.
          3    1    6    6  503    0 -0.13668727293E+02 -0.48077359757E+02 -0.86763932646E+01  0.50730133325E+02  0.00000000000E+00 0. -1.
         -3    1    6    6    0  503 -0.26048012417E+03 -0.19053562947E+03  0.54937077100E+02  0.32737104885E+03  0.00000000000E+00 0.  1.
<mgrwt>
<rscale>  0 0.18304982E+04</rscale>
<asrwt>0</asrwt>
<pdfrwt beam="1">  1        2 0.21521777E+00 0.18304982E+04</pdfrwt>
<pdfrwt beam="2">  1       -1 0.92124206E-01 0.18304982E+04</pdfrwt>
<totfact> 0.17841402E+01</totfact>
</mgrwt>
</event>
<event>
12    6  0.1611689E-007  0.2031540E+04  0.7818608E-02  0.8592015E-01
          2   -1    0    0  501    0  0.00000000000E+00  0.00000000000E+00  0.19932848512E+04  0.19932848512E+04  0.00000000000E+00 0. -1.
         -1   -1    0    0    0  501 -0.00000000000E+00 -0.00000000000E+00 -0.51763218132E+03  0.51763218132E+03  0.00000000000E+00 0.  1.
         24    2    1    2    0    0 -0.37567631383E+03 -0.62055385055E+03  0.13796237950E+03  0.74253218846E+03  0.78106712448E+02 0.  0.
        254    2    1    2    0    0  0.37567631383E+03  0.62055385055E+03  0.13376902903E+04  0.17683848440E+04  0.90086062711E+03 0.  0.
         23    2    4    4    0    0  0.16889444265E+03 -0.12091783891E+02 -0.72958063495E+02  0.20589716745E+03  0.91647261507E+02 0.  0.
         23    2    4    4    0    0  0.20678187119E+03  0.63264563444E+03  0.14106483538E+04  0.15624876766E+04  0.91867949838E+02 0.  0.
          2    1    3    3  502    0 -0.19534181110E+03 -0.31095741426E+03  0.30561298973E+02  0.36849278099E+03  0.00000000000E+00 0. -1.
         -1    1    3    3    0  502 -0.18033450274E+03 -0.30959643629E+03  0.10740108053E+03  0.37403940747E+03  0.00000000000E+00 0.  1.
         11    1    5    5    0    0  0.99094677572E+02  0.38521062260E+02 -0.40063509546E+02  0.11361651358E+03  0.00000000000E+00 0. -1.
        -11    1    5    5    0    0  0.69799765073E+02 -0.50612846151E+02 -0.32894553949E+02  0.92280653873E+02  0.00000000000E+00 0.  1.
          4    1    6    6  503    0  0.46147333517E+02  0.23777276778E+03  0.58839739606E+03  0.63629942730E+03  0.00000000000E+00 0. -1.
         -4    1    6    6    0  503  0.16063453767E+03  0.39487286666E+03  0.82225095777E+03  0.92618824927E+03  0.00000000000E+00 0.  1.
<mgrwt>
<rscale>  0 0.20315397E+04</rscale>
<asrwt>0</asrwt>
<pdfrwt beam="1">  1        2 0.30665920E+00 0.20315397E+04</pdfrwt>
<pdfrwt beam="2">  1       -1 0.79635721E-01 0.20315397E+04</pdfrwt>
<totfact> 0.11198656E+01</totfact>
</mgrwt>
</event>
<event>
12    6  0.1611689E-007  0.1767863E+04  0.7818608E-02  0.8723579E-01
         -1   -1    0    0    0  501 -0.00000000000E+00  0.00000000000E+00  0.36408866012E+03  0.36408866012E+03  0.00000000000E+00 0.  1.
          2   -1    0    0  501    0  0.00000000000E+00 -0.00000000000E+00 -0.21460024282E+04  0.21460024282E+04  0.00000000000E+00 0. -1.
         24    2    1    2    0    0 -0.55894427473E+03  0.25124442781E+03 -0.33664500540E+03  0.70371543122E+03  0.79643478796E+02 0.  0.
        254    2    1    2    0    0  0.55894427473E+03 -0.25124442781E+03 -0.14452687626E+04  0.18063756571E+04  0.89367150194E+03 0.  0.
         23    2    4    4    0    0  0.72498401258E+03 -0.15299394785E+03 -0.13985955958E+04  0.15855049737E+04  0.93527614177E+02 0.  0.
         23    2    4    4    0    0 -0.16603973785E+03 -0.98250479967E+02 -0.46673166862E+02  0.22087068333E+03  0.96866521009E+02 0.  0.
          4    1    3    3  502    0 -0.14897013111E+03  0.35530444057E+02 -0.10566894679E+03  0.18606568393E+03  0.00000000000E+00 0. -1.
         -3    1    3    3    0  502 -0.40997414362E+03  0.21571398376E+03 -0.23097605861E+03  0.51764974729E+03  0.00000000000E+00 0.  1.
         11    1    5    5    0    0  0.71628551166E+03 -0.16078286512E+03 -0.13641713264E+04  0.15491544376E+04  0.00000000000E+00 0. -1.
        -11    1    5    5    0    0  0.86985009166E+01  0.77889172736E+01 -0.34424269399E+02  0.36350536092E+02  0.00000000000E+00 0.  1.
          1    1    6    6  503    0 -0.15429226810E+03 -0.10905005969E+03 -0.20274462926E+02  0.19002387576E+03  0.00000000000E+00 0. -1.
         -1    1    6    6    0  503 -0.11747469749E+02  0.10799579722E+02 -0.26398703936E+02  0.30846807569E+02  0.00000000000E+00 0.  1.
<mgrwt>
<rscale>  0 0.17678633E+04</rscale>
<asrwt>0</asrwt>
<pdfrwt beam="1">  1        2 0.33015422E+00 0.17678633E+04</pdfrwt>
<pdfrwt beam="2">  1       -1 0.56013641E-01 0.17678633E+04</pdfrwt>
<totfact> 0.19249527E+01</totfact>
</mgrwt>
</event>
<event>
12    6  0.1611689E-007  0.1435516E+04  0.7818608E-02  0.8928504E-01
         -1   -1    0    0    0  501 -0.00000000000E+00  0.00000000000E+00  0.40212102133E+03  0.40212102133E+03  0.00000000000E+00 0.  1.
          2   -1    0    0  501    0  0.00000000000E+00 -0.00000000000E+00 -0.12811487317E+04  0.12811487317E+04  0.00000000000E+00 0. -1.
         24    2    1    2    0    0  0.30745400796E+02 -0.59575177842E+02 -0.76570158107E+03  0.77261769133E+03  0.78388163737E+02 0.  0.
        254    2    1    2    0    0 -0.30745400796E+02  0.59575177842E+02 -0.11332612925E+03  0.91065206166E+03  0.90108261794E+03 0.  0.
         23    2    4    4    0    0 -0.48489305500E+02 -0.27034085366E+03  0.27105992295E+03  0.39563141828E+03  0.87265957858E+02 0.  0.
         23    2    4    4    0    0  0.17743904704E+02  0.32991603150E+03 -0.38438605220E+03  0.51502064338E+03  0.91291795838E+02 0.  0.
          2    1    3    3  502    0  0.44360560657E+02 -0.72055514755E+02 -0.63839427583E+03  0.64397756790E+03  0.00000000000E+00 0. -1.
         -1    1    3    3    0  502 -0.13615159861E+02  0.12480336912E+02 -0.12730730524E+03  0.12864012342E+03  0.00000000000E+00 0.  1.
         11    1    5    5    0    0 -0.50085485000E+02 -0.25100903949E+03  0.20849243945E+03  0.33012602294E+03  0.00000000000E+00 0. -1.
        -11    1    5    5    0    0  0.15961795003E+01 -0.19331814163E+02  0.62567483495E+02  0.65505395341E+02  0.00000000000E+00 0.  1.
          1    1    6    6  503    0  0.43681558916E+02  0.29339370499E+03 -0.34832979741E+03  0.45751676743E+03  0.00000000000E+00 0. -1.
         -1    1    6    6    0  503 -0.25937654211E+02  0.36522326509E+02 -0.36056254789E+02  0.57503875948E+02  0.00000000000E+00 0.  1.
<mgrwt>
<rscale>  0 0.14355164E+04</rscale>
<asrwt>0</asrwt>
<pdfrwt beam="1">  1        2 0.19709981E+00 0.14355164E+04</pdfrwt>
<pdfrwt beam="2">  1       -1 0.61864772E-01 0.14355164E+04</pdfrwt>
<totfact> 0.49731921E+01</totfact>
</mgrwt>
</event>
<event>
12    6  0.1611689E-007  0.4064481E+04  0.7818608E-02  0.7991663E-01
         -1   -1    0    0    0  501 -0.00000000000E+00  0.00000000000E+00  0.12729013995E+04  0.12729013995E+04  0.00000000000E+00 0.  1.
          2   -1    0    0  501    0  0.00000000000E+00 -0.00000000000E+00 -0.32445578721E+04  0.32445578721E+04  0.00000000000E+00 0. -1.
         24    2    1    2    0    0  0.65544865850E+03 -0.97751932037E+03  0.76268423466E+03  0.14050422887E+04  0.85437845941E+02 0.  0.
        254    2    1    2    0    0 -0.65544865850E+03  0.97751932037E+03 -0.27343407073E+04  0.31124169829E+04  0.90849513276E+03 0.  0.
         23    2    4    4    0    0 -0.76419854089E+03  0.99262697872E+03 -0.26798911368E+04  0.29596307923E+04  0.91050495689E+02 0.  0.
         23    2    4    4    0    0  0.10874988239E+03 -0.15107658346E+02 -0.54449570517E+02  0.15278619064E+03  0.91236429446E+02 0.  0.
          2    1    3    3  502    0  0.92149226733E+02 -0.95324853101E+02  0.70341848693E+02  0.15008758538E+03  0.00000000000E+00 0. -1.
         -1    1    3    3    0  502  0.56329943177E+03 -0.88219446727E+03  0.69234238597E+03  0.12549547033E+04  0.00000000000E+00 0.  1.
         11    1    5    5    0    0 -0.25011326216E+03  0.25967752134E+03 -0.74452349032E+03  0.82722686527E+03  0.00000000000E+00 0.  1.
        -11    1    5    5    0    0 -0.51408527873E+03  0.73294945738E+03 -0.19353676465E+04  0.21324039270E+04  0.00000000000E+00 0. -1.
          2    1    6    6  503    0  0.94957941046E+02 -0.22979739160E+02 -0.17166699679E+01  0.97714000713E+02  0.00000000000E+00 0. -1.
         -2    1    6    6    0  503  0.13791941347E+02  0.78720808143E+01 -0.52732900550E+02  0.55072189922E+02  0.00000000000E+00 0.  1.
<mgrwt>
<rscale>  0 0.40644814E+04</rscale>
<asrwt>0</asrwt>
<pdfrwt beam="1">  1        2 0.49916276E+00 0.40644814E+04</pdfrwt>
<pdfrwt beam="2">  1       -1 0.19583098E+00 0.40644814E+04</pdfrwt>
<totfact> 0.17355531E-01</totfact>
</mgrwt>
</event>
<event>
12    6  0.1611689E-007  0.1939993E+04  0.7818608E-02  0.8635202E-01
         -1   -1    0    0    0  501 -0.00000000000E+00  0.00000000000E+00  0.95438144966E+03  0.95438144966E+03  0.00000000000E+00 0.  1.
          2   -1    0    0  501    0  0.00000000000E+00 -0.00000000000E+00 -0.98586671832E+03  0.98586671832E+03  0.00000000000E+00 0. -1.
         24    2    1    2    0    0  0.44095143929E+02  0.53258305345E+03 -0.55388191743E+03  0.77376080461E+03  0.79570809650E+02 0.  0.
        254    2    1    2    0    0 -0.44095143929E+02 -0.53258305345E+03  0.52239664878E+03  0.11664873634E+04  0.89565920960E+03 0.  0.
         23    2    4    4    0    0  0.21405578616E+03 -0.10635703389E+03 -0.17160360793E+03  0.30740113973E+03  0.88971704508E+02 0.  0.
         23    2    4    4    0    0 -0.25815093009E+03 -0.42622601955E+03  0.69400025670E+03  0.85908622365E+03  0.89901395515E+02 0.  0.
          2    1    3    3  502    0  0.67443189730E+02  0.40973782334E+03 -0.42502692866E+03  0.59420666253E+03  0.00000000000E+00 0. -1.
         -1    1    3    3    0  502 -0.23348045801E+02  0.12284523011E+03 -0.12885498878E+03  0.17955414207E+03  0.00000000000E+00 0.  1.
         11    1    5    5    0    0  0.19384763455E+03 -0.62543297237E+02 -0.11849261885E+03  0.23564606972E+03  0.00000000000E+00 0.  1.
        -11    1    5    5    0    0  0.20208151608E+02 -0.43813736654E+02 -0.53110989077E+02  0.71755070007E+02  0.00000000000E+00 0. -1.
          3    1    6    6  503    0 -0.77311709915E+02 -0.17949875906E+03  0.33086215653E+03  0.38427421409E+03  0.00000000000E+00 0. -1.
         -3    1    6    6    0  503 -0.18083922018E+03 -0.24672726049E+03  0.36313810018E+03  0.47481200956E+03  0.00000000000E+00 0.  1.
<mgrwt>
<rscale>  0 0.19399927E+04</rscale>
<asrwt>0</asrwt>
<pdfrwt beam="1">  1        2 0.15167180E+00 0.19399927E+04</pdfrwt>
<pdfrwt beam="2">  1       -1 0.14682792E+00 0.19399927E+04</pdfrwt>
<totfact> 0.10124061E+01</totfact>
</mgrwt>
</event>
<event>
12    6  0.1611689E-007  0.1493244E+04  0.7818608E-02  0.8888958E-01
         -3   -1    0    0    0  501 -0.00000000000E+00  0.00000000000E+00  0.41787849399E+03  0.41787849399E+03  0.00000000000E+00 0.  1.
          2   -1    0    0  501    0  0.00000000000E+00 -0.00000000000E+00 -0.13339871975E+04  0.13339871975E+04  0.00000000000E+00 0. -1.
         24    2    1    2    0    0 -0.10013031916E+03  0.40745532962E+03 -0.55081645364E+03  0.69700703817E+03  0.79838081170E+02 0.  0.
        254    2    1    2    0    0  0.10013031916E+03 -0.40745532962E+03 -0.36529224991E+03  0.10548586534E+04  0.89623792838E+03 0.  0.
         23    2    4    4    0    0 -0.22508289147E+03 -0.31155670662E+02 -0.47745329205E+03  0.53657129753E+03  0.91181836992E+02 0.  0.
         23    2    4    4    0    0  0.32521321063E+03 -0.37629965896E+03  0.11216104215E+03  0.51828735582E+03  0.93148366207E+02 0.  0.
          4    1    3    3  502    0 -0.97731802456E+02  0.39681815722E+03 -0.50365783622E+03  0.64860417135E+03  0.00000000000E+00 0. -1.
         -3    1    3    3    0  502 -0.23985167084E+01  0.10637172403E+02 -0.47158617424E+02  0.48402866820E+02  0.00000000000E+00 0.  1.
         11    1    5    5    0    0 -0.21501746497E+03 -0.51255077374E+02 -0.44756477157E+03  0.49917313424E+03  0.00000000000E+00 0.  1.
        -11    1    5    5    0    0 -0.10065426493E+02  0.20099406712E+02 -0.29888520488E+02  0.37398163292E+02  0.00000000000E+00 0. -1.
          3    1    6    6  503    0  0.56097864269E+02 -0.61246433567E+02  0.55961062971E+02  0.10014857248E+03  0.00000000000E+00 0. -1.
         -3    1    6    6    0  503  0.26911534636E+03 -0.31505322540E+03  0.56199979176E+02  0.41813878335E+03  0.00000000000E+00 0.  1.
<mgrwt>
<rscale>  0 0.14932442E+04</rscale>
<asrwt>0</asrwt>
<pdfrwt beam="1">  1        2 0.20522880E+00 0.14932442E+04</pdfrwt>
<pdfrwt beam="2">  1       -3 0.64288999E-01 0.14932442E+04</pdfrwt>
<totfact> 0.22841784E+01</totfact>
</mgrwt>
</event>
<event>
12    6  0.1611689E-007  0.2152817E+04  0.7818608E-02  0.8538327E-01
         -1   -1    0    0    0  501 -0.00000000000E+00  0.00000000000E+00  0.65158438029E+03  0.65158438029E+03  0.00000000000E+00 0.  1.
          2   -1    0    0  501    0  0.00000000000E+00 -0.00000000000E+00 -0.17782118841E+04  0.17782118841E+04  0.00000000000E+00 0. -1.
         24    2    1    2    0    0 -0.39869266458E+03  0.78386806132E+03 -0.36394172991E+03  0.95503590139E+03  0.78962091114E+02 0.  0.
        254    2    1    2    0    0  0.39869266458E+03 -0.78386806132E+03 -0.76268577392E+03  0.14747603630E+04  0.90544108601E+03 0.  0.
         23    2    4    4    0    0  0.96478490021E+02 -0.83526144820E+03 -0.26881061904E+03  0.88744265069E+03  0.91244306473E+02 0.  0.
         23    2    4    4    0    0  0.30221417456E+03  0.51393386879E+02 -0.49387515487E+03  0.58731771233E+03  0.83992494269E+02 0.  0.
          4    1    3    3  502    0 -0.85909567229E+02  0.15455968250E+03 -0.10756935248E+03  0.20697902017E+03  0.00000000000E+00 0. -1.
         -3    1    3    3    0  502 -0.31278309735E+03  0.62930837882E+03 -0.25637237743E+03  0.74805688123E+03  0.00000000000E+00 0.  1.
         11    1    5    5    0    0  0.64515125396E+02 -0.24803481208E+03 -0.58559069997E+02  0.26289281863E+03  0.00000000000E+00 0. -1.
        -11    1    5    5    0    0  0.31963364625E+02 -0.58722663612E+03 -0.21025154905E+03  0.62454983205E+03  0.00000000000E+00 0.  1.
          3    1    6    6  503    0  0.29176928911E+02 -0.40052925331E+00 -0.10742869940E+03  0.11132106296E+03  0.00000000000E+00 0. -1.
         -3    1    6    6    0  503  0.27303724564E+03  0.51793916132E+02 -0.38644645548E+03  0.47599664937E+03  0.00000000000E+00 0.  1.
<mgrwt>
<rscale>  0 0.21528168E+04</rscale>
<asrwt>0</asrwt>
<pdfrwt beam="1">  1        2 0.27357106E+00 0.21528168E+04</pdfrwt>
<pdfrwt beam="2">  1       -1 0.10024375E+00 0.21528168E+04</pdfrwt>
<totfact> 0.87860638E+00</totfact>
</mgrwt>
</event>
<event>
12    6  0.1611689E-007  0.1361855E+04  0.7818608E-02  0.8981902E-01
          2   -1    0    0  501    0  0.00000000000E+00  0.00000000000E+00  0.34162294379E+04  0.34162294379E+04  0.00000000000E+00 0. -1.
         -1   -1    0    0    0  501 -0.00000000000E+00 -0.00000000000E+00 -0.13572346233E+03  0.13572346233E+03  0.00000000000E+00 0.  1.
         24    2    1    2    0    0  0.58733684405E+02  0.20128402850E+03  0.11112834922E+03  0.25024734611E+03  0.79431218180E+02 0.  0.
        254    2    1    2    0    0 -0.58733684405E+02 -0.20128402850E+03  0.31693776263E+04  0.33017055541E+04  0.90129913009E+03 0.  0.
         23    2    4    4    0    0 -0.23500295991E+03  0.31259128411E+02  0.21741672127E+03  0.33394619416E+03  0.89702316762E+02 0.  0.
         23    2    4    4    0    0  0.17626927551E+03 -0.23254315691E+03  0.29519609051E+04  0.29677593599E+04  0.91516425705E+02 0.  0.
          2    1    3    3  502    0 -0.92528494254E+01  0.20910779273E+02  0.37462989816E+02  0.43890221214E+02  0.00000000000E+00 0. -1.
         -1    1    3    3    0  502  0.67986533831E+02  0.18037324923E+03  0.73665359408E+02  0.20635712490E+03  0.00000000000E+00 0.  1.
         11    1    5    5    0    0 -0.14996862586E+03 -0.20807766675E+02  0.10840913943E+03  0.18621518039E+03  0.00000000000E+00 0. -1.
        -11    1    5    5    0    0 -0.85034334051E+02  0.52066895086E+02  0.10900758184E+03  0.14773101377E+03  0.00000000000E+00 0.  1.
          3    1    6    6  503    0  0.17930356057E+03 -0.22401065434E+03  0.29298359761E+04  0.29438528134E+04  0.00000000000E+00 0. -1.
         -3    1    6    6    0  503 -0.30342850629E+01 -0.85325025746E+01  0.22124928966E+02  0.23906546546E+02  0.00000000000E+00 0.  1.
<mgrwt>
<rscale>  0 0.13618553E+04</rscale>
<asrwt>0</asrwt>
<pdfrwt beam="1">  1        2 0.52557370E+00 0.13618553E+04</pdfrwt>
<pdfrwt beam="2">  1       -1 0.20880535E-01 0.13618553E+04</pdfrwt>
<totfact> 0.19987091E+01</totfact>
</mgrwt>
</event>
<event>
12    6  0.1611689E-007  0.1710038E+04  0.7818608E-02  0.8755660E-01
         -1   -1    0    0    0  501 -0.00000000000E+00  0.00000000000E+00  0.27089571045E+03  0.27089571045E+03  0.00000000000E+00 0.  1.
          2   -1    0    0  501    0  0.00000000000E+00 -0.00000000000E+00 -0.26986679859E+04  0.26986679859E+04  0.00000000000E+00 0. -1.
         24    2    1    2    0    0 -0.34753694784E+03  0.64880475071E+02 -0.17475675729E+04  0.17847258687E+04  0.79136582029E+02 0.  0.
        254    2    1    2    0    0  0.34753694784E+03 -0.64880475071E+02 -0.68020470263E+03  0.11848378277E+04  0.90342173664E+03 0.  0.
         23    2    4    4    0    0 -0.20482021672E+02  0.35157669319E+03 -0.10205765003E+03  0.37787404302E+03  0.91363800535E+02 0.  0.
         23    2    4    4    0    0  0.36801896952E+03 -0.41645716826E+03 -0.57814705260E+03  0.80696378465E+03  0.89788642874E+02 0.  0.
          4    1    3    3  502    0 -0.25620502729E+03  0.15820814188E+02 -0.13241005547E+04  0.13487526063E+04  0.00000000000E+00 0. -1.
         -3    1    3    3    0  502 -0.91331920550E+02  0.49059660882E+02 -0.42346701818E+03  0.43597326240E+03  0.00000000000E+00 0.  1.
         11    1    5    5    0    0 -0.31233442783E+02  0.33315121941E+03 -0.74120143123E+02  0.34272300559E+03  0.00000000000E+00 0.  1.
        -11    1    5    5    0    0  0.10751421112E+02  0.18425473777E+02 -0.27937506906E+02  0.35151037424E+02  0.00000000000E+00 0. -1.
          3    1    6    6  503    0  0.59770090335E-01 -0.20159151058E+01  0.31921535113E+01  0.37758880038E+01  0.00000000000E+00 0. -1.
         -3    1    6    6    0  503  0.36795919942E+03 -0.41444125316E+03 -0.58133920611E+03  0.80318789665E+03  0.00000000000E+00 0.  1.
<mgrwt>
<rscale>  0 0.17100381E+04</rscale>
<asrwt>0</asrwt>
<pdfrwt beam="1">  1        2 0.41517967E+00 0.17100381E+04</pdfrwt>
<pdfrwt beam="2">  1       -1 0.41676266E-01 0.17100381E+04</pdfrwt>
<totfact> 0.16309759E+01</totfact>
</mgrwt>
</event>
<event>
12    6  0.1611689E-007  0.1715291E+04  0.7818608E-02  0.8752691E-01
         -1   -1    0    0    0  501 -0.00000000000E+00  0.00000000000E+00  0.38475677676E+03  0.38475677676E+03  0.00000000000E+00 0.  1.
          2   -1    0    0  501    0  0.00000000000E+00 -0.00000000000E+00 -0.19117432999E+04  0.19117432999E+04  0.00000000000E+00 0. -1.
         24    2    1    2    0    0  0.35513023152E+03  0.12734298626E+03  0.94453968769E+02  0.39692851973E+03  0.79353513279E+02 0.  0.
        254    2    1    2    0    0 -0.35513023152E+03 -0.12734298626E+03 -0.16214404920E+04  0.18995715570E+04  0.91486016069E+03 0.  0.
         23    2    4    4    0    0 -0.12817881945E+03 -0.22978956736E+03 -0.16109076026E+04  0.16346768094E+04  0.88948929019E+02 0.  0.
         23    2    4    4    0    0 -0.22695141207E+03  0.10244658110E+03 -0.10532889372E+02  0.26489474762E+03  0.89755446279E+02 0.  0.
          2    1    3    3  502    0  0.21866030035E+02 -0.23981419540E+01 -0.10278856070E+02  0.24280223155E+02  0.00000000000E+00 0. -1.
         -1    1    3    3    0  502  0.33326420149E+03  0.12974112821E+03  0.10473282484E+03  0.37264829658E+03  0.00000000000E+00 0.  1.
         11    1    5    5    0    0 -0.34095073214E+02 -0.32566803734E+02 -0.14245200803E+03  0.15005214199E+03  0.00000000000E+00 0.  1.
        -11    1    5    5    0    0 -0.94083746235E+02 -0.19722276362E+03 -0.14684555945E+04  0.14846246674E+04  0.00000000000E+00 0. -1.
          3    1    6    6  503    0 -0.19560906375E+03  0.11856711524E+03 -0.15684894503E+02  0.22927512415E+03  0.00000000000E+00 0. -1.
         -3    1    6    6    0  503 -0.31342348319E+02 -0.16120534141E+02  0.51520051311E+01  0.35619623468E+02  0.00000000000E+00 0.  1.
<mgrwt>
<rscale>  0 0.17152915E+04</rscale>
<asrwt>0</asrwt>
<pdfrwt beam="1">  1        2 0.29411436E+00 0.17152915E+04</pdfrwt>
<pdfrwt beam="2">  1       -1 0.59193350E-01 0.17152915E+04</pdfrwt>
<totfact> 0.23426282E+01</totfact>
</mgrwt>
</event>
<event>
12    6  0.1611689E-007  0.1545733E+04  0.7818608E-02  0.8854598E-01
          2   -1    0    0  501    0  0.00000000000E+00  0.00000000000E+00  0.13573205204E+04  0.13573205204E+04  0.00000000000E+00 0. -1.
         -1   -1    0    0    0  501 -0.00000000000E+00 -0.00000000000E+00 -0.44007501366E+03  0.44007501366E+03  0.00000000000E+00 0.  1.
         24    2    1    2    0    0  0.16995839318E+03 -0.20394442956E+03  0.81435453956E+03  0.86023623599E+03  0.79711227871E+02 0.  0.
        254    2    1    2    0    0 -0.16995839318E+03  0.20394442956E+03  0.10289096722E+03  0.93715929810E+03  0.89286158677E+03 0.  0.
         23    2    4    4    0    0  0.35811280029E+03  0.10611996579E+03  0.68902203339E+02  0.39128267220E+03  0.94065886831E+02 0.  0.
         23    2    4    4    0    0 -0.52807119347E+03  0.97824463766E+02  0.33988763878E+02  0.54587662591E+03  0.91636475038E+02 0.  0.
          4    1    3    3  502    0  0.11895850112E+03 -0.14109038420E+03  0.66762225254E+03  0.69265943550E+03  0.00000000000E+00 0. -1.
         -3    1    3    3    0  502  0.50999892063E+02 -0.62854045355E+02  0.14673228702E+03  0.16757680049E+03  0.00000000000E+00 0.  1.
         11    1    5    5    0    0  0.35968307738E+03  0.93417243269E+02  0.70926168626E+02  0.37832422456E+03  0.00000000000E+00 0.  1.
        -11    1    5    5    0    0 -0.15702770920E+01  0.12702722521E+02 -0.20239652873E+01  0.12958447634E+02  0.00000000000E+00 0. -1.
          2    1    6    6  503    0 -0.54247691223E+02  0.21933962277E+02  0.30533648404E+02  0.66001624139E+02  0.00000000000E+00 0. -1.
         -2    1    6    6    0  503 -0.47382350225E+03  0.75890501489E+02  0.34551154731E+01  0.47987500177E+03  0.00000000000E+00 0.  1.
<mgrwt>
<rscale>  0 0.15457333E+04</rscale>
<asrwt>0</asrwt>
<pdfrwt beam="1">  1        2 0.20881854E+00 0.15457333E+04</pdfrwt>
<pdfrwt beam="2">  1       -1 0.67703849E-01 0.15457333E+04</pdfrwt>
<totfact> 0.37125441E+01</totfact>
</mgrwt>
</event>
<event>
12    6  0.1687891E-007  0.1455134E+04  0.7818608E-02  0.8914849E-01
         -1   -1    0    0    0  501 -0.00000000000E+00  0.00000000000E+00  0.31603725505E+03  0.31603725505E+03  0.00000000000E+00 0.  1.
          2   -1    0    0  501    0  0.00000000000E+00 -0.00000000000E+00 -0.16749717847E+04  0.16749717847E+04  0.00000000000E+00 0. -1.
         24    2    1    2    0    0 -0.18985739384E+03  0.40208447646E+03 -0.37662127130E+03  0.59173059478E+03  0.10287739597E+03 0.  0.
        254    2    1    2    0    0  0.18985739384E+03 -0.40208447646E+03 -0.98231325833E+03  0.13992784449E+04  0.89180887683E+03 0.  0.
         23    2    4    4    0    0  0.51940185038E+03 -0.31861141826E+03 -0.45982074966E+03  0.76912894891E+03  0.93982446250E+02 0.  0.
         23    2    4    4    0    0 -0.32954445654E+03 -0.83473058201E+02 -0.52249250866E+03  0.63014949603E+03  0.92318283430E+02 0.  0.
          2    1    3    3  502    0 -0.31208123748E+02  0.58256953816E+02 -0.14241493943E+02  0.67606507125E+02  0.00000000000E+00 0. -1.
         -1    1    3    3    0  502 -0.15864927009E+03  0.34382752264E+03 -0.36237977735E+03  0.52412408766E+03  0.00000000000E+00 0.  1.
         11    1    5    5    0    0  0.51748618125E+03 -0.31393765800E+03 -0.46393291570E+03  0.76261559856E+03  0.00000000000E+00 0.  1.
        -11    1    5    5    0    0  0.19156691296E+01 -0.46737602614E+01  0.41121660406E+01  0.65133503468E+01  0.00000000000E+00 0. -1.
          2    1    6    6  503    0 -0.23082403384E+03 -0.73025017374E+02 -0.29282766430E+03  0.37994792898E+03  0.00000000000E+00 0.  1.
         -2    1    6    6    0  503 -0.98720422704E+02 -0.10448040827E+02 -0.22966484437E+03  0.25020156705E+03  0.00000000000E+00 0. -1.
<mgrwt>
<rscale>  0 0.14551337E+04</rscale>
<asrwt>0</asrwt>
<pdfrwt beam="1">  1        2 0.25768797E+00 0.14551337E+04</pdfrwt>
<pdfrwt beam="2">  1       -1 0.48621116E-01 0.14551337E+04</pdfrwt>
<totfact> 0.47342373E+01</totfact>
</mgrwt>
</event>
<event>
12    6  0.1611689E-007  0.2390887E+04  0.7818608E-02  0.8442923E-01
         -1   -1    0    0    0  501 -0.00000000000E+00  0.00000000000E+00  0.76221292467E+03  0.76221292467E+03  0.00000000000E+00 0.  1.
          2   -1    0    0  501    0  0.00000000000E+00 -0.00000000000E+00 -0.18749158337E+04  0.18749158337E+04  0.00000000000E+00 0. -1.
         24    2    1    2    0    0 -0.11108866054E+03 -0.57931210603E+03  0.44254591048E+03  0.74172668788E+03  0.79802192585E+02 0.  0.
        254    2    1    2    0    0  0.11108866054E+03  0.57931210603E+03 -0.15552488195E+04  0.18954020704E+04  0.90873918783E+03 0.  0.
         23    2    4    4    0    0  0.19032452503E+03  0.72267487185E+03 -0.15308105657E+04  0.17060905685E+04  0.94242477970E+02 0.  0.
         23    2    4    4    0    0 -0.79235864491E+02 -0.14336276583E+03 -0.24438253804E+02  0.18931150197E+03  0.91708296690E+02 0.  0.
          4    1    3    3  502    0 -0.11811303626E+02 -0.53191846450E+02  0.14874558655E+02  0.56481252795E+02  0.00000000000E+00 0. -1.
         -1    1    3    3    0  502 -0.99277356911E+02 -0.52612025958E+03  0.42767135183E+03  0.68524543509E+03  0.00000000000E+00 0.  1.
         11    1    5    5    0    0  0.17968219557E+03  0.57477132343E+03 -0.11668833126E+04  0.13131124974E+04  0.00000000000E+00 0. -1.
        -11    1    5    5    0    0  0.10642329462E+02  0.14790354842E+03 -0.36392725303E+03  0.39297807103E+03  0.00000000000E+00 0.  1.
          1    1    6    6  503    0 -0.67251813658E+02 -0.31709943180E+02 -0.19696300819E+02  0.76917301063E+02  0.00000000000E+00 0. -1.
         -1    1    6    6    0  503 -0.11984050833E+02 -0.11165282265E+03 -0.47419529849E+01  0.11239420091E+03  0.00000000000E+00 0.  1.
<mgrwt>
<rscale>  0 0.23908869E+04</rscale>
<asrwt>0</asrwt>
<pdfrwt beam="1">  1        2 0.28844858E+00 0.23908869E+04</pdfrwt>
<pdfrwt beam="2">  1       -1 0.11726353E+00 0.23908869E+04</pdfrwt>
<totfact> 0.52595340E+00</totfact>
</mgrwt>
</event>
<event>
12    6  0.1611689E-007  0.1243793E+04  0.7818608E-02  0.9075365E-01
          2   -1    0    0  501    0  0.00000000000E+00  0.00000000000E+00  0.92889703537E+03  0.92889703537E+03  0.00000000000E+00 0. -1.
         -1   -1    0    0    0  501 -0.00000000000E+00 -0.00000000000E+00 -0.41635977219E+03  0.41635977219E+03  0.00000000000E+00 0.  1.
         24    2    1    2    0    0 -0.13331882607E+03  0.54480826810E+02 -0.14587176888E+03  0.22062806874E+03  0.81584936639E+02 0.  0.
        254    2    1    2    0    0  0.13331882607E+03 -0.54480826810E+02  0.65840903207E+03  0.11246287388E+04  0.90030288059E+03 0.  0.
         23    2    4    4    0    0  0.30304639372E+03  0.32698626220E+03  0.19985673403E+03  0.49697100787E+03  0.90996352206E+02 0.  0.
         23    2    4    4    0    0 -0.16972756765E+03 -0.38146708901E+03  0.45855229804E+03  0.62765773095E+03  0.96744146878E+02 0.  0.
          4    1    3    3  502    0 -0.65263145000E+02  0.83947273712E+01 -0.17312164579E+02  0.68040139516E+02  0.00000000000E+00 0. -1.
         -3    1    3    3    0  502 -0.68055681066E+02  0.46086099438E+02 -0.12855960430E+03  0.15258792923E+03  0.00000000000E+00 0.  1.
         11    1    5    5    0    0  0.11552364291E+03  0.11360651541E+03  0.26487642603E+02  0.16417596543E+03  0.00000000000E+00 0. -1.
        -11    1    5    5    0    0  0.18752275081E+03  0.21337974680E+03  0.17336909142E+03  0.33279504244E+03  0.00000000000E+00 0.  1.
          3    1    6    6  503    0 -0.35576115983E+01  0.21418035660E+01  0.25148648736E+02  0.25489183118E+02  0.00000000000E+00 0. -1.
         -3    1    6    6    0  503 -0.16616995606E+03 -0.38360889258E+03  0.43340364931E+03  0.60216854783E+03  0.00000000000E+00 0.  1.
<mgrwt>
<rscale>  0 0.12437932E+04</rscale>
<asrwt>0</asrwt>
<pdfrwt beam="1">  1        2 0.14290724E+00 0.12437932E+04</pdfrwt>
<pdfrwt beam="2">  1       -1 0.64055350E-01 0.12437932E+04</pdfrwt>
<totfact> 0.77812849E+01</totfact>
</mgrwt>
</event>
<event>
12    6  0.1611689E-007  0.2463621E+04  0.7818608E-02  0.8416061E-01
          2   -1    0    0  501    0  0.00000000000E+00  0.00000000000E+00  0.41934947858E+04  0.41934947858E+04  0.00000000000E+00 0. -1.
         -1   -1    0    0    0  501 -0.00000000000E+00 -0.00000000000E+00 -0.36183597236E+03  0.36183597236E+03  0.00000000000E+00 0.  1.
         24    2    1    2    0    0 -0.17663365830E+02  0.69516321900E+03  0.30028773822E+04  0.30832798214E+04  0.76013085666E+02 0.  0.
        254    2    1    2    0    0  0.17663365830E+02 -0.69516321900E+03  0.82878143126E+03  0.14720509367E+04  0.99824416053E+03 0.  0.
         23    2    4    4    0    0 -0.27607412495E+03 -0.62456084597E+03  0.91472378437E+03  0.11450507669E+04  0.90158106987E+02 0.  0.
         23    2    4    4    0    0  0.29373749078E+03 -0.70602373033E+02 -0.85942353114E+02  0.32700016987E+03  0.90975900469E+02 0.  0.
          2    1    3    3  502    0 -0.24413182427E+01  0.32459389625E+03  0.12374996176E+04  0.12793640847E+04  0.00000000000E+00 0. -1.
         -1    1    3    3    0  502 -0.15222047587E+02  0.37056932275E+03  0.17653777646E+04  0.18039157368E+04  0.00000000000E+00 0.  1.
         11    1    5    5    0    0 -0.16495401872E+03 -0.40200777582E+03  0.64924833791E+03  0.78124482999E+03  0.00000000000E+00 0.  1.
        -11    1    5    5    0    0 -0.11112010623E+03 -0.22255307015E+03  0.26547544647E+03  0.36380593689E+03  0.00000000000E+00 0. -1.
          3    1    6    6  503    0  0.24591675535E+03 -0.32045200769E+02 -0.42131867041E+02  0.25154927882E+03  0.00000000000E+00 0. -1.
         -3    1    6    6    0  503  0.47820735435E+02 -0.38557172263E+02 -0.43810486073E+02  0.75450891052E+02  0.00000000000E+00 0.  1.
<mgrwt>
<rscale>  0 0.24636211E+04</rscale>
<asrwt>0</asrwt>
<pdfrwt beam="1">  1        2 0.64515301E+00 0.24636211E+04</pdfrwt>
<pdfrwt beam="2">  1       -1 0.55667076E-01 0.24636211E+04</pdfrwt>
<totfact> 0.78604905E-01</totfact>
</mgrwt>
</event>
<event>
12    6  0.1611689E-007  0.1562414E+04  0.7818608E-02  0.8843977E-01
         -1   -1    0    0    0  501 -0.00000000000E+00  0.00000000000E+00  0.25236636395E+03  0.25236636395E+03  0.00000000000E+00 0.  1.
          2   -1    0    0  501    0  0.00000000000E+00 -0.00000000000E+00 -0.24182467159E+04  0.24182467159E+04  0.00000000000E+00 0. -1.
         24    2    1    2    0    0  0.17129064683E+03 -0.10869407985E+03  0.74768402492E+02  0.22849774949E+03  0.73932528854E+02 0.  0.
        254    2    1    2    0    0 -0.17129064683E+03  0.10869407985E+03 -0.22406487545E+04  0.24421153304E+04  0.94987660110E+03 0.  0.
         23    2    4    4    0    0 -0.53135305062E+03  0.17370856527E+03 -0.10470801566E+04  0.11904191986E+04  0.90610617409E+02 0.  0.
         23    2    4    4    0    0  0.36006240378E+03 -0.65014485418E+02 -0.11935685979E+04  0.12516961318E+04  0.90914193598E+02 0.  0.
          4    1    3    3  502    0  0.12812064841E+03 -0.11515542503E+03  0.60006537096E+02  0.18241835697E+03  0.00000000000E+00 0. -1.
         -3    1    3    3    0  502  0.43169998419E+02  0.64613451826E+01  0.14761865396E+02  0.46079392521E+02  0.00000000000E+00 0.  1.
         11    1    5    5    0    0 -0.47846879600E+03  0.18357742513E+03 -0.95206886936E+03  0.10812345683E+04  0.00000000000E+00 0. -1.
        -11    1    5    5    0    0 -0.52884254617E+02 -0.98688598599E+01 -0.95011287261E+02  0.10918463028E+03  0.00000000000E+00 0.  1.
          3    1    6    6  503    0  0.68009868948E+02 -0.29287657365E+02 -0.14761139688E+03  0.16514307021E+03  0.00000000000E+00 0. -1.
         -3    1    6    6    0  503  0.29205253484E+03 -0.35726828053E+02 -0.10459572010E+04  0.10865530616E+04  0.00000000000E+00 0.  1.
<mgrwt>
<rscale>  0 0.15624137E+04</rscale>
<asrwt>0</asrwt>
<pdfrwt beam="1">  1        2 0.37203796E+00 0.15624137E+04</pdfrwt>
<pdfrwt beam="2">  1       -1 0.38825595E-01 0.15624137E+04</pdfrwt>
<totfact> 0.27389118E+01</totfact>
</mgrwt>
</event>
<event>
12    6  0.1611689E-007  0.2976337E+04  0.7818608E-02  0.8250520E-01
         -1   -1    0    0    0  501 -0.00000000000E+00  0.00000000000E+00  0.95717377944E+03  0.95717377944E+03  0.00000000000E+00 0.  1.
          2   -1    0    0  501    0  0.00000000000E+00 -0.00000000000E+00 -0.23137341694E+04  0.23137341694E+04  0.00000000000E+00 0. -1.
         24    2    1    2    0    0 -0.41418141734E+03 -0.11263899142E+04 -0.13143737154E+04  0.17820502706E+04  0.88455741845E+02 0.  0.
        254    2    1    2    0    0  0.41418141734E+03  0.11263899142E+04 -0.42186674640E+02  0.14888576782E+04  0.88012327849E+03 0.  0.
         23    2    4    4    0    0  0.28009830342E+03 -0.35935434350E+02 -0.10060839117E+03  0.31388758704E+03  0.93042753071E+02 0.  0.
         23    2    4    4    0    0  0.13408311392E+03  0.11623253485E+04  0.58421716527E+02  0.11749700912E+04  0.90349991907E+02 0.  0.
          2    1    3    3  502    0 -0.16489872304E+03 -0.45016558438E+03 -0.58992925752E+03  0.76016917269E+03  0.00000000000E+00 0. -1.
         -1    1    3    3    0  502 -0.24928269430E+03 -0.67622432978E+03 -0.72444445784E+03  0.10218810980E+04  0.00000000000E+00 0.  1.
         11    1    5    5    0    0  0.21215878704E+03 -0.67113370930E+02 -0.77902184535E+02  0.23576324105E+03  0.00000000000E+00 0. -1.
        -11    1    5    5    0    0  0.67939516384E+02  0.31177936580E+02 -0.22706206632E+02  0.78124345984E+02  0.00000000000E+00 0.  1.
          1    1    6    6  503    0  0.13323251977E+03  0.91919751071E+03  0.21488292066E+02  0.92905151349E+03  0.00000000000E+00 0. -1.
         -1    1    6    6    0  503  0.85059414954E+00  0.24312783780E+03  0.36933424462E+02  0.24591857772E+03  0.00000000000E+00 0.  1.
<mgrwt>
<rscale>  0 0.29763371E+04</rscale>
<asrwt>0</asrwt>
<pdfrwt beam="1">  1        2 0.35595910E+00 0.29763371E+04</pdfrwt>
<pdfrwt beam="2">  1       -1 0.14725750E+00 0.29763371E+04</pdfrwt>
<totfact> 0.15918112E+00</totfact>
</mgrwt>
</event>
<event>
12    6  0.1611689E-007  0.2299291E+04  0.7818608E-02  0.8478201E-01
         -1   -1    0    0    0  501 -0.00000000000E+00  0.00000000000E+00  0.34756514855E+03  0.34756514855E+03  0.00000000000E+00 0.  1.
          2   -1    0    0  501    0  0.00000000000E+00 -0.00000000000E+00 -0.38026958367E+04  0.38026958367E+04  0.00000000000E+00 0. -1.
         24    2    1    2    0    0  0.89196780076E+03 -0.25874641642E+03 -0.19823331972E+04  0.21904878973E+04  0.77692073090E+02 0.  0.
        254    2    1    2    0    0 -0.89196780076E+03  0.25874641642E+03 -0.14727974910E+04  0.19597730879E+04  0.89945641418E+03 0.  0.
         23    2    4    4    0    0 -0.12579351444E+03  0.34761979742E+03 -0.11885951493E+03  0.39893850950E+03  0.91437509997E+02 0.  0.
         23    2    4    4    0    0 -0.76617428632E+03 -0.88873381007E+02 -0.13539379761E+04  0.15608345784E+04  0.90194363933E+02 0.  0.
          4    1    3    3  502    0  0.42977724212E+03 -0.99777807251E+02 -0.10125076119E+04  0.11044617480E+04  0.00000000000E+00 0. -1.
         -3    1    3    3    0  502  0.46219055863E+03 -0.15896860916E+03 -0.96982558523E+03  0.10860261493E+04  0.00000000000E+00 0.  1.
         11    1    5    5    0    0 -0.10984626284E+03  0.30623284250E+03 -0.69685988646E+02  0.33271743612E+03  0.00000000000E+00 0.  1.
        -11    1    5    5    0    0 -0.15947251599E+02  0.41386954921E+02 -0.49173526289E+02  0.66221073375E+02  0.00000000000E+00 0. -1.
          4    1    6    6  503    0 -0.12168999134E+03 -0.45874918962E+02 -0.20468068746E+03  0.24250184742E+03  0.00000000000E+00 0. -1.
         -4    1    6    6    0  503 -0.64448429497E+03 -0.42998462045E+02 -0.11492572886E+04  0.13183327310E+04  0.00000000000E+00 0.  1.
<mgrwt>
<rscale>  0 0.22992908E+04</rscale>
<asrwt>0</asrwt>
<pdfrwt beam="1">  1        2 0.58503013E+00 0.22992908E+04</pdfrwt>
<pdfrwt beam="2">  1       -1 0.53471561E-01 0.22992908E+04</pdfrwt>
<totfact> 0.17870485E+00</totfact>
</mgrwt>
</event>
<event>
12    6  0.1660483E-007  0.1903069E+04  0.7818608E-02  0.8653330E-01
         -1   -1    0    0    0  501 -0.00000000000E+00  0.00000000000E+00  0.44815579165E+03  0.44815579165E+03  0.00000000000E+00 0.  1.
          2   -1    0    0  501    0  0.00000000000E+00 -0.00000000000E+00 -0.20203204113E+04  0.20203204113E+04  0.00000000000E+00 0. -1.
         24    2    1    2    0    0 -0.49116136815E+03 -0.10807124790E+02 -0.13180399568E+04  0.14088116843E+04  0.78515924871E+02 0.  0.
        254    2    1    2    0    0  0.49116136815E+03  0.10807124790E+02 -0.25412466283E+03  0.10596645187E+04  0.90385466993E+03 0.  0.
         23    2    4    4    0    0 -0.21702890820E+03  0.18680845276E+02  0.10899483937E+03  0.25892831852E+03  0.87826409178E+02 0.  0.
         23    2    4    4    0    0  0.70819027634E+03 -0.78737204861E+01 -0.36311950220E+03  0.80073620015E+03  0.87904643632E+02 0.  0.
          4    1    3    3  502    0 -0.39503965409E+03  0.19725598308E+02 -0.10866767749E+04  0.11564219994E+04  0.00000000000E+00 0. -1.
         -3    1    3    3    0  502 -0.96121714064E+02 -0.30532723098E+02 -0.23136318188E+03  0.25238968486E+03  0.00000000000E+00 0.  1.
         11    1    5    5    0    0 -0.21274907568E+03  0.24744160729E+02  0.79415607432E+02  0.22843222496E+03  0.00000000000E+00 0. -1.
        -11    1    5    5    0    0 -0.42798325109E+01 -0.60633154528E+01  0.29579231936E+02  0.30496093562E+02  0.00000000000E+00 0.  1.
          3    1    6    6  503    0  0.59721950395E+03 -0.33184175374E+02 -0.28415050913E+03  0.66220377320E+03  0.00000000000E+00 0. -1.
         -3    1    6    6    0  503  0.11097077239E+03  0.25310454888E+02 -0.78968993064E+02  0.13853242695E+03  0.00000000000E+00 0.  1.
<mgrwt>
<rscale>  0 0.19030694E+04</rscale>
<asrwt>0</asrwt>
<pdfrwt beam="1">  1        2 0.31081853E+00 0.19030694E+04</pdfrwt>
<pdfrwt beam="2">  1       -1 0.68947045E-01 0.19030694E+04</pdfrwt>
<totfact> 0.14771700E+01</totfact>
</mgrwt>
</event>
<event>
12    6  0.1611689E-007  0.1808893E+04  0.7818608E-02  0.8701585E-01
         -1   -1    0    0    0  501 -0.00000000000E+00  0.00000000000E+00  0.70111145963E+03  0.70111145963E+03  0.00000000000E+00 0.  1.
          2   -1    0    0  501    0  0.00000000000E+00 -0.00000000000E+00 -0.11667519580E+04  0.11667519580E+04  0.00000000000E+00 0. -1.
         24    2    1    2    0    0 -0.27631368875E+03 -0.67616109933E+02  0.45870438415E+03  0.54598234455E+03  0.82254578031E+02 0.  0.
        254    2    1    2    0    0  0.27631368875E+03  0.67616109933E+02 -0.92434488249E+03  0.13218810730E+04  0.90112980007E+03 0.  0.
         23    2    4    4    0    0  0.46726108933E+03 -0.12442780883E+03 -0.17622690015E+03  0.52112578112E+03  0.81859356180E+02 0.  0.
         23    2    4    4    0    0 -0.19094740058E+03  0.19204391876E+03 -0.74811798234E+03  0.80075529193E+03  0.90480636186E+02 0.  0.
          4    1    3    3  502    0 -0.34636721171E+02  0.18076417178E+01  0.19232274991E+02  0.39659178299E+02  0.00000000000E+00 0. -1.
         -3    1    3    3    0  502 -0.24167696758E+03 -0.69423751651E+02  0.43947210916E+03  0.50632316625E+03  0.00000000000E+00 0.  1.
         11    1    5    5    0    0  0.86059488749E+02 -0.43155716459E+02 -0.63695596974E+02  0.11543734465E+03  0.00000000000E+00 0. -1.
        -11    1    5    5    0    0  0.38120160058E+03 -0.81272092370E+02 -0.11253130318E+03  0.40568843646E+03  0.00000000000E+00 0.  1.
          1    1    6    6  503    0 -0.27597995715E+02  0.48373457121E+02 -0.26692402576E+03  0.27267210391E+03  0.00000000000E+00 0.  1.
         -1    1    6    6    0  503 -0.16334940487E+03  0.14367046164E+03 -0.48119395658E+03  0.52808318802E+03  0.00000000000E+00 0. -1.
<mgrwt>
<rscale>  0 0.18088927E+04</rscale>
<asrwt>0</asrwt>
<pdfrwt beam="1">  1        2 0.17950030E+00 0.18088927E+04</pdfrwt>
<pdfrwt beam="2">  1       -1 0.10786330E+00 0.18088927E+04</pdfrwt>
<totfact> 0.17057574E+01</totfact>
</mgrwt>
</event>
<event>
12    6  0.1611689E-007  0.1347335E+04  0.7818608E-02  0.8992848E-01
          2   -1    0    0  501    0  0.00000000000E+00  0.00000000000E+00  0.27905877975E+04  0.27905877975E+04  0.00000000000E+00 0. -1.
         -1   -1    0    0    0  501 -0.00000000000E+00 -0.00000000000E+00 -0.16262812777E+03  0.16262812777E+03  0.00000000000E+00 0.  1.
         24    2    1    2    0    0  0.21253706859E+03 -0.21311768931E+03  0.11657292312E+04  0.12066791069E+04  0.80985625470E+02 0.  0.
        254    2    1    2    0    0 -0.21253706859E+03  0.21311768931E+03  0.14622304385E+04  0.17465368183E+04  0.90646668307E+03 0.  0.
         23    2    4    4    0    0 -0.18318152130E+03 -0.22250517056E+03  0.11818819028E+04  0.12192892286E+04  0.82203223802E+02 0.  0.
         23    2    4    4    0    0 -0.29355547283E+02  0.43562285987E+03  0.28034853568E+03  0.52724758977E+03  0.93625291803E+02 0.  0.
          2    1    3    3  502    0  0.52239219198E+02 -0.10675866951E+03  0.47744957428E+03  0.49202077753E+03  0.00000000000E+00 0. -1.
         -3    1    3    3    0  502  0.16029784939E+03 -0.10635901980E+03  0.68827965693E+03  0.71465832939E+03  0.00000000000E+00 0.  1.
         11    1    5    5    0    0 -0.36616880607E+02 -0.94148007846E+02  0.31573820839E+03  0.33150453928E+03  0.00000000000E+00 0. -1.
        -11    1    5    5    0    0 -0.14656464070E+03 -0.12835716272E+03  0.86614369442E+03  0.88778468928E+03  0.00000000000E+00 0.  1.
          2    1    6    6  503    0 -0.38833312640E+02  0.14029554021E+03  0.54887667410E+02  0.15557480775E+03  0.00000000000E+00 0. -1.
         -2    1    6    6    0  503  0.94777653569E+01  0.29532731966E+03  0.22546086827E+03  0.37167278202E+03  0.00000000000E+00 0.  1.
<mgrwt>
<rscale>  0 0.13473352E+04</rscale>
<asrwt>0</asrwt>
<pdfrwt beam="1">  1        2 0.42932117E+00 0.13473352E+04</pdfrwt>
<pdfrwt beam="2">  1       -1 0.25019714E-01 0.13473352E+04</pdfrwt>
<totfact> 0.36737270E+01</totfact>
</mgrwt>
</event>
<event>
12    6  0.1611689E-007  0.2380362E+04  0.7818608E-02  0.8446893E-01
         -1   -1    0    0    0  501 -0.00000000000E+00  0.00000000000E+00  0.28013580124E+04  0.28013580124E+04  0.00000000000E+00 0.  1.
          2   -1    0    0  501    0  0.00000000000E+00 -0.00000000000E+00 -0.50565850331E+03  0.50565850331E+03  0.00000000000E+00 0. -1.
         24    2    1    2    0    0 -0.88551772749E+03 -0.49425148344E+03  0.10686226215E+04  0.14753219244E+04  0.78703869010E+02 0.  0.
        254    2    1    2    0    0  0.88551772749E+03  0.49425148344E+03  0.12270768876E+04  0.18316945913E+04  0.90606909950E+03 0.  0.
         23    2    4    4    0    0  0.87563481147E+03  0.39876343591E+03  0.13438485489E+04  0.16553454022E+04  0.92145956956E+02 0.  0.
         23    2    4    4    0    0  0.98829160227E+01  0.95488047533E+02 -0.11677166126E+03  0.17634918909E+03  0.90817269115E+02 0.  0.
          2    1    3    3  502    0 -0.23584772668E+03 -0.14618857738E+03  0.24607583938E+03  0.37087540908E+03  0.00000000000E+00 0. -1.
         -1    1    3    3    0  502 -0.64967000081E+03 -0.34806290606E+03  0.82254678210E+03  0.11044465154E+04  0.00000000000E+00 0.  1.
         11    1    5    5    0    0  0.35811308297E+02 -0.11522804073E+01  0.61141068239E+02  0.70866125741E+02  0.00000000000E+00 0. -1.
        -11    1    5    5    0    0  0.83982350317E+03  0.39991571631E+03  0.12827074807E+04  0.15844792765E+04  0.00000000000E+00 0.  1.
          4    1    6    6  503    0  0.44790268176E+02  0.83466979785E+02 -0.90750460884E+02  0.13118136677E+03  0.00000000000E+00 0.  1.
         -4    1    6    6    0  503 -0.34907352153E+02  0.12021067748E+02 -0.26021200377E+02  0.45167822321E+02  0.00000000000E+00 0. -1.
<mgrwt>
<rscale>  0 0.23803617E+04</rscale>
<asrwt>0</asrwt>
<pdfrwt beam="1">  1        2 0.77793617E-01 0.23803617E+04</pdfrwt>
<pdfrwt beam="2">  1       -1 0.43097815E+00 0.23803617E+04</pdfrwt>
<totfact> 0.27361686E-01</totfact>
</mgrwt>
</event>
<event>
12    6  0.1611689E-007  0.3432962E+04  0.7818608E-02  0.8129863E-01
         -1   -1    0    0    0  501 -0.00000000000E+00  0.00000000000E+00  0.15084786464E+04  0.15084786464E+04  0.00000000000E+00 0.  1.
          2   -1    0    0  501    0  0.00000000000E+00 -0.00000000000E+00 -0.19531642977E+04  0.19531642977E+04  0.00000000000E+00 0. -1.
         24    2    1    2    0    0  0.14992753065E+04 -0.55915583982E+02  0.33454457076E+03  0.15392745854E+04  0.80580283556E+02 0.  0.
        254    2    1    2    0    0 -0.14992753065E+04  0.55915583982E+02 -0.77923022206E+03  0.19223683587E+04  0.91506686664E+03 0.  0.
         23    2    4    4    0    0 -0.35346979013E+02  0.10637882837E+03  0.13273343732E+03  0.19465705635E+03  0.87791458326E+02 0.  0.
         23    2    4    4    0    0 -0.14639283275E+04 -0.50463244390E+02 -0.91196365938E+03  0.17277113024E+04  0.87612449167E+02 0.  0.
          2    1    3    3  502    0  0.57736796743E+02 -0.13033324426E+02  0.18356092560E+01  0.59218026859E+02  0.00000000000E+00 0. -1.
         -1    1    3    3    0  502  0.14415385098E+04 -0.42882259556E+02  0.33270896150E+03  0.14800565585E+04  0.00000000000E+00 0.  1.
         11    1    5    5    0    0  0.10112865780E+02  0.64745511670E+02  0.24232091433E+02  0.69867342807E+02  0.00000000000E+00 0. -1.
        -11    1    5    5    0    0 -0.45459844793E+02  0.41633316702E+02  0.10850134588E+03  0.12478971355E+03  0.00000000000E+00 0.  1.
          3    1    6    6  503    0 -0.33918051004E+03 -0.13770515409E+02 -0.25569901457E+03  0.42498827223E+03  0.00000000000E+00 0. -1.
         -3    1    6    6    0  503 -0.11247478174E+04 -0.36692728981E+02 -0.65626464481E+03  0.13027230301E+04  0.00000000000E+00 0.  1.
<mgrwt>
<rscale>  0 0.34329618E+04</rscale>
<asrwt>0</asrwt>
<pdfrwt beam="1">  1        2 0.30048681E+00 0.34329618E+04</pdfrwt>
<pdfrwt beam="2">  1       -1 0.23207364E+00 0.34329618E+04</pdfrwt>
<totfact> 0.60978006E-01</totfact>
</mgrwt>
</event>
<event>
12    6  0.1611689E-007  0.1450600E+04  0.7818608E-02  0.8917985E-01
         -3   -1    0    0    0  501 -0.00000000000E+00  0.00000000000E+00  0.21192194197E+03  0.21192194197E+03  0.00000000000E+00 0.  1.
          4   -1    0    0  501    0  0.00000000000E+00 -0.00000000000E+00 -0.24823282466E+04  0.24823282466E+04  0.00000000000E+00 0. -1.
         24    2    1    2    0    0 -0.33084282702E+03  0.21799491552E+03 -0.34655145654E+03  0.53250042681E+03  0.80498653003E+02 0.  0.
        254    2    1    2    0    0  0.33084282702E+03 -0.21799491552E+03 -0.19238548480E+04  0.21617497617E+04  0.90275456054E+03 0.  0.
         23    2    4    4    0    0 -0.17084973076E+03 -0.40056610899E+03 -0.86508403287E+03  0.97266669513E+03  0.89818025509E+02 0.  0.
         23    2    4    4    0    0  0.50169255778E+03  0.18257119347E+03 -0.10587708152E+04  0.11890830666E+04  0.88855146052E+02 0.  0.
          4    1    3    3  502    0 -0.25457299776E+02  0.35211934946E+02 -0.67338969172E+02  0.80140446990E+02  0.00000000000E+00 0. -1.
         -3    1    3    3    0  502 -0.30538552724E+03  0.18278298057E+03 -0.27921248737E+03  0.45235997982E+03  0.00000000000E+00 0.  1.
         11    1    5    5    0    0 -0.16154872936E+03 -0.39875693204E+03 -0.86066696481E+03  0.96221240229E+03  0.00000000000E+00 0. -1.
        -11    1    5    5    0    0 -0.93010014082E+01 -0.18091769435E+01 -0.44170680630E+01  0.10454292835E+02  0.00000000000E+00 0.  1.
          3    1    6    6  503    0  0.47521207762E+03  0.14948577667E+03 -0.99067788373E+03  0.11088801493E+04  0.00000000000E+00 0. -1.
         -3    1    6    6    0  503  0.26480480166E+02  0.33085416795E+02 -0.68092931448E+02  0.80202917326E+02  0.00000000000E+00 0.  1.
<mgrwt>
<rscale>  0 0.14505996E+04</rscale>
<asrwt>0</asrwt>
<pdfrwt beam="1">  1        4 0.38189666E+00 0.14505996E+04</pdfrwt>
<pdfrwt beam="2">  1       -3 0.32603375E-01 0.14505996E+04</pdfrwt>
<totfact> 0.18923797E-01</totfact>
</mgrwt>
</event>
<event>
12    6  0.1611689E-007  0.1362752E+04  0.7818608E-02  0.8981231E-01
          2   -1    0    0  501    0  0.00000000000E+00  0.00000000000E+00  0.10238827745E+04  0.10238827745E+04  0.00000000000E+00 0. -1.
         -1   -1    0    0    0  501 -0.00000000000E+00 -0.00000000000E+00 -0.45344378421E+03  0.45344378421E+03  0.00000000000E+00 0.  1.
         24    2    1    2    0    0  0.30121893037E+03 -0.22616088710E+03  0.20650702867E+03  0.43722570544E+03  0.81483579575E+02 0.  0.
        254    2    1    2    0    0 -0.30121893037E+03  0.22616088710E+03  0.36393196165E+03  0.10401008533E+04  0.89859986727E+03 0.  0.
         23    2    4    4    0    0 -0.21392055866E+03  0.15332989984E+03  0.65636741887E+03  0.71307119684E+03  0.91543867053E+02 0.  0.
         23    2    4    4    0    0 -0.87298371702E+02  0.72830987257E+02 -0.29243545722E+03  0.32702965646E+03  0.92220069187E+02 0.  0.
          4    1    3    3  502    0  0.22014974788E+03 -0.16000313687E+03  0.10578697416E+03  0.29198938200E+03  0.00000000000E+00 0. -1.
         -3    1    3    3    0  502  0.81069182486E+02 -0.66157750233E+02  0.10072005451E+03  0.14523632344E+03  0.00000000000E+00 0.  1.
         11    1    5    5    0    0 -0.27501902497E+02  0.14118601086E+02  0.18326775915E+03  0.18585682953E+03  0.00000000000E+00 0. -1.
        -11    1    5    5    0    0 -0.18641865617E+03  0.13921129876E+03  0.47309965972E+03  0.52721436731E+03  0.00000000000E+00 0.  1.
          1    1    6    6  503    0 -0.37719104904E+02  0.62421149819E+02 -0.78389615480E+02  0.10707036301E+03  0.00000000000E+00 0. -1.
         -1    1    6    6    0  503 -0.49579266798E+02  0.10409837438E+02 -0.21404584174E+03  0.21995929345E+03  0.00000000000E+00 0.  1.
<mgrwt>
<rscale>  0 0.13627520E+04</rscale>
<asrwt>0</asrwt>
<pdfrwt beam="1">  1        2 0.15752043E+00 0.13627520E+04</pdfrwt>
<pdfrwt beam="2">  1       -1 0.69760582E-01 0.13627520E+04</pdfrwt>
<totfact> 0.56259256E+01</totfact>
</mgrwt>
</event>
<event>
12    6  0.1611689E-007  0.2818476E+04  0.7818608E-02  0.8297555E-01
         -1   -1    0    0    0  501 -0.00000000000E+00  0.00000000000E+00  0.13445348268E+04  0.13445348268E+04  0.00000000000E+00 0.  1.
          2   -1    0    0  501    0  0.00000000000E+00 -0.00000000000E+00 -0.14770547156E+04  0.14770547156E+04  0.00000000000E+00 0. -1.
         24    2    1    2    0    0  0.13537188785E+03 -0.37679813842E+03  0.11411356322E+04  0.12119950592E+04  0.80244047909E+02 0.  0.
        254    2    1    2    0    0 -0.13537188785E+03  0.37679813842E+03 -0.12736555210E+04  0.16095944832E+04  0.89905151622E+03 0.  0.
         23    2    4    4    0    0  0.24253784939E+03  0.37627266673E+03 -0.26317907068E+03  0.52695036723E+03  0.89485966273E+02 0.  0.
         23    2    4    4    0    0 -0.37790973724E+03  0.52547169032E+00 -0.10104764503E+04  0.10826441159E+04  0.90772129121E+02 0.  0.
          4    1    3    3  502    0  0.19167841711E+02 -0.65616875341E+01  0.53229884594E+02  0.56955092073E+02  0.00000000000E+00 0. -1.
         -3    1    3    3    0  502  0.11620404614E+03 -0.37023645089E+03  0.10879057476E+04  0.11550399671E+04  0.00000000000E+00 0.  1.
         11    1    5    5    0    0  0.78652420322E+02  0.20351099224E+03 -0.13390328763E+03  0.25599417498E+03  0.00000000000E+00 0. -1.
        -11    1    5    5    0    0  0.16388542907E+03  0.17276167449E+03 -0.12927578305E+03  0.27095619225E+03  0.00000000000E+00 0.  1.
          4    1    6    6  503    0 -0.16760815875E+00  0.13314172163E+01  0.17649451668E+01  0.22171593854E+01  0.00000000000E+00 0. -1.
         -4    1    6    6    0  503 -0.37774212908E+03 -0.80594552594E+00 -0.10122413955E+04  0.10804269565E+04  0.00000000000E+00 0.  1.
<mgrwt>
<rscale>  0 0.28184758E+04</rscale>
<asrwt>0</asrwt>
<pdfrwt beam="1">  1        2 0.22723919E+00 0.28184758E+04</pdfrwt>
<pdfrwt beam="2">  1       -1 0.20685151E+00 0.28184758E+04</pdfrwt>
<totfact> 0.17478920E+00</totfact>
</mgrwt>
</event>
<event>
12    6  0.1611689E-007  0.1565368E+04  0.7818608E-02  0.8842111E-01
         -1   -1    0    0    0  501 -0.00000000000E+00  0.00000000000E+00  0.23752127802E+03  0.23752127802E+03  0.00000000000E+00 0.  1.
          2   -1    0    0  501    0  0.00000000000E+00 -0.00000000000E+00 -0.25791115989E+04  0.25791115989E+04  0.00000000000E+00 0. -1.
         24    2    1    2    0    0 -0.24214390532E+03 -0.35378242065E+03 -0.29825540951E+03  0.52836431164E+03  0.80105458390E+02 0.  0.
        254    2    1    2    0    0  0.24214390532E+03  0.35378242065E+03 -0.20433349114E+04  0.22882685653E+04  0.93656809404E+03 0.  0.
         23    2    4    4    0    0  0.90835493279E+01  0.27617976807E+03 -0.20018791490E+04  0.20231802699E+04  0.96852992632E+02 0.  0.
         23    2    4    4    0    0  0.23306035600E+03  0.77602652581E+02 -0.41455762388E+02  0.26508829539E+03  0.90630695079E+02 0.  0.
          2    1    3    3  502    0 -0.15968055192E+03 -0.19003489358E+03 -0.20883048571E+03  0.32437834577E+03  0.00000000000E+00 0. -1.
         -1    1    3    3    0  502 -0.82463353401E+02 -0.16374752707E+03 -0.89424923796E+02  0.20398596587E+03  0.00000000000E+00 0.  1.
         11    1    5    5    0    0  0.20725700835E+02  0.49780768560E+02 -0.20171635031E+03  0.20879934285E+03  0.00000000000E+00 0.  1.
        -11    1    5    5    0    0 -0.11642151507E+02  0.22639899951E+03 -0.18001627987E+04  0.18143809271E+04  0.00000000000E+00 0. -1.
          2    1    6    6  503    0  0.12515588973E+03 -0.33982837080E+01 -0.48917190078E+01  0.12529754180E+03  0.00000000000E+00 0. -1.
         -2    1    6    6    0  503  0.10790446627E+03  0.81000936289E+02 -0.36564043381E+02  0.13979075359E+03  0.00000000000E+00 0.  1.
<mgrwt>
<rscale>  0 0.15653675E+04</rscale>
<asrwt>0</asrwt>
<pdfrwt beam="1">  1        2 0.39678639E+00 0.15653675E+04</pdfrwt>
<pdfrwt beam="2">  1       -1 0.36541736E-01 0.15653675E+04</pdfrwt>
<totfact> 0.24680014E+01</totfact>
</mgrwt>
</event>
<event>
12    6  0.1611689E-007  0.2045831E+04  0.7818608E-02  0.8585488E-01
         -1   -1    0    0    0  501 -0.00000000000E+00  0.00000000000E+00  0.39945993494E+03  0.39945993494E+03  0.00000000000E+00 0.  1.
          2   -1    0    0  501    0  0.00000000000E+00 -0.00000000000E+00 -0.26194263838E+04  0.26194263838E+04  0.00000000000E+00 0. -1.
         24    2    1    2    0    0  0.38809329704E+03 -0.41190937667E+02 -0.19731410220E+04  0.20129384397E+04  0.79514581496E+02 0.  0.
        254    2    1    2    0    0 -0.38809329704E+03  0.41190937667E+02 -0.24682542688E+03  0.10059478791E+04  0.89369751233E+03 0.  0.
         23    2    4    4    0    0  0.16933224501E+02  0.40091374890E+03 -0.19149840570E+03  0.45364015777E+03  0.89995473244E+02 0.  0.
         23    2    4    4    0    0 -0.40502652154E+03 -0.35972281123E+03 -0.55327021182E+02  0.55230772133E+03  0.92389153554E+02 0.  0.
          2    1    3    3  502    0  0.27512726982E+03 -0.30915326089E+02 -0.12002154566E+04  0.12317337026E+04  0.00000000000E+00 0. -1.
         -1    1    3    3    0  502  0.11296602722E+03 -0.10275611578E+02 -0.77292556541E+03  0.78120473703E+03  0.00000000000E+00 0.  1.
         11    1    5    5    0    0  0.49129779835E+02  0.27955516342E+03 -0.15223451385E+03  0.32208721159E+03  0.00000000000E+00 0. -1.
        -11    1    5    5    0    0 -0.32196555333E+02  0.12135858548E+03 -0.39263891844E+02  0.13155294617E+03  0.00000000000E+00 0.  1.
          4    1    6    6  503    0 -0.29680102231E+03 -0.26124571840E+03  0.13230787974E+01  0.39540096454E+03  0.00000000000E+00 0. -1.
         -4    1    6    6    0  503 -0.10822549923E+03 -0.98477092834E+02 -0.56650099980E+02  0.15690675679E+03  0.00000000000E+00 0.  1.
<mgrwt>
<rscale>  0 0.20458308E+04</rscale>
<asrwt>0</asrwt>
<pdfrwt beam="1">  1        2 0.40298866E+00 0.20458308E+04</pdfrwt>
<pdfrwt beam="2">  1       -1 0.61455376E-01 0.20458308E+04</pdfrwt>
<totfact> 0.83926002E+00</totfact>
</mgrwt>
</event>
<event>
12    6  0.1611689E-007  0.2069956E+04  0.7818608E-02  0.8574594E-01
         -3   -1    0    0    0  501 -0.00000000000E+00  0.00000000000E+00  0.41913652348E+03  0.41913652348E+03  0.00000000000E+00 0.  1.
          2   -1    0    0  501    0  0.00000000000E+00 -0.00000000000E+00 -0.25556826989E+04  0.25556826989E+04  0.00000000000E+00 0. -1.
         24    2    1    2    0    0  0.60665483023E+03  0.42775538325E+03 -0.31844955703E+03  0.81159457994E+03  0.79188956819E+02 0.  0.
        254    2    1    2    0    0 -0.60665483023E+03 -0.42775538325E+03 -0.18180966184E+04  0.21632246425E+04  0.90722697763E+03 0.  0.
         23    2    4    4    0    0 -0.16834046236E+03 -0.36445428195E+03 -0.16165515494E+04  0.16681340528E+04  0.90922335826E+02 0.  0.
         23    2    4    4    0    0 -0.43831436787E+03 -0.63301101302E+02 -0.20154506901E+03  0.49509058972E+03  0.91475475851E+02 0.  0.
          2    1    3    3  502    0  0.46601575109E+03  0.34559493661E+03 -0.28013870200E+03  0.64427031037E+03  0.00000000000E+00 0. -1.
         -1    1    3    3    0  502  0.14063907914E+03  0.82160446645E+02 -0.38310855030E+02  0.16732426957E+03  0.00000000000E+00 0.  1.
         11    1    5    5    0    0 -0.17391956598E+02 -0.48848403747E+01 -0.13144977113E+03  0.13268528234E+03  0.00000000000E+00 0.  1.
        -11    1    5    5    0    0 -0.15094850576E+03 -0.35956944157E+03 -0.14851017783E+04  0.15354487704E+04  0.00000000000E+00 0. -1.
          4    1    6    6  503    0 -0.36612167749E+03 -0.28352303144E+02 -0.19181032641E+03  0.41429474670E+03  0.00000000000E+00 0. -1.
         -4    1    6    6    0  503 -0.72192690372E+02 -0.34948798158E+02 -0.97347425998E+01  0.80795843020E+02  0.00000000000E+00 0.  1.
<mgrwt>
<rscale>  0 0.20699565E+04</rscale>
<asrwt>0</asrwt>
<pdfrwt beam="1">  1        2 0.39318195E+00 0.20699565E+04</pdfrwt>
<pdfrwt beam="2">  1       -3 0.64482542E-01 0.20699565E+04</pdfrwt>
<totfact> 0.44682263E+00</totfact>
</mgrwt>
</event>
<event>
12    6  0.1611689E-007  0.1210162E+04  0.7818608E-02  0.9104008E-01
          2   -1    0    0  501    0  0.00000000000E+00  0.00000000000E+00  0.49172357085E+03  0.49172357085E+03  0.00000000000E+00 0. -1.
         -1   -1    0    0    0  501 -0.00000000000E+00 -0.00000000000E+00 -0.74457058905E+03  0.74457058905E+03  0.00000000000E+00 0.  1.
         24    2    1    2    0    0  0.11277390577E+01  0.17170065614E+02  0.21571178299E+03  0.23005771869E+03  0.78095439423E+02 0.  0.
        254    2    1    2    0    0 -0.11277390577E+01 -0.17170065614E+02 -0.46855880120E+03  0.10062364412E+04  0.89031923628E+03 0.  0.
         23    2    4    4    0    0 -0.81130632898E+02 -0.14563593448E+03 -0.69429721269E+03  0.71959319826E+03  0.89295836609E+02 0.  0.
         23    2    4    4    0    0  0.80002893840E+02  0.12846586887E+03  0.22573841149E+03  0.28664324295E+03  0.91118471337E+02 0.  0.
          2    1    3    3  502    0  0.74405822121E+00  0.47696121445E+02  0.15381120697E+03  0.16103838367E+03  0.00000000000E+00 0. -1.
         -1    1    3    3    0  502  0.38368083647E+00 -0.30526055831E+02  0.61900576019E+02  0.69019335023E+02  0.00000000000E+00 0.  1.
         11    1    5    5    0    0 -0.76303495723E+02 -0.11769136676E+03 -0.66163039281E+03  0.67633442761E+03  0.00000000000E+00 0.  1.
        -11    1    5    5    0    0 -0.48271371742E+01 -0.27944567717E+02 -0.32666819874E+02  0.43258770658E+02  0.00000000000E+00 0. -1.
          3    1    6    6  503    0 -0.18447345120E+02  0.68676330247E+01  0.32643911447E+02  0.38119468515E+02  0.00000000000E+00 0. -1.
         -3    1    6    6    0  503  0.98450238960E+02  0.12159823584E+03  0.19309450004E+03  0.24852377443E+03  0.00000000000E+00 0.  1.
<mgrwt>
<rscale>  0 0.12101618E+04</rscale>
<asrwt>0</asrwt>
<pdfrwt beam="1">  1        2 0.75649780E-01 0.12101618E+04</pdfrwt>
<pdfrwt beam="2">  1       -1 0.11454932E+00 0.12101618E+04</pdfrwt>
<totfact> 0.49086247E+01</totfact>
</mgrwt>
</event>
<event>
12    6  0.1611689E-007  0.2153675E+04  0.7818608E-02  0.8537961E-01
         -1   -1    0    0    0  501 -0.00000000000E+00  0.00000000000E+00  0.10623800302E+04  0.10623800302E+04  0.00000000000E+00 0.  1.
          2   -1    0    0  501    0  0.00000000000E+00 -0.00000000000E+00 -0.10914914801E+04  0.10914914801E+04  0.00000000000E+00 0. -1.
         24    2    1    2    0    0  0.33784628703E+02  0.88153894074E+03 -0.97033044273E+02  0.89110759431E+03  0.80031417450E+02 0.  0.
        254    2    1    2    0    0 -0.33784628703E+02 -0.88153894074E+03  0.67921594362E+02  0.12627639160E+04  0.90094786723E+03 0.  0.
         23    2    4    4    0    0  0.37686244006E+03 -0.16245682119E+03 -0.44440176373E+02  0.42188237303E+03  0.87133747284E+02 0.  0.
         23    2    4    4    0    0 -0.41064706876E+03 -0.71908211955E+03  0.11236177074E+03  0.84088154300E+03  0.93522682239E+02 0.  0.
          2    1    3    3  502    0  0.83537950565E+01  0.75901327633E+03 -0.10194359385E+03  0.76587429508E+03  0.00000000000E+00 0. -1.
         -1    1    3    3    0  502  0.25430833646E+02  0.12252566441E+03  0.49105495755E+01  0.12523329923E+03  0.00000000000E+00 0.  1.
         11    1    5    5    0    0  0.55678043689E+02 -0.51262557646E+02  0.14114791214E+02  0.76987802257E+02  0.00000000000E+00 0.  1.
        -11    1    5    5    0    0  0.32118439637E+03 -0.11119426354E+03 -0.58554967587E+02  0.34489457077E+03  0.00000000000E+00 0. -1.
          2    1    6    6  503    0 -0.37354939661E+03 -0.60205258304E+03  0.11652567297E+03  0.71804226680E+03  0.00000000000E+00 0. -1.
         -2    1    6    6    0  503 -0.37097672156E+02 -0.11702953652E+03 -0.41639022321E+01  0.12283927620E+03  0.00000000000E+00 0.  1.
<mgrwt>
<rscale>  0 0.21536748E+04</rscale>
<asrwt>0</asrwt>
<pdfrwt beam="1">  1        2 0.16792177E+00 0.21536748E+04</pdfrwt>
<pdfrwt beam="2">  1       -1 0.16344308E+00 0.21536748E+04</pdfrwt>
<totfact> 0.63513359E+00</totfact>
</mgrwt>
</event>
<event>
12    6  0.1611689E-007  0.1597531E+04  0.7818608E-02  0.8822066E-01
          2   -1    0    0  501    0  0.00000000000E+00  0.00000000000E+00  0.10201457921E+04  0.10201457921E+04  0.00000000000E+00 0. -1.
         -1   -1    0    0    0  501 -0.00000000000E+00 -0.00000000000E+00 -0.62542689555E+03  0.62542689555E+03  0.00000000000E+00 0.  1.
         24    2    1    2    0    0 -0.46132683619E+03  0.21801550751E+03 -0.97260876279E+02  0.52620408092E+03  0.84129931726E+02 0.  0.
        254    2    1    2    0    0  0.46132683619E+03 -0.21801550751E+03  0.49197977284E+03  0.11193686067E+04  0.86636526338E+03 0.  0.
         23    2    4    4    0    0 -0.13420740776E+03 -0.29358905761E+03 -0.43144535518E+01  0.33515657355E+03  0.90028613442E+02 0.  0.
         23    2    4    4    0    0  0.59553424396E+03  0.75573550096E+02  0.49629422639E+03  0.78421203320E+03  0.91149090303E+02 0.  0.
          2    1    3    3  502    0  0.16976730252E+01 -0.30908775116E+01  0.12188776381E+01  0.37311231806E+01  0.00000000000E+00 0. -1.
         -1    1    3    3    0  502 -0.46302450922E+03  0.22110638503E+03 -0.98479753918E+02  0.52247295774E+03  0.00000000000E+00 0.  1.
         11    1    5    5    0    0 -0.11591327273E+03 -0.23905857594E+03 -0.38183584078E+02  0.26840803941E+03  0.00000000000E+00 0.  1.
        -11    1    5    5    0    0 -0.18294135036E+02 -0.54530481667E+02  0.33869130526E+02  0.66748534142E+02  0.00000000000E+00 0. -1.
          3    1    6    6  503    0  0.31463364144E+03  0.65546520499E+02  0.31319359770E+03  0.44875483765E+03  0.00000000000E+00 0. -1.
         -3    1    6    6    0  503  0.28090060252E+03  0.10027029597E+02  0.18310062870E+03  0.33545719555E+03  0.00000000000E+00 0.  1.
<mgrwt>
<rscale>  0 0.15975314E+04</rscale>
<asrwt>0</asrwt>
<pdfrwt beam="1">  1        2 0.15694551E+00 0.15975314E+04</pdfrwt>
<pdfrwt beam="2">  1       -1 0.96219523E-01 0.15975314E+04</pdfrwt>
<totfact> 0.27841561E+01</totfact>
</mgrwt>
</event>
<event>
12    6  0.1611689E-007  0.1484993E+04  0.7818608E-02  0.8894494E-01
         -1   -1    0    0    0  501 -0.00000000000E+00  0.00000000000E+00  0.27932892186E+03  0.27932892186E+03  0.00000000000E+00 0.  1.
          2   -1    0    0  501    0  0.00000000000E+00 -0.00000000000E+00 -0.19736621382E+04  0.19736621382E+04  0.00000000000E+00 0. -1.
         24    2    1    2    0    0  0.38565212161E+03  0.53503518800E+02 -0.16244872683E+03  0.42946074308E+03  0.80353939346E+02 0.  0.
        254    2    1    2    0    0 -0.38565212161E+03 -0.53503518800E+02 -0.15318844895E+04  0.18235303170E+04  0.90939680135E+03 0.  0.
         23    2    4    4    0    0 -0.13502523277E+03  0.95361369867E+02  0.63556856799E+02  0.19897190163E+03  0.90690348134E+02 0.  0.
         23    2    4    4    0    0 -0.25062688884E+03 -0.14886488867E+03 -0.15954413463E+04  0.16245584154E+04  0.93714261746E+02 0.  0.
          4    1    3    3  502    0  0.11684686377E+03  0.34165708066E+02 -0.86895962395E+02  0.14957069720E+03  0.00000000000E+00 0. -1.
         -3    1    3    3    0  502  0.26880525784E+03  0.19337810734E+02 -0.75552764431E+02  0.27989004587E+03  0.00000000000E+00 0.  1.
         11    1    5    5    0    0 -0.12250562724E+03  0.11300089918E+03  0.52895700080E+02  0.17485647546E+03  0.00000000000E+00 0. -1.
        -11    1    5    5    0    0 -0.12519605531E+02 -0.17639529315E+02  0.10661156720E+02  0.24115426177E+02  0.00000000000E+00 0.  1.
          3    1    6    6  503    0 -0.18082076337E+03 -0.15214086712E+03 -0.12280879018E+04  0.12506170023E+04  0.00000000000E+00 0. -1.
         -3    1    6    6    0  503 -0.69806125470E+02  0.32759784579E+01 -0.36735344454E+03  0.37394141306E+03  0.00000000000E+00 0.  1.
<mgrwt>
<rscale>  0 0.14849928E+04</rscale>
<asrwt>0</asrwt>
<pdfrwt beam="1">  1        2 0.30364032E+00 0.14849928E+04</pdfrwt>
<pdfrwt beam="2">  1       -1 0.42973682E-01 0.14849928E+04</pdfrwt>
<totfact> 0.40645759E+01</totfact>
</mgrwt>
</event>
<event>
12    6  0.1611689E-007  0.1241768E+04  0.7818608E-02  0.9077062E-01
          2   -1    0    0  501    0  0.00000000000E+00  0.00000000000E+00  0.23717529725E+04  0.23717529725E+04  0.00000000000E+00 0. -1.
         -1   -1    0    0    0  501 -0.00000000000E+00 -0.00000000000E+00 -0.16253682652E+03  0.16253682652E+03  0.00000000000E+00 0.  1.
         24    2    1    2    0    0  0.28345207895E+03 -0.62781775770E+02  0.49770189516E+03  0.58197200074E+03  0.81838870747E+02 0.  0.
        254    2    1    2    0    0 -0.28345207895E+03  0.62781775770E+02  0.17115142508E+04  0.19523177983E+04  0.89329565223E+03 0.  0.
         23    2    4    4    0    0 -0.16729016246E+03  0.38884290795E+03  0.38929642730E+03  0.58250014301E+03  0.92573769374E+02 0.  0.
         23    2    4    4    0    0 -0.11616191649E+03 -0.32606113218E+03  0.13222178235E+04  0.13698176552E+04  0.91274219218E+02 0.  0.
          2    1    3    3  502    0  0.19787200666E+03 -0.67112879753E+02  0.29128080621E+03  0.35847172512E+03  0.00000000000E+00 0. -1.
         -1    1    3    3    0  502  0.85580072295E+02  0.43311039830E+01  0.20642108895E+03  0.22350027561E+03  0.00000000000E+00 0.  1.
         11    1    5    5    0    0 -0.42599433386E+02  0.19757717249E+03  0.21635158811E+03  0.29607340390E+03  0.00000000000E+00 0.  1.
        -11    1    5    5    0    0 -0.12469072907E+03  0.19126573546E+03  0.17294483919E+03  0.28642673912E+03  0.00000000000E+00 0. -1.
          3    1    6    6  503    0 -0.22611008455E+02 -0.10236917510E+03  0.56767987026E+03  0.57727908399E+03  0.00000000000E+00 0. -1.
         -3    1    6    6    0  503 -0.93550908037E+02 -0.22369195708E+03  0.75453795324E+03  0.79253857126E+03  0.00000000000E+00 0.  1.
<mgrwt>
<rscale>  0 0.12417684E+04</rscale>
<asrwt>0</asrwt>
<pdfrwt beam="1">  1        2 0.36488505E+00 0.12417684E+04</pdfrwt>
<pdfrwt beam="2">  1       -1 0.25005667E-01 0.12417684E+04</pdfrwt>
<totfact> 0.65029790E+01</totfact>
</mgrwt>
</event>
<event>
12    6  0.1611689E-007  0.1495650E+04  0.7818608E-02  0.8887350E-01
          2   -1    0    0  501    0  0.00000000000E+00  0.00000000000E+00  0.25992042105E+04  0.25992042105E+04  0.00000000000E+00 0. -1.
         -1   -1    0    0    0  501 -0.00000000000E+00 -0.00000000000E+00 -0.21515914931E+03  0.21515914931E+03  0.00000000000E+00 0.  1.
         24    2    1    2    0    0 -0.16793797955E+03  0.62337111672E+02 -0.59714009866E+02  0.20513059801E+03  0.80148105410E+02 0.  0.
        254    2    1    2    0    0  0.16793797955E+03 -0.62337111672E+02  0.24437590711E+04  0.26092327618E+04  0.89668730748E+03 0.  0.
         23    2    4    4    0    0 -0.17464329286E+03 -0.31226699946E+03  0.52567249388E+03  0.64276105128E+03  0.93804261781E+02 0.  0.
         23    2    4    4    0    0  0.34258127240E+03  0.24992988779E+03  0.19180865772E+04  0.19664717106E+04  0.90155386473E+02 0.  0.
          4    1    3    3  502    0 -0.72340287050E+02  0.63372374011E+01  0.11360307789E+02  0.73500573477E+02  0.00000000000E+00 0. -1.
         -3    1    3    3    0  502 -0.95597692495E+02  0.55999874271E+02 -0.71074317655E+02  0.13163002453E+03  0.00000000000E+00 0.  1.
         11    1    5    5    0    0 -0.17885723943E+03 -0.26013501855E+03  0.42628454995E+03  0.53045137147E+03  0.00000000000E+00 0.  1.
        -11    1    5    5    0    0  0.42139465738E+01 -0.52131980912E+02  0.99387943933E+02  0.11230967981E+03  0.00000000000E+00 0. -1.
          3    1    6    6  503    0  0.74169623327E+00 -0.60735027881E+01  0.19193043801E+02  0.20144738265E+02  0.00000000000E+00 0. -1.
         -3    1    6    6    0  503  0.34183957617E+03  0.25600339058E+03  0.18988935334E+04  0.19463269723E+04  0.00000000000E+00 0.  1.
<mgrwt>
<rscale>  0 0.14956504E+04</rscale>
<asrwt>0</asrwt>
<pdfrwt beam="1">  1        2 0.39987755E+00 0.14956504E+04</pdfrwt>
<pdfrwt beam="2">  1       -1 0.33101410E-01 0.14956504E+04</pdfrwt>
<totfact> 0.28852351E+01</totfact>
</mgrwt>
</event>
<event>
12    6  0.1611689E-007  0.1460705E+04  0.7818608E-02  0.8911013E-01
         -1   -1    0    0    0  501 -0.00000000000E+00  0.00000000000E+00  0.49621242946E+03  0.49621242946E+03  0.00000000000E+00 0.  1.
          2   -1    0    0  501    0  0.00000000000E+00 -0.00000000000E+00 -0.10749722549E+04  0.10749722549E+04  0.00000000000E+00 0. -1.
         24    2    1    2    0    0 -0.36806087388E+01  0.11772893352E+03 -0.64303326745E+03  0.65852641310E+03  0.79319638412E+02 0.  0.
        254    2    1    2    0    0  0.36806087388E+01 -0.11772893352E+03  0.64273442049E+02  0.91265827122E+03  0.90274049206E+03 0.  0.
         23    2    4    4    0    0  0.55652457546E+02 -0.22086764013E+03 -0.37578265594E+03  0.44874108221E+03  0.90973863701E+02 0.  0.
         23    2    4    4    0    0 -0.51971848807E+02  0.10313870661E+03  0.44005609799E+03  0.46391718900E+03  0.90725536703E+02 0.  0.
          2    1    3    3  502    0  0.35068239418E+02  0.79478518576E+02 -0.36311750746E+03  0.37336435362E+03  0.00000000000E+00 0. -1.
         -1    1    3    3    0  502 -0.38748848156E+02  0.38250414940E+02 -0.27991575999E+03  0.28516205948E+03  0.00000000000E+00 0.  1.
         11    1    5    5    0    0  0.57389388277E+02 -0.22852240848E+03 -0.37116077100E+03  0.43963206320E+03  0.00000000000E+00 0. -1.
        -11    1    5    5    0    0 -0.17369307312E+01  0.76547683566E+01 -0.46218849342E+01  0.91090190088E+01  0.00000000000E+00 0.  1.
          3    1    6    6  503    0 -0.37864124378E+02  0.83998567742E+02  0.42692568945E+03  0.43675507508E+03  0.00000000000E+00 0. -1.
         -3    1    6    6    0  503 -0.14107724429E+02  0.19140138869E+02  0.13130408538E+02  0.27162113925E+02  0.00000000000E+00 0.  1.
<mgrwt>
<rscale>  0 0.14607048E+04</rscale>
<asrwt>0</asrwt>
<pdfrwt beam="1">  1        2 0.16538035E+00 0.14607048E+04</pdfrwt>
<pdfrwt beam="2">  1       -1 0.76340374E-01 0.14607048E+04</pdfrwt>
<totfact> 0.42999403E+01</totfact>
</mgrwt>
</event>
<event>
12    6  0.1611689E-007  0.2439750E+04  0.7818608E-02  0.8424770E-01
         -1   -1    0    0    0  501 -0.00000000000E+00  0.00000000000E+00  0.69495375840E+03  0.69495375840E+03  0.00000000000E+00 0.  1.
          2   -1    0    0  501    0  0.00000000000E+00 -0.00000000000E+00 -0.21412856804E+04  0.21412856804E+04  0.00000000000E+00 0. -1.
         24    2    1    2    0    0  0.47824038152E+03  0.11333423515E+03 -0.16840747447E+04  0.17562269733E+04  0.81651238408E+02 0.  0.
        254    2    1    2    0    0 -0.47824038152E+03 -0.11333423515E+03  0.23774282265E+03  0.10800124655E+04  0.93185125670E+03 0.  0.
         23    2    4    4    0    0 -0.60502994074E+03  0.23354658513E+03  0.55693982624E+02  0.65726041520E+03  0.91017564636E+02 0.  0.
         23    2    4    4    0    0  0.12678955922E+03 -0.34688082028E+03  0.18204884002E+03  0.42275205033E+03  0.95789457151E+02 0.  0.
          4    1    3    3  502    0  0.24115937385E+03  0.23238130248E+02 -0.90762020394E+03  0.93939996215E+03  0.00000000000E+00 0. -1.
         -3    1    3    3    0  502  0.23708100767E+03  0.90096104906E+02 -0.77645454071E+03  0.81682701113E+03  0.00000000000E+00 0.  1.
         11    1    5    5    0    0 -0.10576578093E+03  0.50560698919E+02  0.44530047639E+02  0.12540219230E+03  0.00000000000E+00 0.  1.
        -11    1    5    5    0    0 -0.49926415981E+03  0.18298588621E+03  0.11163934985E+02  0.53185822290E+03  0.00000000000E+00 0. -1.
          2    1    6    6  503    0  0.14144408552E+03 -0.32427210244E+03  0.17599864551E+03  0.39513839217E+03  0.00000000000E+00 0. -1.
         -2    1    6    6    0  503 -0.14654526295E+02 -0.22608717842E+02  0.60501945152E+01  0.27613658161E+02  0.00000000000E+00 0.  1.
<mgrwt>
<rscale>  0 0.24397496E+04</rscale>
<asrwt>0</asrwt>
<pdfrwt beam="1">  1        2 0.32942856E+00 0.24397496E+04</pdfrwt>
<pdfrwt beam="2">  1       -1 0.10691597E+00 0.24397496E+04</pdfrwt>
<totfact> 0.46360521E+00</totfact>
</mgrwt>
</event>
<event>
12    6  0.1611689E-007  0.1709958E+04  0.7818608E-02  0.8755705E-01
         -1   -1    0    0    0  501 -0.00000000000E+00  0.00000000000E+00  0.14857981333E+04  0.14857981333E+04  0.00000000000E+00 0.  1.
          2   -1    0    0  501    0  0.00000000000E+00 -0.00000000000E+00 -0.49198409912E+03  0.49198409912E+03  0.00000000000E+00 0. -1.
         24    2    1    2    0    0  0.96062056537E+02 -0.18018904585E+03 -0.30796939462E+03  0.37776765244E+03  0.78531778640E+02 0.  0.
        254    2    1    2    0    0 -0.96062056537E+02  0.18018904585E+03  0.13017834289E+04  0.16000145800E+04  0.90758500962E+03 0.  0.
         23    2    4    4    0    0 -0.14194467487E+03  0.37943092336E+03  0.17532087674E+03  0.45193359679E+03  0.96904333023E+02 0.  0.
         23    2    4    4    0    0  0.45882618334E+02 -0.19924187751E+03  0.11264625521E+04  0.11480809832E+04  0.85845921971E+02 0.  0.
          2    1    3    3  502    0  0.35026763636E+02 -0.48540092778E+02 -0.15859101682E+03  0.16951143146E+03  0.00000000000E+00 0. -1.
         -1    1    3    3    0  502  0.61035292901E+02 -0.13164895307E+03 -0.14937837780E+03  0.20825622099E+03  0.00000000000E+00 0.  1.
         11    1    5    5    0    0 -0.13918463079E+03  0.28082395622E+03  0.10408103595E+03  0.33025341464E+03  0.00000000000E+00 0.  1.
        -11    1    5    5    0    0 -0.27600440768E+01  0.98606967145E+02  0.71239840793E+02  0.12168018215E+03  0.00000000000E+00 0. -1.
          3    1    6    6  503    0  0.10463152863E+02 -0.87643610972E+02  0.28064483417E+03  0.29419789778E+03  0.00000000000E+00 0. -1.
         -3    1    6    6    0  503  0.35419465471E+02 -0.11159826654E+03  0.84581771794E+03  0.85388308545E+03  0.00000000000E+00 0.  1.
<mgrwt>
<rscale>  0 0.17099580E+04</rscale>
<asrwt>0</asrwt>
<pdfrwt beam="1">  1        2 0.75689862E-01 0.17099580E+04</pdfrwt>
<pdfrwt beam="2">  1       -1 0.22858433E+00 0.17099580E+04</pdfrwt>
<totfact> 0.65773265E+00</totfact>
</mgrwt>
</event>
<event>
12    6  0.1611689E-007  0.1594069E+04  0.7818608E-02  0.8824200E-01
          2   -1    0    0  501    0  0.00000000000E+00  0.00000000000E+00  0.23750635109E+04  0.23750635109E+04  0.00000000000E+00 0. -1.
         -1   -1    0    0    0  501 -0.00000000000E+00 -0.00000000000E+00 -0.26747247397E+03  0.26747247397E+03  0.00000000000E+00 0.  1.
         24    2    1    2    0    0 -0.22790737167E+03 -0.18546067801E+03  0.14615381422E+04  0.14935321083E+04  0.90592407497E+02 0.  0.
        254    2    1    2    0    0  0.22790737167E+03  0.18546067801E+03  0.64605289480E+03  0.11490038766E+04  0.90359732871E+03 0.  0.
         23    2    4    4    0    0  0.49961307143E+03  0.30846131001E+03  0.24894208010E+03  0.64389405208E+03  0.88689289946E+02 0.  0.
         23    2    4    4    0    0 -0.27170569976E+03 -0.12300063200E+03  0.39711081470E+03  0.50510982454E+03  0.92118363736E+02 0.  0.
          2    1    3    3  502    0 -0.19737872071E+03 -0.12923000204E+03  0.99274831500E+03  0.10203959867E+04  0.00000000000E+00 0. -1.
         -1    1    3    3    0  502 -0.30528650960E+02 -0.56230675967E+02  0.46878982716E+03  0.47313612153E+03  0.00000000000E+00 0.  1.
         11    1    5    5    0    0  0.65147667417E+02  0.33402971946E+02  0.64590483306E+02  0.97631488970E+02  0.00000000000E+00 0.  1.
        -11    1    5    5    0    0  0.43446540401E+03  0.27505833806E+03  0.18435159679E+03  0.54626256311E+03  0.00000000000E+00 0. -1.
          2    1    6    6  503    0 -0.23474124366E+03 -0.96310746330E+02  0.27210410060E+03  0.37204818626E+03  0.00000000000E+00 0. -1.
         -2    1    6    6    0  503 -0.36964456099E+02 -0.26689885671E+02  0.12500671410E+03  0.13306163828E+03  0.00000000000E+00 0.  1.
<mgrwt>
<rscale>  0 0.15940691E+04</rscale>
<asrwt>0</asrwt>
<pdfrwt beam="1">  1        2 0.36539437E+00 0.15940691E+04</pdfrwt>
<pdfrwt beam="2">  1       -1 0.41149613E-01 0.15940691E+04</pdfrwt>
<totfact> 0.25992520E+01</totfact>
</mgrwt>
</event>
<event>
12    6  0.1611689E-007  0.1840058E+04  0.7818608E-02  0.8685282E-01
          2   -1    0    0  501    0  0.00000000000E+00  0.00000000000E+00  0.24523066317E+04  0.24523066317E+04  0.00000000000E+00 0. -1.
         -1   -1    0    0    0  501 -0.00000000000E+00 -0.00000000000E+00 -0.34516634680E+03  0.34516634680E+03  0.00000000000E+00 0.  1.
         24    2    1    2    0    0  0.45525374757E+03 -0.19550368530E+03  0.49032569042E+02  0.50495176053E+03  0.84228391794E+02 0.  0.
        254    2    1    2    0    0 -0.45525374757E+03  0.19550368530E+03  0.20581077159E+04  0.22925212180E+04  0.87998210159E+03 0.  0.
         23    2    4    4    0    0 -0.27772164229E+03 -0.32709399716E+03  0.72075355677E+03  0.84323771336E+03  0.86280693444E+02 0.  0.
         23    2    4    4    0    0 -0.17753210529E+03  0.52259768246E+03  0.13373541591E+04  0.14492835046E+04  0.85326102636E+02 0.  0.
          4    1    3    3  502    0  0.11178187024E+03 -0.66946291905E+02 -0.19842528610E+02  0.13179802144E+03  0.00000000000E+00 0. -1.
         -3    1    3    3    0  502  0.34347187733E+03 -0.12855739340E+03  0.68875097652E+02  0.37315373908E+03  0.00000000000E+00 0.  1.
         11    1    5    5    0    0 -0.11663149010E+03 -0.19301860388E+03  0.32778261353E+03  0.39786998839E+03  0.00000000000E+00 0. -1.
        -11    1    5    5    0    0 -0.16109015219E+03 -0.13407539328E+03  0.39297094324E+03  0.44536772497E+03  0.00000000000E+00 0.  1.
          1    1    6    6  503    0 -0.16558675972E+03  0.51891541315E+03  0.12894692028E+04  0.13997939155E+04  0.00000000000E+00 0. -1.
         -1    1    6    6    0  503 -0.11945345568E+02  0.36822693060E+01  0.47884956334E+02  0.49489589119E+02  0.00000000000E+00 0.  1.
<mgrwt>
<rscale>  0 0.18400584E+04</rscale>
<asrwt>0</asrwt>
<pdfrwt beam="1">  1        2 0.37727793E+00 0.18400584E+04</pdfrwt>
<pdfrwt beam="2">  1       -1 0.53102516E-01 0.18400584E+04</pdfrwt>
<totfact> 0.14225371E+01</totfact>
</mgrwt>
</event>
<event>
12    6  0.1611689E-007  0.2358015E+04  0.7818608E-02  0.8455392E-01
          2   -1    0    0  501    0  0.00000000000E+00  0.00000000000E+00  0.37467640501E+04  0.37467640501E+04  0.00000000000E+00 0. -1.
         -1   -1    0    0    0  501 -0.00000000000E+00 -0.00000000000E+00 -0.37100236981E+03  0.37100236981E+03  0.00000000000E+00 0.  1.
         24    2    1    2    0    0 -0.80142345326E+03 -0.51653446021E+03  0.20188731034E+04  0.22341391549E+04  0.80260548219E+02 0.  0.
        254    2    1    2    0    0  0.80142345326E+03  0.51653446021E+03  0.13568885768E+04  0.18836272650E+04  0.89320639466E+03 0.  0.
         23    2    4    4    0    0  0.14030290104E+03  0.53189644102E+03  0.95056618460E+03  0.11020398578E+04  0.91197855506E+02 0.  0.
         23    2    4    4    0    0  0.66112055222E+03 -0.15361980807E+02  0.40632239223E+03  0.78158740720E+03  0.92003334966E+02 0.  0.
          4    1    3    3  502    0 -0.39502698178E+03 -0.21823537863E+03  0.10142786897E+04  0.11101505561E+04  0.00000000000E+00 0. -1.
         -3    1    3    3    0  502 -0.40639647149E+03 -0.29829908158E+03  0.10045944137E+04  0.11239885988E+04  0.00000000000E+00 0.  1.
         11    1    5    5    0    0  0.65509813857E+02  0.33615306221E+03  0.66294344705E+03  0.74617989180E+03  0.00000000000E+00 0.  1.
        -11    1    5    5    0    0  0.74793087186E+02  0.19574337881E+03  0.28762273755E+03  0.35585996599E+03  0.00000000000E+00 0. -1.
          1    1    6    6  503    0  0.17424427882E+03 -0.36588711623E+02  0.13799940286E+03  0.22526348508E+03  0.00000000000E+00 0. -1.
         -1    1    6    6    0  503  0.48687627340E+03  0.21226730816E+02  0.26832298936E+03  0.55632392211E+03  0.00000000000E+00 0.  1.
<mgrwt>
<rscale>  0 0.23580147E+04</rscale>
<asrwt>0</asrwt>
<pdfrwt beam="1">  1        2 0.57642521E+00 0.23580147E+04</pdfrwt>
<pdfrwt beam="2">  1       -1 0.57077290E-01 0.23580147E+04</pdfrwt>
<totfact> 0.17247240E+00</totfact>
</mgrwt>
</event>
<event>
12    6  0.1611689E-007  0.1361500E+04  0.7818608E-02  0.8982168E-01
          2   -1    0    0  501    0  0.00000000000E+00  0.00000000000E+00  0.14848433232E+04  0.14848433232E+04  0.00000000000E+00 0. -1.
         -1   -1    0    0    0  501 -0.00000000000E+00 -0.00000000000E+00 -0.31210048906E+03  0.31210048906E+03  0.00000000000E+00 0.  1.
         24    2    1    2    0    0 -0.25883590015E+03 -0.10779220984E+03  0.68198038723E+03  0.74153407105E+03  0.78487873381E+02 0.  0.
        254    2    1    2    0    0  0.25883590015E+03  0.10779220984E+03  0.49076244695E+03  0.10554097412E+04  0.89130620936E+03 0.  0.
         23    2    4    4    0    0  0.33961361559E+03  0.22770878000E+03 -0.10801448477E+03  0.43282715609E+03  0.92106035306E+02 0.  0.
         23    2    4    4    0    0 -0.80777715449E+02 -0.11991657017E+03  0.59877693172E+03  0.62258258515E+03  0.90389370266E+02 0.  0.
          2    1    3    3  502    0 -0.25150486659E+03 -0.98862692595E+02  0.59136861700E+03  0.65018871959E+03  0.00000000000E+00 0. -1.
         -1    1    3    3    0  502 -0.73310335540E+01 -0.89295172402E+01  0.90611770223E+02  0.91345351464E+02  0.00000000000E+00 0.  1.
         11    1    5    5    0    0  0.24718963295E+03  0.14179468290E+03 -0.11295891936E+03  0.30654227148E+03  0.00000000000E+00 0. -1.
        -11    1    5    5    0    0  0.92423982640E+02  0.85914097102E+02  0.49444345906E+01  0.12628488461E+03  0.00000000000E+00 0.  1.
          2    1    6    6  503    0 -0.18676746564E+02 -0.53270577925E+02  0.39954159394E+03  0.40350967848E+03  0.00000000000E+00 0. -1.
         -2    1    6    6    0  503 -0.62100968885E+02 -0.66645992242E+02  0.19923533778E+03  0.21907290667E+03  0.00000000000E+00 0.  1.
<mgrwt>
<rscale>  0 0.13614997E+04</rscale>
<asrwt>0</asrwt>
<pdfrwt beam="1">  1        2 0.22843743E+00 0.13614997E+04</pdfrwt>
<pdfrwt beam="2">  1       -1 0.48015461E-01 0.13614997E+04</pdfrwt>
<totfact> 0.62405603E+01</totfact>
</mgrwt>
</event>
<event>
12    6  0.1611689E-007  0.3207183E+04  0.7818608E-02  0.8186923E-01
          2   -1    0    0  501    0  0.00000000000E+00  0.00000000000E+00  0.16858223104E+04  0.16858223104E+04  0.00000000000E+00 0. -1.
         -1   -1    0    0    0  501 -0.00000000000E+00 -0.00000000000E+00 -0.15253712584E+04  0.15253712584E+04  0.00000000000E+00 0.  1.
         24    2    1    2    0    0  0.60230044280E+03  0.43685627906E+03 -0.11976403290E+04  0.14121401344E+04  0.78664920161E+02 0.  0.
        254    2    1    2    0    0 -0.60230044280E+03 -0.43685627906E+03  0.13580913810E+04  0.17990534344E+04  0.91573567623E+03 0.  0.
         23    2    4    4    0    0 -0.36076838571E+03  0.10873150894E+02  0.12033096434E+04  0.12595221942E+04  0.90388086785E+02 0.  0.
         23    2    4    4    0    0 -0.24153205709E+03 -0.44772942995E+03  0.15478173761E+03  0.53953124021E+03  0.91308246177E+02 0.  0.
          2    1    3    3  502    0  0.43027523002E+02  0.59813400248E+02 -0.11518928096E+03  0.13673909840E+03  0.00000000000E+00 0. -1.
         -1    1    3    3    0  502  0.55927291980E+03  0.37704287881E+03 -0.10824510480E+04  0.12754010360E+04  0.00000000000E+00 0.  1.
         11    1    5    5    0    0 -0.15069692622E+03  0.13939330954E+01  0.65881722650E+03  0.67583403625E+03  0.00000000000E+00 0. -1.
        -11    1    5    5    0    0 -0.21007145949E+03  0.94792177982E+01  0.54449241689E+03  0.58368815794E+03  0.00000000000E+00 0.  1.
          3    1    6    6  503    0 -0.98582345696E+02 -0.14813138746E+03  0.96762830673E+02  0.20254488943E+03  0.00000000000E+00 0. -1.
         -3    1    6    6    0  503 -0.14294971139E+03 -0.29959804249E+03  0.58018906937E+02  0.33698635078E+03  0.00000000000E+00 0.  1.
<mgrwt>
<rscale>  0 0.32071825E+04</rscale>
<asrwt>0</asrwt>
<pdfrwt beam="1">  1        2 0.25935728E+00 0.32071825E+04</pdfrwt>
<pdfrwt beam="2">  1       -1 0.23467250E+00 0.32071825E+04</pdfrwt>
<totfact> 0.84084694E-01</totfact>
</mgrwt>
</event>
<event>
12    6  0.1611689E-007  0.2230135E+04  0.7818608E-02  0.8505989E-01
         -1   -1    0    0    0  501 -0.00000000000E+00  0.00000000000E+00  0.12021908994E+04  0.12021908994E+04  0.00000000000E+00 0.  1.
          2   -1    0    0  501    0  0.00000000000E+00 -0.00000000000E+00 -0.10342582192E+04  0.10342582192E+04  0.00000000000E+00 0. -1.
         24    2    1    2    0    0 -0.39081497399E+03 -0.84740629852E+03  0.85314882490E+02  0.94060549264E+03  0.81401995882E+02 0.  0.
        254    2    1    2    0    0  0.39081497399E+03  0.84740629852E+03  0.82617797698E+02  0.12958436260E+04  0.89529393148E+03 0.  0.
         23    2    4    4    0    0 -0.14586989749E+03 -0.19209049934E+02 -0.16778514676E+03  0.24211488119E+03  0.93918824687E+02 0.  0.
         23    2    4    4    0    0  0.53668487148E+03  0.86661534846E+03  0.25040294445E+03  0.10537287448E+04  0.92681279024E+02 0.  0.
          4    1    3    3  502    0 -0.40014185307E+02 -0.12546174358E+03 -0.11193924023E+02  0.13216311158E+03  0.00000000000E+00 0. -1.
         -3    1    3    3    0  502 -0.35080078868E+03 -0.72194455495E+03  0.96508806513E+02  0.80844238106E+03  0.00000000000E+00 0.  1.
         11    1    5    5    0    0  0.67408211644E+01 -0.87833141621E+01  0.42945598581E+01  0.11875543020E+02  0.00000000000E+00 0. -1.
        -11    1    5    5    0    0 -0.15261071865E+03 -0.10425735772E+02 -0.17207970661E+03  0.23023933817E+03  0.00000000000E+00 0.  1.
          2    1    6    6  503    0  0.41397680902E+03  0.59428912051E+03  0.16101182264E+03  0.74194417862E+03  0.00000000000E+00 0. -1.
         -2    1    6    6    0  503  0.12270806246E+03  0.27232622795E+03  0.89391121817E+02  0.31178456614E+03  0.00000000000E+00 0.  1.
<mgrwt>
<rscale>  0 0.22301353E+04</rscale>
<asrwt>0</asrwt>
<pdfrwt beam="1">  1        2 0.15911665E+00 0.22301353E+04</pdfrwt>
<pdfrwt beam="2">  1       -1 0.18495245E+00 0.22301353E+04</pdfrwt>
<totfact> 0.47768644E+00</totfact>
</mgrwt>
</event>
<event>
12    6  0.1611689E-007  0.2340939E+04  0.7818608E-02  0.8461952E-01
         -1   -1    0    0    0  501 -0.00000000000E+00  0.00000000000E+00  0.24408286026E+04  0.24408286026E+04  0.00000000000E+00 0.  1.
          2   -1    0    0  501    0  0.00000000000E+00 -0.00000000000E+00 -0.56128445743E+03  0.56128445743E+03  0.00000000000E+00 0. -1.
         24    2    1    2    0    0 -0.14856380165E+03  0.69509861011E+03 -0.88745572666E+02  0.72080837014E+03  0.80347052538E+02 0.  0.
        254    2    1    2    0    0  0.14856380165E+03 -0.69509861011E+03  0.19682897179E+04  0.22813046899E+04  0.90826945005E+03 0.  0.
         23    2    4    4    0    0  0.93662031899E+02  0.20567048572E+03  0.48212435129E+03  0.54028727022E+03  0.91616152128E+02 0.  0.
         23    2    4    4    0    0  0.54901769754E+02 -0.90076909584E+03  0.14861653666E+04  0.17410174197E+04  0.89749599503E+02 0.  0.
          4    1    3    3  502    0 -0.83427830056E+02  0.45722716496E+03 -0.21947011921E+02  0.46529405169E+03  0.00000000000E+00 0. -1.
         -3    1    3    3    0  502 -0.65135971597E+02  0.23787144516E+03 -0.66798560745E+02  0.25551431845E+03  0.00000000000E+00 0.  1.
         11    1    5    5    0    0  0.94781063455E+02  0.21367069659E+03  0.47547108060E+03  0.52982201262E+03  0.00000000000E+00 0.  1.
        -11    1    5    5    0    0 -0.11190315558E+01 -0.80002108708E+01  0.66532706965E+01  0.10465257596E+02  0.00000000000E+00 0. -1.
          3    1    6    6  503    0 -0.23424174014E+02 -0.16509043359E+03  0.29136768617E+03  0.33570622832E+03  0.00000000000E+00 0. -1.
         -3    1    6    6    0  503  0.78325943768E+02 -0.73567866224E+03  0.11947976804E+04  0.14053111914E+04  0.00000000000E+00 0.  1.
<mgrwt>
<rscale>  0 0.23409393E+04</rscale>
<asrwt>0</asrwt>
<pdfrwt beam="1">  1        2 0.86351456E-01 0.23409393E+04</pdfrwt>
<pdfrwt beam="2">  1       -1 0.37551209E+00 0.23409393E+04</pdfrwt>
<totfact> 0.58181879E-01</totfact>
</mgrwt>
</event>
<event>
12    6  0.1611689E-007  0.3258580E+04  0.7818608E-02  0.8173515E-01
         -1   -1    0    0    0  501 -0.00000000000E+00  0.00000000000E+00  0.13955104124E+04  0.13955104124E+04  0.00000000000E+00 0.  1.
          2   -1    0    0  501    0  0.00000000000E+00 -0.00000000000E+00 -0.19022332768E+04  0.19022332768E+04  0.00000000000E+00 0. -1.
         24    2    1    2    0    0 -0.62954552826E+03  0.31326073311E+03  0.11125453654E+04  0.13185733004E+04  0.80115539150E+02 0.  0.
        254    2    1    2    0    0  0.62954552826E+03 -0.31326073311E+03 -0.16192682298E+04  0.19791703887E+04  0.89477704961E+03 0.  0.
         23    2    4    4    0    0  0.83333477657E+01  0.12008041861E+03 -0.95724445631E+03  0.96926472124E+03  0.93104237815E+02 0.  0.
         23    2    4    4    0    0  0.62121218049E+03 -0.43334115172E+03 -0.66202377345E+03  0.10099056674E+04  0.89133908032E+02 0.  0.
          4    1    3    3  502    0 -0.33289491570E+02  0.37945723084E+02  0.67299215866E+02  0.84126408491E+02  0.00000000000E+00 0. -1.
         -3    1    3    3    0  502 -0.59625603669E+03  0.27531501002E+03  0.10452461495E+04  0.12344468920E+04  0.00000000000E+00 0.  1.
         11    1    5    5    0    0  0.61293467769E+01  0.24063786191E+02 -0.40525078972E+02  0.47528062484E+02  0.00000000000E+00 0. -1.
        -11    1    5    5    0    0  0.22040009888E+01  0.96016632418E+02 -0.91671937733E+03  0.92173665876E+03  0.00000000000E+00 0.  1.
          4    1    6    6  503    0  0.40970973205E+03 -0.24559288129E+03 -0.45204574347E+03  0.65766502269E+03  0.00000000000E+00 0. -1.
         -4    1    6    6    0  503  0.21150244844E+03 -0.18774827043E+03 -0.20997802999E+03  0.35224064476E+03  0.00000000000E+00 0.  1.
<mgrwt>
<rscale>  0 0.32585803E+04</rscale>
<asrwt>0</asrwt>
<pdfrwt beam="1">  1        2 0.29265127E+00 0.32585803E+04</pdfrwt>
<pdfrwt beam="2">  1       -1 0.21469391E+00 0.32585803E+04</pdfrwt>
<totfact> 0.86254833E-01</totfact>
</mgrwt>
</event>
<event>
12    6  0.1611689E-007  0.1870716E+04  0.7818608E-02  0.8669572E-01
          2   -1    0    0  501    0  0.00000000000E+00  0.00000000000E+00  0.53363149524E+03  0.53363149524E+03  0.00000000000E+00 0. -1.
         -1   -1    0    0    0  501 -0.00000000000E+00 -0.00000000000E+00 -0.16395099625E+04  0.16395099625E+04  0.00000000000E+00 0.  1.
         24    2    1    2    0    0  0.13758153889E+03 -0.22817880283E+02  0.38323031013E+03  0.41679775374E+03  0.86055571701E+02 0.  0.
        254    2    1    2    0    0 -0.13758153889E+03  0.22817880283E+02 -0.14891087774E+04  0.17563437040E+04  0.92078711992E+03 0.  0.
         23    2    4    4    0    0  0.20439884636E+02 -0.37752339156E+03 -0.30819549912E+03  0.49621693029E+03  0.91132190606E+02 0.  0.
         23    2    4    4    0    0 -0.15802142352E+03  0.40034127185E+03 -0.11809132783E+04  0.12601267737E+04  0.90107773363E+02 0.  0.
          4    1    3    3  502    0  0.12478047106E+03  0.50938568092E+01  0.24263319272E+03  0.27288638578E+03  0.00000000000E+00 0. -1.
         -3    1    3    3    0  502  0.12801067826E+02 -0.27911737093E+02  0.14059711741E+03  0.14391136796E+03  0.00000000000E+00 0.  1.
         11    1    5    5    0    0 -0.29271392179E+02 -0.13570936647E+03 -0.81112393167E+02  0.16078888915E+03  0.00000000000E+00 0.  1.
        -11    1    5    5    0    0  0.49711276814E+02 -0.24181402509E+03 -0.22708310595E+03  0.33542804114E+03  0.00000000000E+00 0. -1.
          3    1    6    6  503    0 -0.83122902372E+02  0.29935065162E+03 -0.90703324196E+03  0.95876458609E+03  0.00000000000E+00 0. -1.
         -3    1    6    6    0  503 -0.74898521150E+02  0.10099062022E+03 -0.27388003633E+03  0.30136218765E+03  0.00000000000E+00 0.  1.
<mgrwt>
<rscale>  0 0.18707155E+04</rscale>
<asrwt>0</asrwt>
<pdfrwt beam="1">  1        2 0.82097154E-01 0.18707155E+04</pdfrwt>
<pdfrwt beam="2">  1       -1 0.25223230E+00 0.18707155E+04</pdfrwt>
<totfact> 0.41257046E+00</totfact>
</mgrwt>
</event>
<event>
12    6  0.1611689E-007  0.3704288E+04  0.7818608E-02  0.8067012E-01
         -1   -1    0    0    0  501 -0.00000000000E+00  0.00000000000E+00  0.18459639898E+04  0.18459639898E+04  0.00000000000E+00 0.  1.
          2   -1    0    0  501    0  0.00000000000E+00 -0.00000000000E+00 -0.18583444096E+04  0.18583444096E+04  0.00000000000E+00 0. -1.
         24    2    1    2    0    0 -0.11992404922E+04 -0.19923978953E+03  0.12405930881E+04  0.17388087801E+04  0.80687741598E+02 0.  0.
        254    2    1    2    0    0  0.11992404922E+04  0.19923978953E+03 -0.12529735079E+04  0.19654996193E+04  0.90297945157E+03 0.  0.
         23    2    4    4    0    0 -0.63921065407E+02  0.19744421187E+03 -0.32422715715E+03  0.39518672237E+03  0.89326237491E+02 0.  0.
         23    2    4    4    0    0  0.12631615576E+04  0.17955776669E+01 -0.92874635078E+03  0.15703128969E+04  0.87934438221E+02 0.  0.
          2    1    3    3  502    0 -0.11188373371E+03 -0.18817850811E+00  0.94068063703E+02  0.14617388922E+03  0.00000000000E+00 0. -1.
         -1    1    3    3    0  502 -0.10873567585E+04 -0.19905161102E+03  0.11465250244E+04  0.15926348909E+04  0.00000000000E+00 0.  1.
         11    1    5    5    0    0 -0.51026442982E+02  0.20413543314E+03 -0.31128591294E+03  0.37573114396E+03  0.00000000000E+00 0. -1.
        -11    1    5    5    0    0 -0.12894622425E+02 -0.66912212750E+01 -0.12941244206E+02  0.19455578409E+02  0.00000000000E+00 0.  1.
          3    1    6    6  503    0  0.10293622950E+04 -0.32627414109E+02 -0.75188661160E+03  0.12751410742E+04  0.00000000000E+00 0. -1.
         -3    1    6    6    0  503  0.23379926260E+03  0.34422991776E+02 -0.17685973918E+03  0.29517182267E+03  0.00000000000E+00 0.  1.
<mgrwt>
<rscale>  0 0.37042877E+04</rscale>
<asrwt>0</asrwt>
<pdfrwt beam="1">  1        2 0.28589914E+00 0.37042877E+04</pdfrwt>
<pdfrwt beam="2">  1       -1 0.28399446E+00 0.37042877E+04</pdfrwt>
<totfact> 0.30880323E-01</totfact>
</mgrwt>
</event>
<event>
12    6  0.1611689E-007  0.1694409E+04  0.7818608E-02  0.8764560E-01
         -1   -1    0    0    0  501 -0.00000000000E+00  0.00000000000E+00  0.11105672480E+04  0.11105672480E+04  0.00000000000E+00 0.  1.
          2   -1    0    0  501    0  0.00000000000E+00 -0.00000000000E+00 -0.64629598454E+03  0.64629598454E+03  0.00000000000E+00 0. -1.
         24    2    1    2    0    0  0.11493841696E+03 -0.15269865811E+03  0.75883792233E+03  0.78649061095E+03  0.78770355274E+02 0.  0.
        254    2    1    2    0    0 -0.11493841696E+03  0.15269865811E+03 -0.29456665891E+03  0.97037262153E+03  0.90461361265E+03 0.  0.
         23    2    4    4    0    0 -0.22202790316E+03  0.24235293336E+03 -0.56096267865E+03  0.65612091190E+03  0.88228057412E+02 0.  0.
         23    2    4    4    0    0  0.10708948619E+03 -0.89654275244E+02  0.26639601973E+03  0.31425170963E+03  0.91001376658E+02 0.  0.
          4    1    3    3  502    0  0.19490906232E+02 -0.18095364405E+02  0.34316033583E+02  0.43415755200E+02  0.00000000000E+00 0. -1.
         -3    1    3    3    0  502  0.95447510732E+02 -0.13460329371E+03  0.72452188874E+03  0.74307485575E+03  0.00000000000E+00 0.  1.
         11    1    5    5    0    0 -0.29231051677E+02  0.83793909562E+02 -0.11776376466E+03  0.14745907205E+03  0.00000000000E+00 0. -1.
        -11    1    5    5    0    0 -0.19279685148E+03  0.15855902379E+03 -0.44319891398E+03  0.50866183985E+03  0.00000000000E+00 0.  1.
          1    1    6    6  503    0  0.69850736709E+02 -0.79465763623E+02  0.10788310436E+03  0.15110492120E+03  0.00000000000E+00 0. -1.
         -1    1    6    6    0  503  0.37238749485E+02 -0.10188511621E+02  0.15851291538E+03  0.16314678843E+03  0.00000000000E+00 0.  1.
<mgrwt>
<rscale>  0 0.16944086E+04</rscale>
<asrwt>0</asrwt>
<pdfrwt beam="1">  1        2 0.99430152E-01 0.16944086E+04</pdfrwt>
<pdfrwt beam="2">  1       -1 0.17085650E+00 0.16944086E+04</pdfrwt>
<totfact> 0.11940233E+01</totfact>
</mgrwt>
</event>
<event>
12    6  0.1611689E-007  0.2632618E+04  0.7818608E-02  0.8357205E-01
          2   -1    0    0  501    0  0.00000000000E+00  0.00000000000E+00  0.36551936939E+04  0.36551936939E+04  0.00000000000E+00 0. -1.
         -1   -1    0    0    0  501 -0.00000000000E+00 -0.00000000000E+00 -0.47402959335E+03  0.47402959335E+03  0.00000000000E+00 0.  1.
         24    2    1    2    0    0 -0.12942730729E+03  0.39942673160E+03  0.30952902783E+04  0.31246255764E+04  0.78548991878E+02 0.  0.
        254    2    1    2    0    0  0.12942730729E+03 -0.39942673160E+03  0.85873822306E+02  0.10045977109E+04  0.90859732862E+03 0.  0.
         23    2    4    4    0    0  0.50202028680E+02 -0.50674239518E+02 -0.38716278427E+03  0.40287143149E+03  0.85570126528E+02 0.  0.
         23    2    4    4    0    0  0.79225278610E+02 -0.34875249208E+03  0.47303660658E+03  0.60172627939E+03  0.10200950271E+03 0.  0.
          2    1    3    3  502    0 -0.63108893071E+02  0.16493082470E+03  0.15840686721E+04  0.15938815725E+04  0.00000000000E+00 0. -1.
         -1    1    3    3    0  502 -0.66318414219E+02  0.23449590690E+03  0.15112216062E+04  0.15307440039E+04  0.00000000000E+00 0.  1.
         11    1    5    5    0    0  0.20101395399E+02 -0.63113865490E+01 -0.12721413821E+02  0.24611665257E+02  0.00000000000E+00 0. -1.
        -11    1    5    5    0    0  0.30100633281E+02 -0.44362852969E+02 -0.37444137045E+03  0.37825976624E+03  0.00000000000E+00 0.  1.
          2    1    6    6  503    0  0.19044408648E+02 -0.27920348406E+03  0.36128804317E+03  0.45699707346E+03  0.00000000000E+00 0. -1.
         -2    1    6    6    0  503  0.60180869962E+02 -0.69549008024E+02  0.11174856341E+03  0.14472920593E+03  0.00000000000E+00 0.  1.
<mgrwt>
<rscale>  0 0.26326185E+04</rscale>
<asrwt>0</asrwt>
<pdfrwt beam="1">  1        2 0.56233747E+00 0.26326185E+04</pdfrwt>
<pdfrwt beam="2">  1       -1 0.72927632E-01 0.26326185E+04</pdfrwt>
<totfact> 0.11982338E+00</totfact>
</mgrwt>
</event>
<event>
12    6  0.1611689E-007  0.1427711E+04  0.7818608E-02  0.8934001E-01
         -1   -1    0    0    0  501 -0.00000000000E+00  0.00000000000E+00  0.14306570928E+04  0.14306570928E+04  0.00000000000E+00 0.  1.
          2   -1    0    0  501    0  0.00000000000E+00 -0.00000000000E+00 -0.35619253524E+03  0.35619253524E+03  0.00000000000E+00 0. -1.
         24    2    1    2    0    0  0.34334537490E+03 -0.21692990641E+03  0.17705419126E+03  0.44977847000E+03  0.77510352024E+02 0.  0.
        254    2    1    2    0    0 -0.34334537490E+03  0.21692990641E+03  0.89741036630E+03  0.13370711580E+04  0.90414008060E+03 0.  0.
         23    2    4    4    0    0 -0.37639651730E+03  0.42617929426E+03  0.94012207301E+03  0.11025730879E+04  0.92383835090E+02 0.  0.
         23    2    4    4    0    0  0.33051142393E+02 -0.20924938785E+03 -0.42711706712E+02  0.23449807010E+03  0.91034996909E+02 0.  0.
          2    1    3    3  502    0  0.11471486108E+03 -0.89366436234E+02  0.10132570794E+03  0.17723644763E+03  0.00000000000E+00 0. -1.
         -1    1    3    3    0  502  0.22863051382E+03 -0.12756347018E+03  0.75728483320E+02  0.27254202237E+03  0.00000000000E+00 0.  1.
         11    1    5    5    0    0 -0.23330746438E+03  0.19794554683E+03  0.47258653217E+03  0.56298565065E+03  0.00000000000E+00 0. -1.
        -11    1    5    5    0    0 -0.14308905292E+03  0.22823374743E+03  0.46753554084E+03  0.53958743729E+03  0.00000000000E+00 0.  1.
          2    1    6    6  503    0 -0.29334335866E+02 -0.36150096680E+02 -0.73051770388E+01  0.47124286331E+02  0.00000000000E+00 0. -1.
         -2    1    6    6    0  503  0.62385478259E+02 -0.17309929117E+03 -0.35406529673E+02  0.18737378377E+03  0.00000000000E+00 0.  1.
<mgrwt>
<rscale>  0 0.14277106E+04</rscale>
<asrwt>0</asrwt>
<pdfrwt beam="1">  1        2 0.54798852E-01 0.14277106E+04</pdfrwt>
<pdfrwt beam="2">  1       -1 0.22010109E+00 0.14277106E+04</pdfrwt>
<totfact> 0.11071062E+01</totfact>
</mgrwt>
</event>
<event>
12    6  0.1611689E-007  0.1211650E+04  0.7818608E-02  0.9102720E-01
          4   -1    0    0  501    0  0.00000000000E+00  0.00000000000E+00  0.28151499962E+03  0.28151499962E+03  0.00000000000E+00 0. -1.
         -3   -1    0    0    0  501 -0.00000000000E+00 -0.00000000000E+00 -0.13037453000E+04  0.13037453000E+04  0.00000000000E+00 0.  1.
         24    2    1    2    0    0  0.17490822977E+03  0.28571833778E+02  0.25949403767E+02  0.19777863914E+03  0.83867633890E+02 0.  0.
        254    2    1    2    0    0 -0.17490822977E+03 -0.28571833778E+02 -0.10481797041E+04  0.13874816604E+04  0.89163637624E+03 0.  0.
         23    2    4    4    0    0 -0.49392055829E+03 -0.31607223715E+02 -0.34674387162E+03  0.61125893760E+03  0.91921933136E+02 0.  0.
         23    2    4    4    0    0  0.31901232852E+03  0.30353899372E+01 -0.70143583248E+03  0.77622272284E+03  0.93442008895E+02 0.  0.
          4    1    3    3  502    0  0.67027549610E+02  0.30554598508E+02  0.47633467813E+02  0.87722421037E+02  0.00000000000E+00 0. -1.
         -3    1    3    3    0  502  0.10788068016E+03 -0.19827647301E+01 -0.21684064046E+02  0.11005621810E+03  0.00000000000E+00 0.  1.
         11    1    5    5    0    0 -0.12179119898E+03 -0.10978503394E+02 -0.40309941792E+02  0.12875758266E+03  0.00000000000E+00 0.  1.
        -11    1    5    5    0    0 -0.37212935931E+03 -0.20628720321E+02 -0.30643392983E+03  0.48250135494E+03  0.00000000000E+00 0. -1.
          1    1    6    6  503    0  0.10486343436E+03  0.21621660866E+02 -0.33159504303E+03  0.34845244819E+03  0.00000000000E+00 0.  1.
         -1    1    6    6    0  503  0.21414889416E+03 -0.18586270928E+02 -0.36984078945E+03  0.42777027465E+03  0.00000000000E+00 0. -1.
<mgrwt>
<rscale>  0 0.12116499E+04</rscale>
<asrwt>0</asrwt>
<pdfrwt beam="1">  1        4 0.43310001E-01 0.12116499E+04</pdfrwt>
<pdfrwt beam="2">  1       -3 0.20057619E+00 0.12116499E+04</pdfrwt>
<totfact> 0.17028399E+00</totfact>
</mgrwt>
</event>
<event>
12    6  0.1611689E-007  0.2143603E+04  0.7818608E-02  0.8542276E-01
         -3   -1    0    0    0  501 -0.00000000000E+00  0.00000000000E+00  0.11011023290E+04  0.11011023290E+04  0.00000000000E+00 0.  1.
          4   -1    0    0  501    0  0.00000000000E+00 -0.00000000000E+00 -0.10432801797E+04  0.10432801797E+04  0.00000000000E+00 0. -1.
         24    2    1    2    0    0 -0.38946578152E+03  0.28942509084E+03  0.76522691131E+03  0.90957855416E+03  0.79438291917E+02 0.  0.
        254    2    1    2    0    0  0.38946578152E+03 -0.28942509084E+03 -0.70740476207E+03  0.12348039546E+04  0.88818288129E+03 0.  0.
         23    2    4    4    0    0  0.16667901200E+03 -0.54473705894E+03 -0.18515811673E+03  0.60580356354E+03  0.90521119015E+02 0.  0.
         23    2    4    4    0    0  0.22278676952E+03  0.25531196809E+03 -0.52224664535E+03  0.62900039103E+03  0.89898763132E+02 0.  0.
          4    1    3    3  502    0 -0.50049130885E+02  0.18132793171E+02  0.12459619247E+03  0.13549141991E+03  0.00000000000E+00 0. -1.
         -3    1    3    3    0  502 -0.33941665063E+03  0.27129229767E+03  0.64063071884E+03  0.77408713426E+03  0.00000000000E+00 0.  1.
         11    1    5    5    0    0  0.12041702100E+03 -0.46584780608E+03 -0.18157566132E+03  0.51428023311E+03  0.00000000000E+00 0. -1.
        -11    1    5    5    0    0  0.46261990998E+02 -0.78889252854E+02 -0.35824554042E+01  0.91523330434E+02  0.00000000000E+00 0.  1.
          3    1    6    6  503    0  0.18436485310E+03  0.14834755624E+03 -0.34093968657E+03  0.41501477850E+03  0.00000000000E+00 0. -1.
         -3    1    6    6    0  503  0.38421916415E+02  0.10696441185E+03 -0.18130695878E+03  0.21398561252E+03  0.00000000000E+00 0.  1.
<mgrwt>
<rscale>  0 0.21436028E+04</rscale>
<asrwt>0</asrwt>
<pdfrwt beam="1">  1        4 0.16050464E+00 0.21436028E+04</pdfrwt>
<pdfrwt beam="2">  1       -3 0.16940036E+00 0.21436028E+04</pdfrwt>
<totfact> 0.12147620E-01</totfact>
</mgrwt>
</event>
<event>
12    6  0.1611689E-007  0.2114151E+04  0.7818608E-02  0.8555035E-01
         -1   -1    0    0    0  501 -0.00000000000E+00  0.00000000000E+00  0.91553990483E+03  0.91553990483E+03  0.00000000000E+00 0.  1.
          2   -1    0    0  501    0  0.00000000000E+00 -0.00000000000E+00 -0.12204919200E+04  0.12204919200E+04  0.00000000000E+00 0. -1.
         24    2    1    2    0    0  0.14669948186E+03  0.85040357616E+03 -0.18684527447E+03  0.88658743451E+03  0.80119548896E+02 0.  0.
        254    2    1    2    0    0 -0.14669948186E+03 -0.85040357616E+03 -0.11810674066E+03  0.12494443903E+04  0.89579858332E+03 0.  0.
         23    2    4    4    0    0 -0.49513163621E+02  0.16710271618E+03  0.65793586019E+02  0.20696912276E+03  0.90180655832E+02 0.  0.
         23    2    4    4    0    0 -0.97186318243E+02 -0.10175062923E+04 -0.18390032668E+03  0.10424752675E+04  0.90394235485E+02 0.  0.
          2    1    3    3  502    0  0.13861668022E+03  0.76434386405E+03 -0.19134944899E+03  0.80003171073E+03  0.00000000000E+00 0. -1.
         -1    1    3    3    0  502  0.80828016442E+01  0.86059712110E+02  0.45041745206E+01  0.86555723780E+02  0.00000000000E+00 0.  1.
         11    1    5    5    0    0 -0.17672211694E+02 -0.46665083577E+01  0.18452715203E+02  0.25972794704E+02  0.00000000000E+00 0.  1.
        -11    1    5    5    0    0 -0.31840951927E+02  0.17176922454E+03  0.47340870816E+02  0.18099632805E+03  0.00000000000E+00 0. -1.
          1    1    6    6  503    0 -0.82073995398E+02 -0.60422673046E+03 -0.71748128236E+02  0.61398198380E+03  0.00000000000E+00 0. -1.
         -1    1    6    6    0  503 -0.15112322846E+02 -0.41327956189E+03 -0.11215219844E+03  0.42849328372E+03  0.00000000000E+00 0.  1.
<mgrwt>
<rscale>  0 0.21141514E+04</rscale>
<asrwt>0</asrwt>
<pdfrwt beam="1">  1        2 0.18776799E+00 0.21141514E+04</pdfrwt>
<pdfrwt beam="2">  1       -1 0.14085229E+00 0.21141514E+04</pdfrwt>
<totfact> 0.79724704E+00</totfact>
</mgrwt>
</event>
<event>
12    6  0.1611689E-007  0.2061007E+04  0.7818608E-02  0.8578617E-01
         -1   -1    0    0    0  501 -0.00000000000E+00  0.00000000000E+00  0.64917910555E+03  0.64917910555E+03  0.00000000000E+00 0.  1.
          2   -1    0    0  501    0  0.00000000000E+00 -0.00000000000E+00 -0.16358160273E+04  0.16358160273E+04  0.00000000000E+00 0. -1.
         24    2    1    2    0    0 -0.84032350806E+02 -0.48568078828E+03  0.34303168184E+03  0.60608475553E+03  0.81980071077E+02 0.  0.
        254    2    1    2    0    0  0.84032350806E+02  0.48568078828E+03 -0.13296686036E+04  0.16789103773E+04  0.89876259134E+03 0.  0.
         23    2    4    4    0    0 -0.25967060428E+03  0.55897015195E+03 -0.60332626067E+03  0.86697792447E+03  0.88157196043E+02 0.  0.
         23    2    4    4    0    0  0.34370295509E+03 -0.73289363667E+02 -0.72634234291E+03  0.81193245283E+03  0.90321961349E+02 0.  0.
          4    1    3    3  502    0 -0.57170830600E+02 -0.22512853682E+03  0.20604598896E+03  0.31049365779E+03  0.00000000000E+00 0. -1.
         -3    1    3    3    0  502 -0.26861520206E+02 -0.26055225146E+03  0.13698569288E+03  0.29559109774E+03  0.00000000000E+00 0.  1.
         11    1    5    5    0    0  0.14992559635E+01  0.50772089513E+02 -0.58548494871E+02  0.77511154640E+02  0.00000000000E+00 0. -1.
        -11    1    5    5    0    0 -0.26116986024E+03  0.50819806244E+03 -0.54477776580E+03  0.78946676983E+03  0.00000000000E+00 0.  1.
          4    1    6    6  503    0  0.24164010122E+02  0.83853665191E+00 -0.12134642615E+03  0.12373179732E+03  0.00000000000E+00 0. -1.
         -4    1    6    6    0  503  0.31953894496E+03 -0.74127900319E+02 -0.60499591675E+03  0.68820065551E+03  0.00000000000E+00 0.  1.
<mgrwt>
<rscale>  0 0.20610071E+04</rscale>
<asrwt>0</asrwt>
<pdfrwt beam="1">  1        2 0.25166400E+00 0.20610071E+04</pdfrwt>
<pdfrwt beam="2">  1       -1 0.99873708E-01 0.20610071E+04</pdfrwt>
<totfact> 0.10718948E+01</totfact>
</mgrwt>
</event>
<event>
12    6  0.1611689E-007  0.2569782E+04  0.7818608E-02  0.8378539E-01
          2   -1    0    0  501    0  0.00000000000E+00  0.00000000000E+00  0.32248405049E+04  0.32248405049E+04  0.00000000000E+00 0. -1.
         -1   -1    0    0    0  501 -0.00000000000E+00 -0.00000000000E+00 -0.51194601369E+03  0.51194601369E+03  0.00000000000E+00 0.  1.
         24    2    1    2    0    0  0.18837614055E+03  0.83116975159E+03  0.12122343602E+03  0.86456993062E+03  0.80357434072E+02 0.  0.
        254    2    1    2    0    0 -0.18837614055E+03 -0.83116975159E+03  0.25916710552E+04  0.28722165880E+04  0.89807602330E+03 0.  0.
         23    2    4    4    0    0  0.22217344108E+03 -0.42657528793E+03  0.19246695479E+04  0.19859727465E+04  0.91691696296E+02 0.  0.
         23    2    4    4    0    0 -0.41054958163E+03 -0.40459446367E+03  0.66700150734E+03  0.88624384149E+03  0.91046673627E+02 0.  0.
          4    1    3    3  502    0  0.28324078947E+01  0.72998005154E+02 -0.76682724875E+01  0.73454296634E+02  0.00000000000E+00 0. -1.
         -3    1    3    3    0  502  0.18554373265E+03  0.75817174644E+03  0.12889170851E+03  0.79111563399E+03  0.00000000000E+00 0.  1.
         11    1    5    5    0    0 -0.64654898738E+01 -0.18860303048E+02  0.48293887941E+02  0.52247614327E+02  0.00000000000E+00 0. -1.
        -11    1    5    5    0    0  0.22863893095E+03 -0.40771498488E+03  0.18763756599E+04  0.19337251322E+04  0.00000000000E+00 0.  1.
          1    1    6    6  503    0 -0.11619990011E+03 -0.17091496750E+03  0.26245177550E+03  0.33405879327E+03  0.00000000000E+00 0. -1.
         -1    1    6    6    0  503 -0.29434968152E+03 -0.23367949616E+03  0.40454973184E+03  0.55218504821E+03  0.00000000000E+00 0.  1.
<mgrwt>
<rscale>  0 0.25697815E+04</rscale>
<asrwt>0</asrwt>
<pdfrwt beam="1">  1        2 0.49612930E+00 0.25697815E+04</pdfrwt>
<pdfrwt beam="2">  1       -1 0.78760927E-01 0.25697815E+04</pdfrwt>
<totfact> 0.20315953E+00</totfact>
</mgrwt>
</event>
<event>
12    6  0.1611689E-007  0.1393356E+04  0.7818608E-02  0.8958642E-01
         -1   -1    0    0    0  501 -0.00000000000E+00  0.00000000000E+00  0.11775472722E+03  0.11775472722E+03  0.00000000000E+00 0.  1.
          2   -1    0    0  501    0  0.00000000000E+00 -0.00000000000E+00 -0.41217923141E+04  0.41217923141E+04  0.00000000000E+00 0. -1.
         24    2    1    2    0    0 -0.32059800577E+03 -0.22686552660E+03 -0.93477177146E+03  0.10182671877E+04  0.93908212941E+02 0.  0.
        254    2    1    2    0    0  0.32059800577E+03  0.22686552660E+03 -0.30692658155E+04  0.32212798536E+04  0.89554463927E+03 0.  0.
         23    2    4    4    0    0  0.45579797245E+03 -0.10969697847E+03 -0.89029954465E+03  0.10104861981E+04  0.93079850521E+02 0.  0.
         23    2    4    4    0    0 -0.13519996668E+03  0.33656250508E+03 -0.21789662708E+04  0.22107936555E+04  0.90339510471E+02 0.  0.
          2    1    3    3  502    0 -0.10508996075E+03 -0.10965800796E+03 -0.27172132660E+03  0.31128966878E+03  0.00000000000E+00 0. -1.
         -1    1    3    3    0  502 -0.21550804502E+03 -0.11720751865E+03 -0.66305044486E+03  0.70697751896E+03  0.00000000000E+00 0.  1.
         11    1    5    5    0    0  0.18318228997E+03 -0.78832169367E+02 -0.31011265485E+03  0.36870058446E+03  0.00000000000E+00 0.  1.
        -11    1    5    5    0    0  0.27261568247E+03 -0.30864809106E+02 -0.58018688980E+03  0.64178561364E+03  0.00000000000E+00 0. -1.
          2    1    6    6  503    0 -0.47660957595E+02  0.21924219123E+03 -0.14525567331E+04  0.14697822179E+04  0.00000000000E+00 0. -1.
         -2    1    6    6    0  503 -0.87539009084E+02  0.11732031384E+03 -0.72640953772E+03  0.74101143759E+03  0.00000000000E+00 0.  1.
<mgrwt>
<rscale>  0 0.13933564E+04</rscale>
<asrwt>0</asrwt>
<pdfrwt beam="1">  1        2 0.63412187E+00 0.13933564E+04</pdfrwt>
<pdfrwt beam="2">  1       -1 0.18116113E-01 0.13933564E+04</pdfrwt>
<totfact> 0.74912857E+00</totfact>
</mgrwt>
</event>
<event>
12    6  0.1611689E-007  0.1496482E+04  0.7818608E-02  0.8886796E-01
          2   -1    0    0  501    0  0.00000000000E+00  0.00000000000E+00  0.72161638528E+03  0.72161638528E+03  0.00000000000E+00 0. -1.
         -1   -1    0    0    0  501 -0.00000000000E+00 -0.00000000000E+00 -0.77584810457E+03  0.77584810457E+03  0.00000000000E+00 0.  1.
         24    2    1    2    0    0  0.22960461650E+03  0.38756857951E+03  0.11470513514E+03  0.47166704574E+03  0.79905258067E+02 0.  0.
        254    2    1    2    0    0 -0.22960461650E+03 -0.38756857951E+03 -0.16893685443E+03  0.10257974441E+04  0.90597629759E+03 0.  0.
         23    2    4    4    0    0 -0.34142632187E+03  0.71551231942E+02  0.20690857650E+03  0.41531889402E+03  0.89370647512E+02 0.  0.
         23    2    4    4    0    0  0.11182170537E+03 -0.45911981146E+03 -0.37584543093E+03  0.61047855008E+03  0.90161949252E+02 0.  0.
          4    1    3    3  502    0  0.22968319375E+03  0.38235693280E+03  0.12225704376E+03  0.46249105754E+03  0.00000000000E+00 0. -1.
         -3    1    3    3    0  502 -0.78577250099E-01  0.52116467106E+01 -0.75519086141E+01  0.91759882048E+01  0.00000000000E+00 0.  1.
         11    1    5    5    0    0 -0.15464117737E+03  0.41831241060E+02  0.45134587436E+02  0.16643580579E+03  0.00000000000E+00 0.  1.
        -11    1    5    5    0    0 -0.18678514450E+03  0.29719990882E+02  0.16177398907E+03  0.24888308822E+03  0.00000000000E+00 0. -1.
          2    1    6    6  503    0  0.78506143124E+01 -0.55503754290E+02 -0.86577695943E+02  0.10314066279E+03  0.00000000000E+00 0. -1.
         -2    1    6    6    0  503  0.10397109106E+03 -0.40361605717E+03 -0.28926773499E+03  0.50733788730E+03  0.00000000000E+00 0.  1.
<mgrwt>
<rscale>  0 0.14964821E+04</rscale>
<asrwt>0</asrwt>
<pdfrwt beam="1">  1        2 0.11101791E+00 0.14964821E+04</pdfrwt>
<pdfrwt beam="2">  1       -1 0.11936125E+00 0.14964821E+04</pdfrwt>
<totfact> 0.27295284E+01</totfact>
</mgrwt>
</event>
<event>
12    6  0.1611689E-007  0.1539150E+04  0.7818608E-02  0.8858828E-01
          2   -1    0    0  501    0  0.00000000000E+00  0.00000000000E+00  0.30638573609E+04  0.30638573609E+04  0.00000000000E+00 0. -1.
         -1   -1    0    0    0  501 -0.00000000000E+00 -0.00000000000E+00 -0.19330071047E+03  0.19330071047E+03  0.00000000000E+00 0.  1.
         24    2    1    2    0    0 -0.62917220524E+02  0.42516653855E+03  0.39702814318E+03  0.59049489518E+03  0.79546920803E+02 0.  0.
        254    2    1    2    0    0  0.62917220524E+02 -0.42516653855E+03  0.24735285073E+04  0.26666631762E+04  0.89890158361E+03 0.  0.
         23    2    4    4    0    0 -0.38222032064E+03 -0.36548975938E+03  0.13020118943E+04  0.14083776360E+04  0.92830247695E+02 0.  0.
         23    2    4    4    0    0  0.44513754117E+03 -0.59676779167E+02  0.11715166129E+04  0.12582855402E+04  0.95512186716E+02 0.  0.
          4    1    3    3  502    0 -0.19139775998E+01  0.25197073373E+02  0.25137319822E+01  0.25394382554E+02  0.00000000000E+00 0. -1.
         -3    1    3    3    0  502 -0.61003242924E+02  0.39996946518E+03  0.39451441120E+03  0.56510051262E+03  0.00000000000E+00 0.  1.
         11    1    5    5    0    0  0.38482195791E+01 -0.79655065635E+01  0.10141153905E+02  0.13457380550E+02  0.00000000000E+00 0. -1.
        -11    1    5    5    0    0 -0.38606854022E+03 -0.35752425282E+03  0.12918707404E+04  0.13949202555E+04  0.00000000000E+00 0.  1.
          1    1    6    6  503    0  0.27931693076E+03 -0.53831191925E+02  0.61576349871E+03  0.67829229052E+03  0.00000000000E+00 0. -1.
         -1    1    6    6    0  503  0.16582061040E+03 -0.58455872421E+01  0.55575311422E+03  0.57999324970E+03  0.00000000000E+00 0.  1.
<mgrwt>
<rscale>  0 0.15391502E+04</rscale>
<asrwt>0</asrwt>
<pdfrwt beam="1">  1        2 0.47136264E+00 0.15391502E+04</pdfrwt>
<pdfrwt beam="2">  1       -1 0.29738573E-01 0.15391502E+04</pdfrwt>
<totfact> 0.18172361E+01</totfact>
</mgrwt>
</event>
<event>
12    6  0.1611689E-007  0.1579483E+04  0.7818608E-02  0.8833252E-01
         -1   -1    0    0    0  501 -0.00000000000E+00  0.00000000000E+00  0.39607066410E+03  0.39607066410E+03  0.00000000000E+00 0.  1.
          2   -1    0    0  501    0  0.00000000000E+00 -0.00000000000E+00 -0.15746980606E+04  0.15746980606E+04  0.00000000000E+00 0. -1.
         24    2    1    2    0    0 -0.45882870126E+03  0.22327973154E+03 -0.21914238451E+03  0.56046997836E+03  0.75667670340E+02 0.  0.
        254    2    1    2    0    0  0.45882870126E+03 -0.22327973154E+03 -0.95948501203E+03  0.14102987464E+04  0.89886230878E+03 0.  0.
         23    2    4    4    0    0 -0.19786722318E+03 -0.13952717260E+03 -0.22743189236E+02  0.25970409685E+03  0.91157530466E+02 0.  0.
         23    2    4    4    0    0  0.65669592444E+03 -0.83752558936E+02 -0.93674182280E+03  0.11505946495E+04  0.90104254399E+02 0.  0.
          4    1    3    3  502    0 -0.10226150938E+03  0.31794176274E+02 -0.75402307456E+02  0.13097249297E+03  0.00000000000E+00 0. -1.
         -3    1    3    3    0  502 -0.35656719188E+03  0.19148555527E+03 -0.14374007705E+03  0.42949748539E+03  0.00000000000E+00 0.  1.
         11    1    5    5    0    0 -0.37282746531E+02 -0.65213052942E+02 -0.33885619975E+02  0.82407406852E+02  0.00000000000E+00 0. -1.
        -11    1    5    5    0    0 -0.16058447665E+03 -0.74314119663E+02  0.11142430739E+02  0.17729669000E+03  0.00000000000E+00 0.  1.
          3    1    6    6  503    0  0.50405474083E+03 -0.60989769372E+02 -0.64826876206E+03  0.82343385987E+03  0.00000000000E+00 0. -1.
         -3    1    6    6    0  503  0.15264118361E+03 -0.22762789565E+02 -0.28847306074E+03  0.32716078966E+03  0.00000000000E+00 0.  1.
<mgrwt>
<rscale>  0 0.15794831E+04</rscale>
<asrwt>0</asrwt>
<pdfrwt beam="1">  1        2 0.24226124E+00 0.15794831E+04</pdfrwt>
<pdfrwt beam="2">  1       -1 0.60933949E-01 0.15794831E+04</pdfrwt>
<totfact> 0.34438005E+01</totfact>
</mgrwt>
</event>
<event>
12    6  0.1611689E-007  0.2523073E+04  0.7818608E-02  0.8394811E-01
          2   -1    0    0  501    0  0.00000000000E+00  0.00000000000E+00  0.19062619452E+04  0.19062619452E+04  0.00000000000E+00 0. -1.
         -1   -1    0    0    0  501 -0.00000000000E+00 -0.00000000000E+00 -0.83486670802E+03  0.83486670802E+03  0.00000000000E+00 0.  1.
         24    2    1    2    0    0  0.24618519392E+02 -0.18482766859E+03  0.16542494539E+04  0.16666369254E+04  0.79812572912E+02 0.  0.
        254    2    1    2    0    0 -0.24618519392E+02  0.18482766859E+03 -0.58285421672E+03  0.10744917278E+04  0.88320218334E+03 0.  0.
         23    2    4    4    0    0  0.79808206286E+02  0.50708231379E+03 -0.47962949031E+03  0.70903546983E+03  0.95838545206E+02 0.  0.
         23    2    4    4    0    0 -0.10442672568E+03 -0.32225464520E+03 -0.10322472641E+03  0.36545625800E+03  0.90276990331E+02 0.  0.
          2    1    3    3  502    0  0.28771550913E+02 -0.12442780736E+03  0.78872599900E+03  0.79899861257E+03  0.00000000000E+00 0. -1.
         -1    1    3    3    0  502 -0.41530315212E+01 -0.60399861228E+02  0.86552345486E+03  0.86763831279E+03  0.00000000000E+00 0.  1.
         11    1    5    5    0    0  0.52029875431E+02  0.27641159971E+03 -0.19815447294E+03  0.34405766310E+03  0.00000000000E+00 0.  1.
        -11    1    5    5    0    0  0.27778330855E+02  0.23067071408E+03 -0.28147501737E+03  0.36497780672E+03  0.00000000000E+00 0. -1.
          2    1    6    6  503    0 -0.95593385566E+02 -0.15120596890E+03 -0.43906124707E+02  0.18419850211E+03  0.00000000000E+00 0. -1.
         -2    1    6    6    0  503 -0.88333401123E+01 -0.17104867630E+03 -0.59318601701E+02  0.18125775589E+03  0.00000000000E+00 0.  1.
<mgrwt>
<rscale>  0 0.25230732E+04</rscale>
<asrwt>0</asrwt>
<pdfrwt beam="1">  1        2 0.29327107E+00 0.25230732E+04</pdfrwt>
<pdfrwt beam="2">  1       -1 0.12844103E+00 0.25230732E+04</pdfrwt>
<totfact> 0.39897472E+00</totfact>
</mgrwt>
</event>
<event>
12    6  0.1611689E-007  0.1993936E+04  0.7818608E-02  0.8609461E-01
         -1   -1    0    0    0  501 -0.00000000000E+00  0.00000000000E+00  0.47586857877E+03  0.47586857877E+03  0.00000000000E+00 0.  1.
          2   -1    0    0  501    0  0.00000000000E+00 -0.00000000000E+00 -0.20886963087E+04  0.20886963087E+04  0.00000000000E+00 0. -1.
         24    2    1    2    0    0 -0.27840431050E+03  0.56246877713E+03 -0.19182103605E+02  0.63298147561E+03  0.80109362866E+02 0.  0.
        254    2    1    2    0    0  0.27840431050E+03 -0.56246877713E+03 -0.15936456263E+04  0.19315834119E+04  0.89298824704E+03 0.  0.
         23    2    4    4    0    0  0.28723851884E+03 -0.67594187324E+03 -0.16226611143E+04  0.17834257603E+04  0.90415530001E+02 0.  0.
         23    2    4    4    0    0 -0.88342083388E+01  0.11347309611E+03  0.29015487931E+02  0.14815765157E+03  0.90302848241E+02 0.  0.
          4    1    3    3  502    0 -0.21322548062E+03  0.37265579419E+03 -0.40041145811E+02  0.43120846453E+03  0.00000000000E+00 0. -1.
         -1    1    3    3    0  502 -0.65178829877E+02  0.18981298294E+03  0.20859042206E+02  0.20177301108E+03  0.00000000000E+00 0.  1.
         11    1    5    5    0    0 -0.43589165801E+01 -0.12884849049E+01 -0.16054106999E+02  0.16685164028E+02  0.00000000000E+00 0. -1.
        -11    1    5    5    0    0  0.29159743542E+03 -0.67465338834E+03 -0.16066070073E+04  0.17667405963E+04  0.00000000000E+00 0.  1.
          4    1    6    6  503    0  0.29721966207E+02  0.37071045315E+02 -0.17643749300E+02  0.50684904709E+02  0.00000000000E+00 0. -1.
         -4    1    6    6    0  503 -0.38556174546E+02  0.76402050797E+02  0.46659237231E+02  0.97472746861E+02  0.00000000000E+00 0.  1.
<mgrwt>
<rscale>  0 0.19939358E+04</rscale>
<asrwt>0</asrwt>
<pdfrwt beam="1">  1        2 0.32133790E+00 0.19939358E+04</pdfrwt>
<pdfrwt beam="2">  1       -1 0.73210549E-01 0.19939358E+04</pdfrwt>
<totfact> 0.11863688E+01</totfact>
</mgrwt>
</event>
<event>
12    6  0.1611689E-007  0.1338324E+04  0.7818608E-02  0.8999714E-01
          2   -1    0    0  501    0  0.00000000000E+00  0.00000000000E+00  0.10351482756E+04  0.10351482756E+04  0.00000000000E+00 0. -1.
         -1   -1    0    0    0  501 -0.00000000000E+00 -0.00000000000E+00 -0.43257373305E+03  0.43257373305E+03  0.00000000000E+00 0.  1.
         24    2    1    2    0    0  0.16642056235E+03 -0.21695056013E+03 -0.88487902341E+02  0.29799447855E+03  0.78786110904E+02 0.  0.
        254    2    1    2    0    0 -0.16642056235E+03  0.21695056013E+03  0.69106244494E+03  0.11697275301E+04  0.90328945685E+03 0.  0.
         23    2    4    4    0    0  0.20479026169E+03 -0.20305279055E+03  0.38638252318E+02  0.30493840675E+03  0.91241604187E+02 0.  0.
         23    2    4    4    0    0 -0.37121082405E+03  0.42000335069E+03  0.65242419262E+03  0.86478912339E+03  0.89457310164E+02 0.  0.
          2    1    3    3  502    0  0.15155542955E+03 -0.16037818905E+03 -0.45236567396E+02  0.22524777198E+03  0.00000000000E+00 0. -1.
         -1    1    3    3    0  502  0.14865132796E+02 -0.56572371084E+02 -0.43251334946E+02  0.72746706576E+02  0.00000000000E+00 0.  1.
         11    1    5    5    0    0  0.18017024263E+03 -0.15243223789E+03 -0.11520312128E+01  0.23600472592E+03  0.00000000000E+00 0. -1.
        -11    1    5    5    0    0  0.24620019064E+02 -0.50620552661E+02  0.39790283530E+02  0.68933680837E+02  0.00000000000E+00 0.  1.
          1    1    6    6  503    0 -0.30931406739E+03  0.29820796900E+03  0.46865768172E+03  0.63580123285E+03  0.00000000000E+00 0. -1.
         -1    1    6    6    0  503 -0.61896756654E+02  0.12179538169E+03  0.18376651090E+03  0.22898789054E+03  0.00000000000E+00 0.  1.
<mgrwt>
<rscale>  0 0.13383243E+04</rscale>
<asrwt>0</asrwt>
<pdfrwt beam="1">  1        2 0.15925358E+00 0.13383243E+04</pdfrwt>
<pdfrwt beam="2">  1       -1 0.66549805E-01 0.13383243E+04</pdfrwt>
<totfact> 0.61031994E+01</totfact>
</mgrwt>
</event>
<event>
12    6  0.1611689E-007  0.1954847E+04  0.7818608E-02  0.8628027E-01
         -1   -1    0    0    0  501 -0.00000000000E+00  0.00000000000E+00  0.93942840301E+03  0.93942840301E+03  0.00000000000E+00 0.  1.
          2   -1    0    0  501    0  0.00000000000E+00 -0.00000000000E+00 -0.10169552890E+04  0.10169552890E+04  0.00000000000E+00 0. -1.
         24    2    1    2    0    0 -0.70027888750E+03  0.53154515697E+02 -0.35585161751E+03  0.79131733212E+03  0.79604168324E+02 0.  0.
        254    2    1    2    0    0  0.70027888750E+03 -0.53154515697E+02  0.27832473155E+03  0.11650663599E+04  0.88696056501E+03 0.  0.
         23    2    4    4    0    0 -0.12654992476E+03 -0.22820795728E+03  0.11973557522E+03  0.30131852079E+03  0.91446638960E+02 0.  0.
         23    2    4    4    0    0  0.82682881225E+03  0.17505344159E+03  0.15858915633E+03  0.86374783907E+03  0.81364714767E+02 0.  0.
          2    1    3    3  502    0 -0.68212689415E+03  0.38507550998E+02 -0.34019263889E+03  0.76322405804E+03  0.00000000000E+00 0. -1.
         -1    1    3    3    0  502 -0.18151993341E+02  0.14646964699E+02 -0.15658978614E+02  0.28093274078E+02  0.00000000000E+00 0.  1.
         11    1    5    5    0    0 -0.28260015098E+02 -0.40213630312E+02  0.66339275258E+02  0.82563090773E+02  0.00000000000E+00 0. -1.
        -11    1    5    5    0    0 -0.98289909661E+02 -0.18799432697E+03  0.53396299961E+02  0.21875543002E+03  0.00000000000E+00 0.  1.
          2    1    6    6  503    0  0.51220942780E+03  0.67907375974E+02  0.98456087554E+02  0.52598812801E+03  0.00000000000E+00 0. -1.
         -2    1    6    6    0  503  0.31461938446E+03  0.10714606561E+03  0.60133068774E+02  0.33775971106E+03  0.00000000000E+00 0.  1.
<mgrwt>
<rscale>  0 0.19548470E+04</rscale>
<asrwt>0</asrwt>
<pdfrwt beam="1">  1        2 0.15645466E+00 0.19548470E+04</pdfrwt>
<pdfrwt beam="2">  1       -1 0.14452745E+00 0.19548470E+04</pdfrwt>
<totfact> 0.10071188E+01</totfact>
</mgrwt>
</event>
<event>
12    6  0.1611689E-007  0.1545470E+04  0.7818608E-02  0.8854767E-01
          2   -1    0    0  501    0  0.00000000000E+00  0.00000000000E+00  0.16855766746E+04  0.16855766746E+04  0.00000000000E+00 0. -1.
         -1   -1    0    0    0  501 -0.00000000000E+00 -0.00000000000E+00 -0.35425213388E+03  0.35425213388E+03  0.00000000000E+00 0.  1.
         24    2    1    2    0    0 -0.20599331931E+03  0.21750003784E+03  0.98729226732E+03  0.10348496318E+04  0.80176214219E+02 0.  0.
        254    2    1    2    0    0  0.20599331931E+03 -0.21750003784E+03  0.34403227339E+03  0.10049791766E+04  0.89548055606E+03 0.  0.
         23    2    4    4    0    0 -0.17654891941E+03 -0.44617011912E+03  0.16335126224E+03  0.51506878571E+03  0.91514605353E+02 0.  0.
         23    2    4    4    0    0  0.38254223872E+03  0.22867008128E+03  0.18068101115E+03  0.48991039093E+03  0.93477231878E+02 0.  0.
          2    1    3    3  502    0 -0.17085889497E+03  0.12699669336E+03  0.69223480324E+03  0.72423058823E+03  0.00000000000E+00 0. -1.
         -1    1    3    3    0  502 -0.35134424340E+02  0.90503344480E+02  0.29505746408E+03  0.31061904359E+03  0.00000000000E+00 0.  1.
         11    1    5    5    0    0  0.30168138616E+01 -0.38027105643E+02 -0.49498714734E+01  0.38466389967E+02  0.00000000000E+00 0. -1.
        -11    1    5    5    0    0 -0.17956573327E+03 -0.40814301348E+03  0.16830113371E+03  0.47660239574E+03  0.00000000000E+00 0.  1.
          2    1    6    6  503    0  0.50498969356E+02  0.93020016507E+01 -0.33458966790E+01  0.51457440330E+02  0.00000000000E+00 0. -1.
         -2    1    6    6    0  503  0.33204326936E+03  0.21936807963E+03  0.18402690783E+03  0.43845295060E+03  0.00000000000E+00 0.  1.
<mgrwt>
<rscale>  0 0.15454697E+04</rscale>
<asrwt>0</asrwt>
<pdfrwt beam="1">  1        2 0.25931948E+00 0.15454697E+04</pdfrwt>
<pdfrwt beam="2">  1       -1 0.54500329E-01 0.15454697E+04</pdfrwt>
<totfact> 0.37267235E+01</totfact>
</mgrwt>
</event>
<event>
12    6  0.1611689E-007  0.2682356E+04  0.7818608E-02  0.8340753E-01
         -1   -1    0    0    0  501 -0.00000000000E+00  0.00000000000E+00  0.84869487466E+03  0.84869487466E+03  0.00000000000E+00 0.  1.
          2   -1    0    0  501    0  0.00000000000E+00 -0.00000000000E+00 -0.21194402862E+04  0.21194402862E+04  0.00000000000E+00 0. -1.
         24    2    1    2    0    0  0.50717193948E+03 -0.14920128975E+03 -0.17453971463E+04  0.18254138606E+04  0.78994701288E+02 0.  0.
        254    2    1    2    0    0 -0.50717193948E+03  0.14920128975E+03  0.47465173482E+03  0.11427213003E+04  0.89500463669E+03 0.  0.
         23    2    4    4    0    0 -0.60866610463E+02 -0.10559901604E+03  0.58895149970E+03  0.60839471507E+03  0.91784333399E+02 0.  0.
         23    2    4    4    0    0 -0.44630532901E+03  0.25480030579E+03 -0.11429976489E+03  0.53432658522E+03  0.91262373858E+02 0.  0.
          4    1    3    3  502    0  0.40262950053E+03 -0.14129217030E+03 -0.13182792533E+04  0.13856168957E+04  0.00000000000E+00 0. -1.
         -3    1    3    3    0  502  0.10454243895E+03 -0.79091194458E+01 -0.42711789304E+03  0.43979696482E+03  0.00000000000E+00 0.  1.
         11    1    5    5    0    0 -0.52981098914E+02 -0.68787923745E+02  0.20536612841E+03  0.22296641449E+03  0.00000000000E+00 0. -1.
        -11    1    5    5    0    0 -0.78855115492E+01 -0.36811092296E+02  0.38358537130E+03  0.38542830057E+03  0.00000000000E+00 0.  1.
          4    1    6    6  503    0 -0.38875844187E+03  0.23708941471E+03 -0.12712862021E+03  0.47276442629E+03  0.00000000000E+00 0.  1.
         -4    1    6    6    0  503 -0.57546887141E+02  0.17710891078E+02  0.12828855320E+02  0.61562158922E+02  0.00000000000E+00 0. -1.
<mgrwt>
<rscale>  0 0.26823558E+04</rscale>
<asrwt>0</asrwt>
<pdfrwt beam="1">  1        2 0.32606773E+00 0.26823558E+04</pdfrwt>
<pdfrwt beam="2">  1       -1 0.13056844E+00 0.26823558E+04</pdfrwt>
<totfact> 0.28721856E+00</totfact>
</mgrwt>
</event>
<event>
12    6  0.1611689E-007  0.1221269E+04  0.7818608E-02  0.9094441E-01
         -1   -1    0    0    0  501 -0.00000000000E+00  0.00000000000E+00  0.13452131964E+03  0.13452131964E+03  0.00000000000E+00 0.  1.
          2   -1    0    0  501    0  0.00000000000E+00 -0.00000000000E+00 -0.27718619682E+04  0.27718619682E+04  0.00000000000E+00 0. -1.
         24    2    1    2    0    0  0.89244385979E+02 -0.19768789012E+03 -0.95689261222E+03  0.98445353279E+03  0.80375522146E+02 0.  0.
        254    2    1    2    0    0 -0.89244385979E+02  0.19768789012E+03 -0.16804480364E+04  0.19219297551E+04  0.90711813904E+03 0.  0.
         23    2    4    4    0    0  0.13423822024E+03 -0.36246820501E+02 -0.15530133354E+04  0.15618082642E+04  0.89782528784E+02 0.  0.
         23    2    4    4    0    0 -0.22348260621E+03  0.23393471062E+03 -0.12743470099E+03  0.36012149088E+03  0.93690773617E+02 0.  0.
          4    1    3    3  502    0  0.73761396982E+02 -0.12849622090E+03 -0.48082287893E+03  0.50313284863E+03  0.00000000000E+00 0. -1.
         -3    1    3    3    0  502  0.15482988997E+02 -0.69191669228E+02 -0.47606973329E+03  0.48132068416E+03  0.00000000000E+00 0.  1.
         11    1    5    5    0    0 -0.10227972846E+02 -0.72598148282E+01 -0.28269212650E+03  0.28297023646E+03  0.00000000000E+00 0. -1.
        -11    1    5    5    0    0  0.14446619308E+03 -0.28987005673E+02 -0.12703212089E+04  0.12788380277E+04  0.00000000000E+00 0.  1.
          4    1    6    6  503    0 -0.99129454452E+02  0.43860136679E+02 -0.56029972567E+02  0.12202343281E+03  0.00000000000E+00 0. -1.
         -4    1    6    6    0  503 -0.12435315176E+03  0.19007457394E+03 -0.71404728420E+02  0.23809805806E+03  0.00000000000E+00 0.  1.
<mgrwt>
<rscale>  0 0.12212691E+04</rscale>
<asrwt>0</asrwt>
<pdfrwt beam="1">  1        2 0.42644028E+00 0.12212691E+04</pdfrwt>
<pdfrwt beam="2">  1       -1 0.20695589E-01 0.12212691E+04</pdfrwt>
<totfact> 0.52641143E+01</totfact>
</mgrwt>
</event>
<event>
12    6  0.1611689E-007  0.2136512E+04  0.7818608E-02  0.8545328E-01
          2   -1    0    0  501    0  0.00000000000E+00  0.00000000000E+00  0.59864951870E+03  0.59864951870E+03  0.00000000000E+00 0. -1.
         -1   -1    0    0    0  501 -0.00000000000E+00 -0.00000000000E+00 -0.19062412145E+04  0.19062412145E+04  0.00000000000E+00 0.  1.
         24    2    1    2    0    0  0.45204445514E+03  0.47330490609E+03  0.14607601900E+03  0.67586779327E+03  0.84245754180E+02 0.  0.
        254    2    1    2    0    0 -0.45204445514E+03 -0.47330490609E+03 -0.14536677148E+04  0.18290229399E+04  0.89655639319E+03 0.  0.
         23    2    4    4    0    0 -0.12795767064E+03 -0.68985883281E+03 -0.97970013183E+03  0.12083113936E+04  0.89026406277E+02 0.  0.
         23    2    4    4    0    0 -0.32408678450E+03  0.21655392671E+03 -0.47396758299E+03  0.62071154630E+03  0.93325810637E+02 0.  0.
          2    1    3    3  502    0  0.13135551180E+03  0.14344717824E+03  0.83156797248E+02  0.21153348755E+03  0.00000000000E+00 0. -1.
         -1    1    3    3    0  502  0.32068894334E+03  0.32985772786E+03  0.62919221753E+02  0.46433430572E+03  0.00000000000E+00 0.  1.
         11    1    5    5    0    0 -0.59844822294E+02 -0.51619787326E+03 -0.74932228396E+03  0.91188021820E+03  0.00000000000E+00 0. -1.
        -11    1    5    5    0    0 -0.68112848346E+02 -0.17366095955E+03 -0.23037784786E+03  0.29643117543E+03  0.00000000000E+00 0.  1.
          2    1    6    6  503    0 -0.17018230007E+03  0.15599871477E+03 -0.32123551265E+03  0.39558800393E+03  0.00000000000E+00 0. -1.
         -2    1    6    6    0  503 -0.15390448443E+03  0.60555211942E+02 -0.15273207034E+03  0.22512354238E+03  0.00000000000E+00 0.  1.
<mgrwt>
<rscale>  0 0.21365115E+04</rscale>
<asrwt>0</asrwt>
<pdfrwt beam="1">  1        2 0.92099927E-01 0.21365115E+04</pdfrwt>
<pdfrwt beam="2">  1       -1 0.29326787E+00 0.21365115E+04</pdfrwt>
<totfact> 0.19057009E+00</totfact>
</mgrwt>
</event>
<event>
12    6  0.1611689E-007  0.1178808E+04  0.7818608E-02  0.9131611E-01
         -1   -1    0    0    0  501 -0.00000000000E+00  0.00000000000E+00  0.10421662036E+04  0.10421662036E+04  0.00000000000E+00 0.  1.
          2   -1    0    0  501    0  0.00000000000E+00 -0.00000000000E+00 -0.33334111813E+03  0.33334111813E+03  0.00000000000E+00 0. -1.
         24    2    1    2    0    0  0.13905223460E+01  0.23632801978E+03  0.13648283128E+03  0.28388587553E+03  0.78171354131E+02 0.  0.
        254    2    1    2    0    0 -0.13905223460E+01 -0.23632801978E+03  0.57234225420E+03  0.10916214462E+04  0.89900437117E+03 0.  0.
         23    2    4    4    0    0  0.18339052118E+03 -0.34552007115E+03 -0.69867433036E+02  0.40845737728E+03  0.94550346537E+02 0.  0.
         23    2    4    4    0    0 -0.18478104353E+03  0.10919205137E+03  0.64220968724E+03  0.68316406892E+03  0.90625187206E+02 0.  0.
          4    1    3    3  502    0 -0.21285660340E+02  0.84822770114E+02  0.15803743412E+02  0.88869229612E+02  0.00000000000E+00 0. -1.
         -3    1    3    3    0  502  0.22676182686E+02  0.15150524967E+03  0.12067908786E+03  0.19501664592E+03  0.00000000000E+00 0.  1.
         11    1    5    5    0    0  0.27713096418E+02 -0.10564652729E+03 -0.54547169823E+02  0.12208438957E+03  0.00000000000E+00 0. -1.
        -11    1    5    5    0    0  0.15567742476E+03 -0.23987354387E+03 -0.15320263212E+02  0.28637298771E+03  0.00000000000E+00 0.  1.
          3    1    6    6  503    0 -0.15405565573E+03  0.82614399791E+02  0.59842807946E+03  0.62343760747E+03  0.00000000000E+00 0. -1.
         -3    1    6    6    0  503 -0.30725387793E+02  0.26577651581E+02  0.43781607777E+02  0.59726461456E+02  0.00000000000E+00 0.  1.
<mgrwt>
<rscale>  0 0.11788076E+04</rscale>
<asrwt>0</asrwt>
<pdfrwt beam="1">  1        2 0.51283249E-01 0.11788076E+04</pdfrwt>
<pdfrwt beam="2">  1       -1 0.16033326E+00 0.11788076E+04</pdfrwt>
<totfact> 0.32092441E+01</totfact>
</mgrwt>
</event>
<event>
12    6  0.1611689E-007  0.1822361E+04  0.7818608E-02  0.8694498E-01
          2   -1    0    0  501    0  0.00000000000E+00  0.00000000000E+00  0.83064614496E+03  0.83064614496E+03  0.00000000000E+00 0. -1.
         -1   -1    0    0    0  501 -0.00000000000E+00 -0.00000000000E+00 -0.99952315478E+03  0.99952315478E+03  0.00000000000E+00 0.  1.
         24    2    1    2    0    0  0.67827793041E+03 -0.13511148424E+02 -0.21124093858E+03  0.71526638991E+03  0.82096116711E+02 0.  0.
        254    2    1    2    0    0 -0.67827793041E+03  0.13511148424E+02  0.42363928754E+02  0.11149029098E+04  0.88372523665E+03 0.  0.
         23    2    4    4    0    0  0.17553378447E+03 -0.11492440429E+03 -0.71876881069E+02  0.23951615827E+03  0.90454274911E+02 0.  0.
         23    2    4    4    0    0 -0.85381171488E+03  0.12843555271E+03  0.11424080982E+03  0.87538675157E+03  0.88095780391E+02 0.  0.
          2    1    3    3  502    0  0.20808163473E+03 -0.27514478548E+02 -0.96810858737E+02  0.23114358224E+03  0.00000000000E+00 0. -1.
         -1    1    3    3    0  502  0.47019629568E+03  0.14003330123E+02 -0.11443007984E+03  0.48412280766E+03  0.00000000000E+00 0.  1.
         11    1    5    5    0    0  0.51869727486E+02  0.31139015599E+01 -0.40089648462E+02  0.65630365885E+02  0.00000000000E+00 0. -1.
        -11    1    5    5    0    0  0.12366405698E+03 -0.11803830585E+03 -0.31787232607E+02  0.17388579238E+03  0.00000000000E+00 0.  1.
          1    1    6    6  503    0 -0.30287785038E+03  0.26445672067E+02  0.24044124161E+01  0.30403971290E+03  0.00000000000E+00 0. -1.
         -1    1    6    6    0  503 -0.55093386450E+03  0.10198988064E+03  0.11183639741E+03  0.57134703866E+03  0.00000000000E+00 0.  1.
<mgrwt>
<rscale>  0 0.18223612E+04</rscale>
<asrwt>0</asrwt>
<pdfrwt beam="1">  1        2 0.12779171E+00 0.18223612E+04</pdfrwt>
<pdfrwt beam="2">  1       -1 0.15377279E+00 0.18223612E+04</pdfrwt>
<totfact> 0.11489109E+01</totfact>
</mgrwt>
</event>
<event>
12    6  0.1611689E-007  0.2808667E+04  0.7818608E-02  0.8300583E-01
          2   -1    0    0  501    0  0.00000000000E+00  0.00000000000E+00  0.15028063135E+04  0.15028063135E+04  0.00000000000E+00 0. -1.
         -1   -1    0    0    0  501 -0.00000000000E+00 -0.00000000000E+00 -0.13123130341E+04  0.13123130341E+04  0.00000000000E+00 0.  1.
         24    2    1    2    0    0  0.25437325185E+03 -0.11184888397E+04  0.63263366668E+03  0.13122560211E+04  0.77893984943E+02 0.  0.
        254    2    1    2    0    0 -0.25437325185E+03  0.11184888397E+04 -0.44214038732E+03  0.15028633265E+04  0.86451548306E+03 0.  0.
         23    2    4    4    0    0 -0.35650156239E+03  0.19254230608E+03 -0.38287373787E+03  0.56494004535E+03  0.91646342379E+02 0.  0.
         23    2    4    4    0    0  0.10212831053E+03  0.92594653358E+03 -0.59266649450E+02  0.93792328118E+03  0.91544365191E+02 0.  0.
          2    1    3    3  502    0  0.23889250608E+03 -0.91698715346E+03  0.52058207968E+03  0.10811756429E+04  0.00000000000E+00 0. -1.
         -1    1    3    3    0  502  0.15480745773E+02 -0.20150168620E+03  0.11205158699E+03  0.23108037817E+03  0.00000000000E+00 0.  1.
         11    1    5    5    0    0 -0.14056209836E+02  0.43193343152E+01 -0.48375320985E+02  0.50560907471E+02  0.00000000000E+00 0.  1.
        -11    1    5    5    0    0 -0.34244535255E+03  0.18822297176E+03 -0.33449841688E+03  0.51437913788E+03  0.00000000000E+00 0. -1.
          3    1    6    6  503    0  0.11783507363E+03  0.86879281728E+03 -0.53720179509E+02  0.87839166755E+03  0.00000000000E+00 0. -1.
         -3    1    6    6    0  503 -0.15706763092E+02  0.57153716295E+02 -0.55464699402E+01  0.59531613635E+02  0.00000000000E+00 0.  1.
<mgrwt>
<rscale>  0 0.28086668E+04</rscale>
<asrwt>0</asrwt>
<pdfrwt beam="1">  1        2 0.23120097E+00 0.28086668E+04</pdfrwt>
<pdfrwt beam="2">  1       -1 0.20189431E+00 0.28086668E+04</pdfrwt>
<totfact> 0.18290810E+00</totfact>
</mgrwt>
</event>
<event>
12    6  0.1611689E-007  0.1236278E+04  0.7818608E-02  0.9081682E-01
         -1   -1    0    0    0  501 -0.00000000000E+00  0.00000000000E+00  0.25557435740E+03  0.25557435740E+03  0.00000000000E+00 0.  1.
          2   -1    0    0  501    0  0.00000000000E+00 -0.00000000000E+00 -0.14950473743E+04  0.14950473743E+04  0.00000000000E+00 0. -1.
         24    2    1    2    0    0  0.11932616740E+03  0.11777256406E+03 -0.60585951398E+03  0.63383216924E+03  0.81045400930E+02 0.  0.
        254    2    1    2    0    0 -0.11932616740E+03 -0.11777256406E+03 -0.63361350288E+03  0.11167895624E+04  0.90423655346E+03 0.  0.
         23    2    4    4    0    0 -0.42097053660E+03  0.19478756838E+03 -0.28259511967E+03  0.55078293992E+03  0.91342518931E+02 0.  0.
         23    2    4    4    0    0  0.30164436920E+03 -0.31256013243E+03 -0.35101838322E+03  0.56600662250E+03  0.92013202882E+02 0.  0.
          2    1    3    3  502    0  0.67383162667E+02  0.79827820182E+02 -0.49282974001E+03  0.50377983695E+03  0.00000000000E+00 0. -1.
         -1    1    3    3    0  502  0.51943004736E+02  0.37944743876E+02 -0.11302977398E+03  0.13005233229E+03  0.00000000000E+00 0.  1.
         11    1    5    5    0    0 -0.51568177177E+02  0.60225166987E+02 -0.39913889437E+02  0.88766357399E+02  0.00000000000E+00 0. -1.
        -11    1    5    5    0    0 -0.36940235942E+03  0.13456240139E+03 -0.24268123023E+03  0.46201658252E+03  0.00000000000E+00 0.  1.
          2    1    6    6  503    0  0.43377146993E+02 -0.96198173255E+02 -0.10466564893E+03  0.14862894565E+03  0.00000000000E+00 0. -1.
         -2    1    6    6    0  503  0.25826722220E+03 -0.21636195918E+03 -0.24635273429E+03  0.41737767685E+03  0.00000000000E+00 0.  1.
<mgrwt>
<rscale>  0 0.12362779E+04</rscale>
<asrwt>0</asrwt>
<pdfrwt beam="1">  1        2 0.23000729E+00 0.12362779E+04</pdfrwt>
<pdfrwt beam="2">  1       -1 0.39319131E-01 0.12362779E+04</pdfrwt>
<totfact> 0.90034667E+01</totfact>
</mgrwt>
</event>
<event>
12    6  0.1611689E-007  0.1694976E+04  0.7818608E-02  0.8764235E-01
          2   -1    0    0  501    0  0.00000000000E+00  0.00000000000E+00  0.17377003863E+04  0.17377003863E+04  0.00000000000E+00 0. -1.
         -1   -1    0    0    0  501 -0.00000000000E+00 -0.00000000000E+00 -0.41332547227E+03  0.41332547227E+03  0.00000000000E+00 0.  1.
         24    2    1    2    0    0 -0.19151324671E+03 -0.83038882121E+02 -0.24563077586E+03  0.33178765060E+03  0.78586178377E+02 0.  0.
        254    2    1    2    0    0  0.19151324671E+03  0.83038882121E+02  0.15700056899E+04  0.18192382080E+04  0.89506257405E+03 0.  0.
         23    2    4    4    0    0 -0.31850112854E+03  0.64857493018E+02  0.31633457149E+03  0.46284747370E+03  0.92253777736E+02 0.  0.
         23    2    4    4    0    0  0.51001437525E+03  0.18181389103E+02  0.12536711184E+04  0.13563907343E+04  0.87517569961E+02 0.  0.
          4    1    3    3  502    0 -0.26855226351E+02 -0.12774634269E+02 -0.24810342909E+01  0.29842084281E+02  0.00000000000E+00 0. -1.
         -3    1    3    3    0  502 -0.16465802036E+03 -0.70264247852E+02 -0.24314974157E+03  0.30194556632E+03  0.00000000000E+00 0.  1.
         11    1    5    5    0    0 -0.22253336043E+03  0.39048302066E+02  0.27318044679E+03  0.35450447516E+03  0.00000000000E+00 0. -1.
        -11    1    5    5    0    0 -0.95967768115E+02  0.25809190952E+02  0.43154124699E+02  0.10834299854E+03  0.00000000000E+00 0.  1.
          4    1    6    6  503    0  0.36956468799E+03  0.31743183546E+02  0.99235856474E+03  0.10594155036E+04  0.00000000000E+00 0.  1.
         -4    1    6    6    0  503  0.14044968727E+03 -0.13561794443E+02  0.26131255368E+03  0.29697523067E+03  0.00000000000E+00 0. -1.
<mgrwt>
<rscale>  0 0.16949759E+04</rscale>
<asrwt>0</asrwt>
<pdfrwt beam="1">  1        2 0.26733852E+00 0.16949759E+04</pdfrwt>
<pdfrwt beam="2">  1       -1 0.63588535E-01 0.16949759E+04</pdfrwt>
<totfact> 0.25414440E+01</totfact>
</mgrwt>
</event>
<event>
12    6  0.1611689E-007  0.1545222E+04  0.7818608E-02  0.8854925E-01
          2   -1    0    0  501    0  0.00000000000E+00  0.00000000000E+00  0.59295206147E+03  0.59295206147E+03  0.00000000000E+00 0. -1.
         -1   -1    0    0    0  501 -0.00000000000E+00 -0.00000000000E+00 -0.10067054432E+04  0.10067054432E+04  0.00000000000E+00 0.  1.
         24    2    1    2    0    0 -0.20891087204E+03  0.49064239791E+02  0.32817018076E+03  0.40065798870E+03  0.82341388648E+02 0.  0.
        254    2    1    2    0    0  0.20891087204E+03 -0.49064239791E+02 -0.74192356244E+03  0.11989995159E+04  0.91711406848E+03 0.  0.
         23    2    4    4    0    0  0.97314113933E+02  0.35001945869E+03 -0.39619027991E+02  0.37804701106E+03  0.96779217624E+02 0.  0.
         23    2    4    4    0    0  0.11159675811E+03 -0.39908369848E+03 -0.70230453445E+03  0.82095250486E+03  0.94919551829E+02 0.  0.
          2    1    3    3  502    0 -0.18504699067E+03  0.54061097897E+02  0.32233824773E+03  0.37558878712E+03  0.00000000000E+00 0. -1.
         -1    1    3    3    0  502 -0.23863881367E+02 -0.49968581056E+01  0.58319330334E+01  0.25069201578E+02  0.00000000000E+00 0.  1.
         11    1    5    5    0    0  0.25396859775E+02  0.32571914886E+02 -0.32366895922E+02  0.52474242037E+02  0.00000000000E+00 0. -1.
        -11    1    5    5    0    0  0.71917254158E+02  0.31744754380E+03 -0.72521320696E+01  0.32557276903E+03  0.00000000000E+00 0.  1.
          2    1    6    6  503    0  0.38912471761E+02 -0.89320212786E+02 -0.99074795573E+02  0.13895357494E+03  0.00000000000E+00 0. -1.
         -2    1    6    6    0  503  0.72684286346E+02 -0.30976348569E+03 -0.60322973888E+03  0.68199892992E+03  0.00000000000E+00 0.  1.
<mgrwt>
<rscale>  0 0.15452224E+04</rscale>
<asrwt>0</asrwt>
<pdfrwt beam="1">  1        2 0.91223393E-01 0.15452224E+04</pdfrwt>
<pdfrwt beam="2">  1       -1 0.15487776E+00 0.15452224E+04</pdfrwt>
<totfact> 0.17704375E+01</totfact>
</mgrwt>
</event>
<event>
12    6  0.1611689E-007  0.1718344E+04  0.7818608E-02  0.8750971E-01
          2   -1    0    0  501    0  0.00000000000E+00  0.00000000000E+00  0.10958139482E+04  0.10958139482E+04  0.00000000000E+00 0. -1.
         -1   -1    0    0    0  501 -0.00000000000E+00 -0.00000000000E+00 -0.67363288402E+03  0.67363288402E+03  0.00000000000E+00 0.  1.
         24    2    1    2    0    0 -0.20883973260E+03  0.37715807518E+03 -0.28971342174E+03  0.52601454633E+03  0.83037272476E+02 0.  0.
        254    2    1    2    0    0  0.20883973260E+03 -0.37715807518E+03  0.71189448593E+03  0.12434322859E+04  0.92383323328E+03 0.  0.
         23    2    4    4    0    0  0.21846668242E+03 -0.32157022339E+03 -0.11040260288E+03  0.41411487868E+03  0.90373105100E+02 0.  0.
         23    2    4    4    0    0 -0.96269498142E+01 -0.55587851793E+02  0.82229708881E+03  0.82931740721E+03  0.91717894705E+02 0.  0.
          4    1    3    3  502    0 -0.27633929276E+02  0.13812850733E+02 -0.82606619251E+01  0.31979171785E+02  0.00000000000E+00 0. -1.
         -3    1    3    3    0  502 -0.18120580333E+03  0.36334522445E+03 -0.28145275982E+03  0.49403537454E+03  0.00000000000E+00 0.  1.
         11    1    5    5    0    0  0.10437831888E+03 -0.15666938040E+03 -0.67210821274E+01  0.18837542609E+03  0.00000000000E+00 0.  1.
        -11    1    5    5    0    0  0.11408836354E+03 -0.16490084298E+03 -0.10368152075E+03  0.22573945259E+03  0.00000000000E+00 0. -1.
          1    1    6    6  503    0 -0.12180802174E+02 -0.62794038955E+02  0.29021664017E+03  0.29718203428E+03  0.00000000000E+00 0. -1.
         -1    1    6    6    0  503  0.25538523593E+01  0.72061871624E+01  0.53208044864E+03  0.53213537293E+03  0.00000000000E+00 0.  1.
<mgrwt>
<rscale>  0 0.17183437E+04</rscale>
<asrwt>0</asrwt>
<pdfrwt beam="1">  1        2 0.16858676E+00 0.17183437E+04</pdfrwt>
<pdfrwt beam="2">  1       -1 0.10363583E+00 0.17183437E+04</pdfrwt>
<totfact> 0.20850207E+01</totfact>
</mgrwt>
</event>
<event>
12    6  0.1611689E-007  0.4531503E+04  0.7818608E-02  0.7905145E-01
          2   -1    0    0  501    0  0.00000000000E+00  0.00000000000E+00  0.28126610042E+04  0.28126610042E+04  0.00000000000E+00 0. -1.
         -1   -1    0    0    0  501 -0.00000000000E+00 -0.00000000000E+00 -0.18251858184E+04  0.18251858184E+04  0.00000000000E+00 0.  1.
         24    2    1    2    0    0  0.33000998785E+03 -0.18320568856E+04  0.16199924878E+04  0.24690196276E+04  0.79644438340E+02 0.  0.
        254    2    1    2    0    0 -0.33000998785E+03  0.18320568856E+04 -0.63251730200E+03  0.21688271950E+04  0.91563870621E+03 0.  0.
         23    2    4    4    0    0 -0.49275370910E+03  0.17061724031E+04 -0.35807798366E+03  0.18141575827E+04  0.95485107364E+02 0.  0.
         23    2    4    4    0    0  0.16274372126E+03  0.12588448251E+03 -0.27443931834E+03  0.35466961227E+03  0.90228447125E+02 0.  0.
          4    1    3    3  502    0  0.32766573157E+03 -0.18261522076E+04  0.16193776410E+04  0.24626369325E+04  0.00000000000E+00 0. -1.
         -3    1    3    3    0  502  0.23442562810E+01 -0.59046780503E+01  0.61484678694E+00  0.63826951173E+01  0.00000000000E+00 0.  1.
         11    1    5    5    0    0 -0.39174266695E+03  0.13482402090E+04 -0.24319682200E+03  0.14249065487E+04  0.00000000000E+00 0.  1.
        -11    1    5    5    0    0 -0.10101104215E+03  0.35793219407E+03 -0.11488116165E+03  0.38925103402E+03  0.00000000000E+00 0. -1.
          3    1    6    6  503    0  0.73389120737E+02  0.68928514537E+01 -0.68750763636E+02  0.10079752946E+03  0.00000000000E+00 0. -1.
         -3    1    6    6    0  503  0.89354600518E+02  0.11899163106E+03 -0.20568855471E+03  0.25387208282E+03  0.00000000000E+00 0.  1.
<mgrwt>
<rscale>  0 0.45315026E+04</rscale>
<asrwt>0</asrwt>
<pdfrwt beam="1">  1        2 0.43271708E+00 0.45315026E+04</pdfrwt>
<pdfrwt beam="2">  1       -1 0.28079782E+00 0.45315026E+04</pdfrwt>
<totfact> 0.85804085E-02</totfact>
</mgrwt>
</event>
<event>
12    6  0.1611689E-007  0.1495144E+04  0.7818608E-02  0.8887689E-01
         -1   -1    0    0    0  501 -0.00000000000E+00  0.00000000000E+00  0.23695428595E+03  0.23695428595E+03  0.00000000000E+00 0.  1.
          2   -1    0    0  501    0  0.00000000000E+00 -0.00000000000E+00 -0.23585305626E+04  0.23585305626E+04  0.00000000000E+00 0. -1.
         24    2    1    2    0    0 -0.19188681626E+03  0.22866308957E+02 -0.13522613423E+04  0.13684270845E+04  0.81477169379E+02 0.  0.
        254    2    1    2    0    0  0.19188681626E+03 -0.22866308957E+02 -0.76931493429E+03  0.12270577641E+04  0.93620610441E+03 0.  0.
         23    2    4    4    0    0  0.60857234328E+02 -0.40351053315E+03 -0.81646729131E+02  0.42493539045E+03  0.85904274284E+02 0.  0.
         23    2    4    4    0    0  0.13102958193E+03  0.38064422420E+03 -0.68766820515E+03  0.80212237363E+03  0.91945446541E+02 0.  0.
          4    1    3    3  502    0 -0.17416773034E+03  0.35412710234E+02 -0.10131248772E+04  0.10285963616E+04  0.00000000000E+00 0. -1.
         -3    1    3    3    0  502 -0.17719085916E+02 -0.12546401277E+02 -0.33913646514E+03  0.33983072283E+03  0.00000000000E+00 0.  1.
         11    1    5    5    0    0  0.68911825187E+02 -0.38043316435E+03 -0.93501385341E+02  0.39776970882E+03  0.00000000000E+00 0. -1.
        -11    1    5    5    0    0 -0.80545908588E+01 -0.23077368801E+02  0.11854656210E+02  0.27165681632E+02  0.00000000000E+00 0.  1.
          3    1    6    6  503    0  0.81367749848E+02  0.24469877692E+03 -0.52140864166E+03  0.58169164834E+03  0.00000000000E+00 0. -1.
         -3    1    6    6    0  503  0.49661832084E+02  0.13594544728E+03 -0.16625956349E+03  0.22043072529E+03  0.00000000000E+00 0.  1.
<mgrwt>
<rscale>  0 0.14951440E+04</rscale>
<asrwt>0</asrwt>
<pdfrwt beam="1">  1        2 0.36285083E+00 0.14951440E+04</pdfrwt>
<pdfrwt beam="2">  1       -1 0.36454508E-01 0.14951440E+04</pdfrwt>
<totfact> 0.33394534E+01</totfact>
</mgrwt>
</event>
<event>
12    6  0.1611689E-007  0.1607674E+04  0.7818608E-02  0.8815847E-01
         -1   -1    0    0    0  501 -0.00000000000E+00  0.00000000000E+00  0.19541707938E+04  0.19541707938E+04  0.00000000000E+00 0.  1.
          2   -1    0    0  501    0  0.00000000000E+00 -0.00000000000E+00 -0.33065374019E+03  0.33065374019E+03  0.00000000000E+00 0. -1.
         24    2    1    2    0    0  0.36346036119E+03 -0.35345849714E+03  0.85527247742E+03  0.99741021217E+03  0.79371136702E+02 0.  0.
        254    2    1    2    0    0 -0.36346036119E+03  0.35345849714E+03  0.76824457619E+03  0.12874143218E+04  0.90011086199E+03 0.  0.
         23    2    4    4    0    0  0.68184790370E+02  0.51171469093E+02 -0.16848096979E+03  0.20900503605E+03  0.89607940642E+02 0.  0.
         23    2    4    4    0    0 -0.43164515156E+03  0.30228702804E+03  0.93672554598E+03  0.10784092858E+04  0.88412979753E+02 0.  0.
          4    1    3    3  502    0  0.17355060715E+03 -0.16920981166E+03  0.33228818718E+03  0.41129942007E+03  0.00000000000E+00 0. -1.
         -3    1    3    3    0  502  0.18990975404E+03 -0.18424868547E+03  0.52298429024E+03  0.58611079210E+03  0.00000000000E+00 0.  1.
         11    1    5    5    0    0  0.29149545790E+02  0.40418337342E+02 -0.16007493516E+03  0.16765238704E+03  0.00000000000E+00 0.  1.
        -11    1    5    5    0    0  0.39035244581E+02  0.10753131751E+02 -0.84060346271E+01  0.41352649009E+02  0.00000000000E+00 0. -1.
          1    1    6    6  503    0 -0.21749616712E+03  0.12354558956E+03  0.36803204552E+03  0.44498953015E+03  0.00000000000E+00 0. -1.
         -1    1    6    6    0  503 -0.21414898444E+03  0.17874143848E+03  0.56869350046E+03  0.63341975564E+03  0.00000000000E+00 0.  1.
<mgrwt>
<rscale>  0 0.16076739E+04</rscale>
<asrwt>0</asrwt>
<pdfrwt beam="1">  1        2 0.50869807E-01 0.16076739E+04</pdfrwt>
<pdfrwt beam="2">  1       -1 0.30064165E+00 0.16076739E+04</pdfrwt>
<totfact> 0.35402425E+00</totfact>
</mgrwt>
</event>
<event>
12    6  0.1611689E-007  0.1871641E+04  0.7818608E-02  0.8669103E-01
          2   -1    0    0  501    0  0.00000000000E+00  0.00000000000E+00  0.32099447310E+04  0.32099447310E+04  0.00000000000E+00 0. -1.
         -1   -1    0    0    0  501 -0.00000000000E+00 -0.00000000000E+00 -0.27282704007E+03  0.27282704007E+03  0.00000000000E+00 0.  1.
         24    2    1    2    0    0  0.22092630057E+03 -0.89358369671E+02  0.23991470308E+04  0.24123005284E+04  0.80585453764E+02 0.  0.
        254    2    1    2    0    0 -0.22092630057E+03  0.89358369671E+02  0.53797066013E+03  0.10704712427E+04  0.89426109259E+03 0.  0.
         23    2    4    4    0    0 -0.60077057755E+02 -0.22815306319E+03  0.64061662875E+03  0.68872844495E+03  0.91072129325E+02 0.  0.
         23    2    4    4    0    0 -0.16084924282E+03  0.31751143286E+03 -0.10264596862E+03  0.38174279773E+03  0.92224616183E+02 0.  0.
          4    1    3    3  502    0  0.19255865243E+03 -0.10482919729E+03  0.20992710736E+04  0.21106887586E+04  0.00000000000E+00 0. -1.
         -3    1    3    3    0  502  0.28367648148E+02  0.15470827624E+02  0.29987595720E+03  0.30161176979E+03  0.00000000000E+00 0.  1.
         11    1    5    5    0    0 -0.22902513009E+02 -0.21205548741E+02  0.31506104199E+02  0.44349013533E+02  0.00000000000E+00 0.  1.
        -11    1    5    5    0    0 -0.37174544745E+02 -0.20694751445E+03  0.60911052455E+03  0.64437943142E+03  0.00000000000E+00 0. -1.
          3    1    6    6  503    0 -0.17128413016E+03  0.31007660802E+03 -0.10304873834E+03  0.36892383842E+03  0.00000000000E+00 0. -1.
         -3    1    6    6    0  503  0.10434887338E+02  0.74348248395E+01  0.40276971732E+00  0.12818959302E+02  0.00000000000E+00 0.  1.
<mgrwt>
<rscale>  0 0.18716407E+04</rscale>
<asrwt>0</asrwt>
<pdfrwt beam="1">  1        2 0.49383762E+00 0.18716407E+04</pdfrwt>
<pdfrwt beam="2">  1       -1 0.41973393E-01 0.18716407E+04</pdfrwt>
<totfact> 0.76453355E+00</totfact>
</mgrwt>
</event>
<event>
12    6  0.1611689E-007  0.2437994E+04  0.7818608E-02  0.8425415E-01
          2   -1    0    0  501    0  0.00000000000E+00  0.00000000000E+00  0.38978511839E+04  0.38978511839E+04  0.00000000000E+00 0. -1.
         -1   -1    0    0    0  501 -0.00000000000E+00 -0.00000000000E+00 -0.38122384125E+03  0.38122384125E+03  0.00000000000E+00 0.  1.
         24    2    1    2    0    0  0.29191921691E+03 -0.58386335809E+03  0.29477906382E+04  0.30202669444E+04  0.80184280404E+02 0.  0.
        254    2    1    2    0    0 -0.29191921691E+03  0.58386335809E+03  0.56883670450E+03  0.12588080808E+04  0.91373373458E+03 0.  0.
         23    2    4    4    0    0 -0.58106824560E+03  0.27284723529E+03  0.17124913508E+03  0.66957183431E+03  0.83152000440E+02 0.  0.
         23    2    4    4    0    0  0.28914902869E+03  0.31101612280E+03  0.39758756943E+03  0.58923624647E+03  0.93729874373E+02 0.  0.
          4    1    3    3  502    0  0.26394663288E+03 -0.45966712935E+03  0.24129520839E+04  0.24704856717E+04  0.00000000000E+00 0. -1.
         -3    1    3    3    0  502  0.27972584025E+02 -0.12419622874E+03  0.53483855426E+03  0.54978127270E+03  0.00000000000E+00 0.  1.
         11    1    5    5    0    0 -0.13940157679E+03  0.79862945286E+02  0.86279456033E+01  0.16088918884E+03  0.00000000000E+00 0. -1.
        -11    1    5    5    0    0 -0.44166666881E+03  0.19298429000E+03  0.16262118947E+03  0.50868264546E+03  0.00000000000E+00 0.  1.
          1    1    6    6  503    0  0.82789119973E+01  0.32755318816E+01  0.37523673136E+02  0.38565470807E+02  0.00000000000E+00 0. -1.
         -1    1    6    6    0  503  0.28087011670E+03  0.30774059092E+03  0.36006389629E+03  0.55067077566E+03  0.00000000000E+00 0.  1.
<mgrwt>
<rscale>  0 0.24379941E+04</rscale>
<asrwt>0</asrwt>
<pdfrwt beam="1">  1        2 0.59966939E+00 0.24379941E+04</pdfrwt>
<pdfrwt beam="2">  1       -1 0.58649824E-01 0.24379941E+04</pdfrwt>
<totfact> 0.12440704E+00</totfact>
</mgrwt>
</event>
<event>
12    6  0.1611689E-007  0.2036771E+04  0.7818608E-02  0.8589620E-01
         -1   -1    0    0    0  501 -0.00000000000E+00  0.00000000000E+00  0.36932411972E+03  0.36932411972E+03  0.00000000000E+00 0.  1.
          2   -1    0    0  501    0  0.00000000000E+00 -0.00000000000E+00 -0.28081260316E+04  0.28081260316E+04  0.00000000000E+00 0. -1.
         24    2    1    2    0    0  0.14999628221E+03 -0.65649833261E+00 -0.22335636212E+04  0.22397521411E+04  0.71999224199E+02 0.  0.
        254    2    1    2    0    0 -0.14999628221E+03  0.65649833261E+00 -0.20523829066E+03  0.93769801012E+03  0.90258267575E+03 0.  0.
         23    2    4    4    0    0 -0.31575682993E+03  0.89062269987E+02 -0.48262355854E+03  0.59084238309E+03  0.92383758379E+02 0.  0.
         23    2    4    4    0    0  0.16576054772E+03 -0.88405771654E+02  0.27738526787E+03  0.34685562703E+03  0.89855993287E+02 0.  0.
          4    1    3    3  502    0  0.15143450638E+03  0.12051870590E+02 -0.19541083796E+04  0.19600043920E+04  0.00000000000E+00 0. -1.
         -3    1    3    3    0  502 -0.14382241713E+01 -0.12708368923E+02 -0.27945524154E+03  0.27974774915E+03  0.00000000000E+00 0.  1.
         11    1    5    5    0    0 -0.19995246074E+03  0.75313655059E+02 -0.37781654597E+03  0.43404893227E+03  0.00000000000E+00 0.  1.
        -11    1    5    5    0    0 -0.11580436919E+03  0.13748614927E+02 -0.10480701257E+03  0.15679345082E+03  0.00000000000E+00 0. -1.
          2    1    6    6  503    0  0.12877112047E+03 -0.27920909571E+02  0.13999329695E+03  0.19224906203E+03  0.00000000000E+00 0. -1.
         -2    1    6    6    0  503  0.36989427248E+02 -0.60484862083E+02  0.13739197092E+03  0.15460656501E+03  0.00000000000E+00 0.  1.
<mgrwt>
<rscale>  0 0.20367707E+04</rscale>
<asrwt>0</asrwt>
<pdfrwt beam="1">  1        2 0.43201939E+00 0.20367707E+04</pdfrwt>
<pdfrwt beam="2">  1       -1 0.56819095E-01 0.20367707E+04</pdfrwt>
<totfact> 0.75687696E+00</totfact>
</mgrwt>
</event>
<event>
12    6  0.1611689E-007  0.2493372E+04  0.7818608E-02  0.8405351E-01
         -1   -1    0    0    0  501 -0.00000000000E+00  0.00000000000E+00  0.46271506337E+03  0.46271506337E+03  0.00000000000E+00 0.  1.
          2   -1    0    0  501    0  0.00000000000E+00 -0.00000000000E+00 -0.33589257099E+04  0.33589257099E+04  0.00000000000E+00 0. -1.
         24    2    1    2    0    0 -0.17033877679E+01  0.67591674549E+03  0.26783501399E+02  0.68111615798E+03  0.79595956869E+02 0.  0.
        254    2    1    2    0    0  0.17033877679E+01 -0.67591674549E+03 -0.29229941479E+04  0.31405246153E+04  0.92851156268E+03 0.  0.
         23    2    4    4    0    0  0.94256405917E+02 -0.54950914547E+03 -0.29017235821E+04  0.29562581387E+04  0.92832455485E+02 0.  0.
         23    2    4    4    0    0 -0.92553018149E+02 -0.12640760001E+03 -0.21270565798E+02  0.18426647654E+03  0.94640133653E+02 0.  0.
          2    1    3    3  502    0  0.71061120133E+01  0.38488377892E+02  0.19170062393E+02  0.43581456525E+02  0.00000000000E+00 0. -1.
         -3    1    3    3    0  502 -0.88094997812E+01  0.63742836759E+03  0.76134390066E+01  0.63753470145E+03  0.00000000000E+00 0.  1.
         11    1    5    5    0    0  0.63642830943E+02 -0.45491512899E+03 -0.25357877154E+04  0.25770559796E+04  0.00000000000E+00 0.  1.
        -11    1    5    5    0    0  0.30613574974E+02 -0.94594016477E+02 -0.36593586674E+03  0.37920215913E+03  0.00000000000E+00 0. -1.
          1    1    6    6  503    0 -0.77082856745E+02 -0.12236641074E+03  0.14241554594E+02  0.14532077332E+03  0.00000000000E+00 0. -1.
         -1    1    6    6    0  503 -0.15470161404E+02 -0.40411892739E+01 -0.35512120392E+02  0.38945703221E+02  0.00000000000E+00 0.  1.
<mgrwt>
<rscale>  0 0.24933716E+04</rscale>
<asrwt>0</asrwt>
<pdfrwt beam="1">  1        2 0.51675778E+00 0.24933716E+04</pdfrwt>
<pdfrwt beam="2">  1       -1 0.71186936E-01 0.24933716E+04</pdfrwt>
<totfact> 0.20582706E+00</totfact>
</mgrwt>
</event>
<event>
12    6  0.1611689E-007  0.1565157E+04  0.7818608E-02  0.8842244E-01
          2   -1    0    0  501    0  0.00000000000E+00  0.00000000000E+00  0.14684432701E+04  0.14684432701E+04  0.00000000000E+00 0. -1.
         -1   -1    0    0    0  501 -0.00000000000E+00 -0.00000000000E+00 -0.41705994203E+03  0.41705994203E+03  0.00000000000E+00 0.  1.
         24    2    1    2    0    0  0.50602437732E+03  0.30463443721E+02  0.49936860783E+03  0.71595298924E+03  0.78936585114E+02 0.  0.
        254    2    1    2    0    0 -0.50602437732E+03 -0.30463443721E+02  0.55201472022E+03  0.11695502229E+04  0.89785231561E+03 0.  0.
         23    2    4    4    0    0 -0.41610808148E+03  0.21682618460E+03 -0.74750789837E+02  0.48384338252E+03  0.91417768634E+02 0.  0.
         23    2    4    4    0    0 -0.89916295842E+02 -0.24728962832E+03  0.62676551006E+03  0.68570684036E+03  0.90120839897E+02 0.  0.
          4    1    3    3  502    0  0.26983933709E+03  0.18369674353E+02  0.32089662971E+03  0.41967291994E+03  0.00000000000E+00 0. -1.
         -3    1    3    3    0  502  0.23618504024E+03  0.12093769368E+02  0.17847197812E+03  0.29628006930E+03  0.00000000000E+00 0.  1.
         11    1    5    5    0    0 -0.28772405922E+03  0.13418300125E+03 -0.89952257289E+01  0.31760215076E+03  0.00000000000E+00 0. -1.
        -11    1    5    5    0    0 -0.12838402226E+03  0.82643183357E+02 -0.65755564108E+02  0.16624123176E+03  0.00000000000E+00 0.  1.
          3    1    6    6  503    0 -0.49128473915E+01 -0.13737271016E+03  0.34982058656E+03  0.37585880374E+03  0.00000000000E+00 0. -1.
         -3    1    6    6    0  503 -0.85003448450E+02 -0.10991691816E+03  0.27694492349E+03  0.30984803662E+03  0.00000000000E+00 0.  1.
<mgrwt>
<rscale>  0 0.15651567E+04</rscale>
<asrwt>0</asrwt>
<pdfrwt beam="1">  1        2 0.22591435E+00 0.15651567E+04</pdfrwt>
<pdfrwt beam="2">  1       -1 0.64163069E-01 0.15651567E+04</pdfrwt>
<totfact> 0.35697386E+01</totfact>
</mgrwt>
</event>
<event>
12    6  0.1611689E-007  0.1160378E+04  0.7818608E-02  0.9148262E-01
          2   -1    0    0  501    0  0.00000000000E+00  0.00000000000E+00  0.13704246713E+03  0.13704246713E+03  0.00000000000E+00 0. -1.
         -1   -1    0    0    0  501 -0.00000000000E+00 -0.00000000000E+00 -0.24563146168E+04  0.24563146168E+04  0.00000000000E+00 0.  1.
         24    2    1    2    0    0  0.20097991738E+02 -0.18989683873E+03 -0.79613654987E+03  0.82252088663E+03  0.79009267014E+02 0.  0.
        254    2    1    2    0    0 -0.20097991738E+02  0.18989683873E+03 -0.15231355998E+04  0.17708361973E+04  0.88286694562E+03 0.  0.
         23    2    4    4    0    0 -0.19501812131E+03  0.49424454062E+03 -0.94720330546E+03  0.10899261036E+04  0.91842668774E+02 0.  0.
         23    2    4    4    0    0  0.17492012957E+03 -0.30434770189E+03 -0.57593229432E+03  0.68091009371E+03  0.93359373932E+02 0.  0.
          4    1    3    3  502    0 -0.13408240295E+02 -0.27464477248E+02 -0.24704396416E+03  0.24892729590E+03  0.00000000000E+00 0. -1.
         -3    1    3    3    0  502  0.33506232034E+02 -0.16243236148E+03 -0.54909258572E+03  0.57359359073E+03  0.00000000000E+00 0.  1.
         11    1    5    5    0    0 -0.52183474138E+02  0.51870682298E+02 -0.11040743153E+03  0.13267812025E+03  0.00000000000E+00 0. -1.
        -11    1    5    5    0    0 -0.14283464717E+03  0.44237385832E+03 -0.83679587392E+03  0.95724798332E+03  0.00000000000E+00 0.  1.
          4    1    6    6  503    0  0.16403858824E+03 -0.30144913971E+03 -0.57497408398E+03  0.66960842252E+03  0.00000000000E+00 0.  1.
         -4    1    6    6    0  503  0.10881541335E+02 -0.28985621837E+01 -0.95821033480E+00  0.11301671187E+02  0.00000000000E+00 0. -1.
<mgrwt>
<rscale>  0 0.11603782E+04</rscale>
<asrwt>0</asrwt>
<pdfrwt beam="1">  1        2 0.21083457E-01 0.11603782E+04</pdfrwt>
<pdfrwt beam="2">  1       -1 0.37789455E+00 0.11603782E+04</pdfrwt>
<totfact> 0.31204845E+00</totfact>
</mgrwt>
</event>
<event>
12    6  0.1611689E-007  0.1589505E+04  0.7818608E-02  0.8827022E-01
          2   -1    0    0  501    0  0.00000000000E+00  0.00000000000E+00  0.73108135106E+03  0.73108135106E+03  0.00000000000E+00 0. -1.
         -1   -1    0    0    0  501 -0.00000000000E+00 -0.00000000000E+00 -0.86396881632E+03  0.86396881632E+03  0.00000000000E+00 0.  1.
         24    2    1    2    0    0  0.65142280624E+02 -0.24143834898E+02  0.48764016550E+03  0.49973939647E+03  0.84380636881E+02 0.  0.
        254    2    1    2    0    0 -0.65142280624E+02  0.24143834898E+02 -0.62052763077E+03  0.10953107709E+04  0.89990260743E+03 0.  0.
         23    2    4    4    0    0  0.25799109007E+03  0.26185645271E+03 -0.56541120567E+03  0.68045822056E+03  0.90583409338E+02 0.  0.
         23    2    4    4    0    0 -0.32313337069E+03 -0.23771261782E+03 -0.55116425098E+02  0.41485255036E+03  0.90234994873E+02 0.  0.
          4    1    3    3  502    0  0.36203312899E+02 -0.20585655542E+02  0.45097701006E+03  0.45289591815E+03  0.00000000000E+00 0. -1.
         -1    1    3    3    0  502  0.28938967725E+02 -0.35581793559E+01  0.36663155445E+02  0.46843478313E+02  0.00000000000E+00 0.  1.
         11    1    5    5    0    0  0.82192453111E+02  0.97170691366E+02 -0.12452501884E+03  0.17805679691E+03  0.00000000000E+00 0.  1.
        -11    1    5    5    0    0  0.17579863696E+03  0.16468576135E+03 -0.44088618683E+03  0.50240142365E+03  0.00000000000E+00 0. -1.
          1    1    6    6  503    0 -0.25958509156E+03 -0.18889978626E+03 -0.64618363137E+01  0.32110637542E+03  0.00000000000E+00 0. -1.
         -1    1    6    6    0  503 -0.63548279132E+02 -0.48812831559E+02 -0.48654588785E+02  0.93746174937E+02  0.00000000000E+00 0.  1.
<mgrwt>
<rscale>  0 0.15895049E+04</rscale>
<asrwt>0</asrwt>
<pdfrwt beam="1">  1        2 0.11247405E+00 0.15895049E+04</pdfrwt>
<pdfrwt beam="2">  1       -1 0.13291828E+00 0.15895049E+04</pdfrwt>
<totfact> 0.20365255E+01</totfact>
</mgrwt>
</event>
<event>
12    6  0.1611689E-007  0.2197576E+04  0.7818608E-02  0.8519438E-01
          2   -1    0    0  501    0  0.00000000000E+00  0.00000000000E+00  0.14143181967E+04  0.14143181967E+04  0.00000000000E+00 0. -1.
         -1   -1    0    0    0  501 -0.00000000000E+00 -0.00000000000E+00 -0.85365132238E+03  0.85365132238E+03  0.00000000000E+00 0.  1.
         24    2    1    2    0    0 -0.20285052939E+03  0.31793938147E+03  0.10875187329E+04  0.11536356352E+04  0.77099915591E+02 0.  0.
        254    2    1    2    0    0  0.20285052939E+03 -0.31793938147E+03 -0.52685185856E+03  0.11143338838E+04  0.90660539168E+03 0.  0.
         23    2    4    4    0    0 -0.27704972420E+03 -0.38361995826E+03 -0.19273350605E+03  0.51886547411E+03  0.90301460738E+02 0.  0.
         23    2    4    4    0    0  0.47990025359E+03  0.65680576798E+02 -0.33411835251E+03  0.59546840972E+03  0.91265338023E+02 0.  0.
          2    1    3    3  502    0 -0.18072642514E+03  0.31387530892E+03  0.10133619282E+04  0.10761422526E+04  0.00000000000E+00 0. -1.
         -1    1    3    3    0  502 -0.22124104249E+02  0.40640725481E+01  0.74156804702E+02  0.77493382673E+02  0.00000000000E+00 0.  1.
         11    1    5    5    0    0 -0.28125008241E+03 -0.35558643874E+03 -0.18266386223E+03  0.48878360328E+03  0.00000000000E+00 0. -1.
        -11    1    5    5    0    0  0.42003582088E+01 -0.28033519523E+02 -0.10069643824E+02  0.30081870830E+02  0.00000000000E+00 0.  1.
          3    1    6    6  503    0  0.21780459891E+03  0.39553427604E+02 -0.99374520871E+02  0.24264915483E+03  0.00000000000E+00 0. -1.
         -3    1    6    6    0  503  0.26209565468E+03  0.26127149193E+02 -0.23474383164E+03  0.35281925489E+03  0.00000000000E+00 0.  1.
<mgrwt>
<rscale>  0 0.21975756E+04</rscale>
<asrwt>0</asrwt>
<pdfrwt beam="1">  1        2 0.21758741E+00 0.21975756E+04</pdfrwt>
<pdfrwt beam="2">  1       -1 0.13133097E+00 0.21975756E+04</pdfrwt>
<totfact> 0.73109859E+00</totfact>
</mgrwt>
</event>
<event>
12    6  0.1611689E-007  0.3452295E+04  0.7818608E-02  0.8125189E-01
          2   -1    0    0  501    0  0.00000000000E+00  0.00000000000E+00  0.18176745102E+04  0.18176745102E+04  0.00000000000E+00 0. -1.
         -1   -1    0    0    0  501 -0.00000000000E+00 -0.00000000000E+00 -0.16392290287E+04  0.16392290287E+04  0.00000000000E+00 0.  1.
         24    2    1    2    0    0 -0.40929081910E+03  0.12746921189E+04  0.97338381757E+03  0.16571187821E+04  0.78788509305E+02 0.  0.
        254    2    1    2    0    0  0.40929081910E+03 -0.12746921189E+04 -0.79493833602E+03  0.17997847567E+04  0.90273985175E+03 0.  0.
         23    2    4    4    0    0 -0.24475399036E+03 -0.24367528984E+03 -0.34087763376E+03  0.49373367267E+03  0.91067094256E+02 0.  0.
         23    2    4    4    0    0  0.65404480947E+03 -0.10310168291E+04 -0.45406070226E+03  0.13060510841E+04  0.93957427952E+02 0.  0.
          4    1    3    3  502    0 -0.33034169965E+03  0.11112587520E+04  0.85313399425E+03  0.14393954511E+04  0.00000000000E+00 0. -1.
         -3    1    3    3    0  502 -0.78949119451E+02  0.16343336688E+03  0.12024982331E+03  0.21772333104E+03  0.00000000000E+00 0.  1.
         11    1    5    5    0    0 -0.14121444198E+03 -0.83234739476E+02 -0.12968288339E+03  0.20901480982E+03  0.00000000000E+00 0. -1.
        -11    1    5    5    0    0 -0.10353954838E+03 -0.16044055037E+03 -0.21119475037E+03  0.28471886285E+03  0.00000000000E+00 0.  1.
          3    1    6    6  503    0  0.10064382330E+03 -0.21562363190E+03 -0.11120576825E+03  0.26265843351E+03  0.00000000000E+00 0. -1.
         -3    1    6    6    0  503  0.55340098617E+03 -0.81539319715E+03 -0.34285493402E+03  0.10433926506E+04  0.00000000000E+00 0.  1.
<mgrwt>
<rscale>  0 0.34522948E+04</rscale>
<asrwt>0</asrwt>
<pdfrwt beam="1">  1        2 0.27964223E+00 0.34522948E+04</pdfrwt>
<pdfrwt beam="2">  1       -1 0.25218908E+00 0.34522948E+04</pdfrwt>
<totfact> 0.53418257E-01</totfact>
</mgrwt>
</event>
<event>
12    6  0.1611689E-007  0.1401117E+04  0.7818608E-02  0.8953010E-01
         -1   -1    0    0    0  501 -0.00000000000E+00  0.00000000000E+00  0.10157852072E+04  0.10157852072E+04  0.00000000000E+00 0.  1.
          2   -1    0    0  501    0  0.00000000000E+00 -0.00000000000E+00 -0.48315574204E+03  0.48315574204E+03  0.00000000000E+00 0. -1.
         24    2    1    2    0    0 -0.12601655036E+02 -0.38520054768E+03  0.28551463589E+03  0.48636655520E+03  0.80595006440E+02 0.  0.
        254    2    1    2    0    0  0.12601655036E+02  0.38520054768E+03  0.24711482922E+03  0.10125743940E+04  0.90316272116E+03 0.  0.
         23    2    4    4    0    0 -0.26919380754E+03 -0.88811739338E+01  0.40507367253E+03  0.49503603683E+03  0.91824922099E+02 0.  0.
         23    2    4    4    0    0  0.28179546257E+03  0.39408172162E+03 -0.15795884330E+03  0.51753835716E+03  0.90475791874E+02 0.  0.
          2    1    3    3  502    0  0.21366730760E+02 -0.31102324014E+03  0.21721091965E+03  0.37996391501E+03  0.00000000000E+00 0. -1.
         -1    1    3    3    0  502 -0.33968385795E+02 -0.74177307541E+02  0.68303716241E+02  0.10640264019E+03  0.00000000000E+00 0.  1.
         11    1    5    5    0    0 -0.72282293306E+02 -0.16144895488E+01  0.19027222124E+03  0.20354570661E+03  0.00000000000E+00 0.  1.
        -11    1    5    5    0    0 -0.19691151423E+03 -0.72666843851E+01  0.21480145129E+03  0.29149033022E+03  0.00000000000E+00 0. -1.
          2    1    6    6  503    0  0.45360638936E+02  0.18876597587E+02 -0.11116342789E+02  0.50373470976E+02  0.00000000000E+00 0.  1.
         -2    1    6    6    0  503  0.23643482364E+03  0.37520512403E+03 -0.14684250051E+03  0.46716488619E+03  0.00000000000E+00 0. -1.
<mgrwt>
<rscale>  0 0.14011173E+04</rscale>
<asrwt>0</asrwt>
<pdfrwt beam="1">  1        2 0.74331653E-01 0.14011173E+04</pdfrwt>
<pdfrwt beam="2">  1       -1 0.15627465E+00 0.14011173E+04</pdfrwt>
<totfact> 0.22251785E+01</totfact>
</mgrwt>
</event>
<event>
12    6  0.1611689E-007  0.1210470E+04  0.7818608E-02  0.9103741E-01
          2   -1    0    0  501    0  0.00000000000E+00  0.00000000000E+00  0.17449391361E+04  0.17449391361E+04  0.00000000000E+00 0. -1.
         -1   -1    0    0    0  501 -0.00000000000E+00 -0.00000000000E+00 -0.20992684663E+03  0.20992684663E+03  0.00000000000E+00 0.  1.
         24    2    1    2    0    0  0.94128688546E+02 -0.13148370995E+03  0.15459537360E+02  0.18131699566E+03  0.80552340930E+02 0.  0.
        254    2    1    2    0    0 -0.94128688546E+02  0.13148370995E+03  0.15195527521E+04  0.17735489871E+04  0.90015957868E+03 0.  0.
         23    2    4    4    0    0 -0.35450987764E+03  0.38140200917E+03  0.10306277909E+04  0.11582738071E+04  0.90883567956E+02 0.  0.
         23    2    4    4    0    0  0.26038118909E+03 -0.24991829922E+03  0.48892496119E+03  0.61527517993E+03  0.96220629063E+02 0.  0.
          2    1    3    3  502    0  0.14898446054E+02 -0.89267606170E+02  0.13629864626E+02  0.91522906509E+02  0.00000000000E+00 0. -1.
         -1    1    3    3    0  502  0.79230242492E+02 -0.42216103780E+02  0.18296727343E+01  0.89794089149E+02  0.00000000000E+00 0.  1.
         11    1    5    5    0    0 -0.12554306994E+03  0.12718784681E+03  0.45230014068E+03  0.48632625679E+03  0.00000000000E+00 0. -1.
        -11    1    5    5    0    0 -0.22896680770E+03  0.25421416236E+03  0.57832765023E+03  0.67194755033E+03  0.00000000000E+00 0.  1.
          2    1    6    6  503    0  0.11991639825E+01 -0.82117769354E+01  0.52156874554E+02  0.52812979825E+02  0.00000000000E+00 0. -1.
         -2    1    6    6    0  503  0.25918202511E+03 -0.24170652228E+03  0.43676808663E+03  0.56246220011E+03  0.00000000000E+00 0.  1.
<mgrwt>
<rscale>  0 0.12104703E+04</rscale>
<asrwt>0</asrwt>
<pdfrwt beam="1">  1        2 0.26845216E+00 0.12104703E+04</pdfrwt>
<pdfrwt beam="2">  1       -1 0.32296439E-01 0.12104703E+04</pdfrwt>
<totfact> 0.93164799E+01</totfact>
</mgrwt>
</event>
<event>
12    6  0.1611689E-007  0.2325606E+04  0.7818608E-02  0.8467893E-01
         -1   -1    0    0    0  501 -0.00000000000E+00  0.00000000000E+00  0.76787146075E+03  0.76787146075E+03  0.00000000000E+00 0.  1.
          2   -1    0    0  501    0  0.00000000000E+00 -0.00000000000E+00 -0.17608559437E+04  0.17608559437E+04  0.00000000000E+00 0. -1.
         24    2    1    2    0    0 -0.19246892146E+03  0.38607752702E+03 -0.13840667376E+04  0.14518053126E+04  0.77445393160E+02 0.  0.
        254    2    1    2    0    0  0.19246892146E+03 -0.38607752702E+03  0.39108225466E+03  0.10769220919E+04  0.90593361756E+03 0.  0.
         23    2    4    4    0    0  0.51637956855E+03 -0.16795104292E+03  0.39194034601E+03  0.67595125760E+03  0.91855626886E+02 0.  0.
         23    2    4    4    0    0 -0.32391064709E+03 -0.21812648409E+03 -0.85809135466E+00  0.40097083426E+03  0.90992325194E+02 0.  0.
          2    1    3    3  502    0 -0.15270542598E+03  0.32837165555E+03 -0.10570426781E+04  0.11173567535E+04  0.00000000000E+00 0. -1.
         -1    1    3    3    0  502 -0.39763495482E+02  0.57705871463E+02 -0.32702405947E+03  0.33444855904E+03  0.00000000000E+00 0.  1.
         11    1    5    5    0    0  0.25976636532E+03 -0.13241843086E+03  0.20148818580E+03  0.35441599061E+03  0.00000000000E+00 0.  1.
        -11    1    5    5    0    0  0.25661320323E+03 -0.35532612063E+02  0.19045216022E+03  0.32153526700E+03  0.00000000000E+00 0. -1.
          1    1    6    6  503    0 -0.14646555878E+02 -0.16532991365E+02 -0.22031877537E+02  0.31197195873E+02  0.00000000000E+00 0. -1.
         -1    1    6    6    0  503 -0.30926409121E+03 -0.20159349273E+03  0.21173786182E+02  0.36977363838E+03  0.00000000000E+00 0.  1.
<mgrwt>
<rscale>  0 0.23256062E+04</rscale>
<asrwt>0</asrwt>
<pdfrwt beam="1">  1        2 0.27090092E+00 0.23256062E+04</pdfrwt>
<pdfrwt beam="2">  1       -1 0.11813407E+00 0.23256062E+04</pdfrwt>
<totfact> 0.60107775E+00</totfact>
</mgrwt>
</event>
<event>
12    6  0.1611689E-007  0.3417978E+04  0.7818608E-02  0.8133508E-01
          2   -1    0    0  501    0  0.00000000000E+00  0.00000000000E+00  0.14516166917E+04  0.14516166917E+04  0.00000000000E+00 0. -1.
         -1   -1    0    0    0  501 -0.00000000000E+00 -0.00000000000E+00 -0.20119938148E+04  0.20119938148E+04  0.00000000000E+00 0.  1.
         24    2    1    2    0    0  0.42741856233E+03  0.81074324832E+03 -0.15787099445E+04  0.18272251099E+04  0.80220140886E+02 0.  0.
        254    2    1    2    0    0 -0.42741856233E+03 -0.81074324832E+03  0.10183328215E+04  0.16363853966E+04  0.89485428358E+03 0.  0.
         23    2    4    4    0    0 -0.42989862261E+03 -0.74899313814E+03  0.31390603230E+03  0.92355035189E+03  0.92761568915E+02 0.  0.
         23    2    4    4    0    0  0.24800602707E+01 -0.61750110185E+02  0.70442678921E+03  0.71283504475E+03  0.89985959260E+02 0.  0.
          4    1    3    3  502    0  0.17418441871E+03  0.40132332360E+03 -0.70682227508E+03  0.83126310536E+03  0.00000000000E+00 0. -1.
         -3    1    3    3    0  502  0.25323414363E+03  0.40941992472E+03 -0.87188766946E+03  0.99596200450E+03  0.00000000000E+00 0.  1.
         11    1    5    5    0    0 -0.40349619417E+03 -0.73551534561E+03  0.30328346913E+03  0.89206102089E+03  0.00000000000E+00 0. -1.
        -11    1    5    5    0    0 -0.26402428435E+02 -0.13477792524E+02  0.10622563175E+02  0.31489331002E+02  0.00000000000E+00 0.  1.
          3    1    6    6  503    0 -0.59562539338E+01 -0.55551651676E+02  0.69864599329E+03  0.70087637063E+03  0.00000000000E+00 0. -1.
         -3    1    6    6    0  503  0.84363142045E+01 -0.61984585084E+01  0.57807959112E+01  0.11958674116E+02  0.00000000000E+00 0.  1.
<mgrwt>
<rscale>  0 0.34179782E+04</rscale>
<asrwt>0</asrwt>
<pdfrwt beam="1">  1        2 0.22332565E+00 0.34179782E+04</pdfrwt>
<pdfrwt beam="2">  1       -1 0.30953751E+00 0.34179782E+04</pdfrwt>
<totfact> 0.36462189E-01</totfact>
</mgrwt>
</event>
<event>
12    6  0.1611689E-007  0.1885658E+04  0.7818608E-02  0.8662028E-01
          2   -1    0    0  501    0  0.00000000000E+00  0.00000000000E+00  0.26349204226E+04  0.26349204226E+04  0.00000000000E+00 0. -1.
         -1   -1    0    0    0  501 -0.00000000000E+00 -0.00000000000E+00 -0.33736368449E+03  0.33736368449E+03  0.00000000000E+00 0.  1.
         24    2    1    2    0    0 -0.29968496083E+03 -0.51848831799E+03  0.14391478936E+04  0.15605794386E+04  0.74968744975E+02 0.  0.
        254    2    1    2    0    0  0.29968496083E+03  0.51848831799E+03  0.85840884448E+03  0.14117046685E+04  0.94731363084E+03 0.  0.
         23    2    4    4    0    0  0.59566477282E+03  0.51092543495E+03  0.48914059147E+03  0.93008468796E+03  0.99687947561E+02 0.  0.
         23    2    4    4    0    0 -0.29597981199E+03  0.75628830373E+01  0.36926825301E+03  0.48161998056E+03  0.89092742030E+02 0.  0.
          4    1    3    3  502    0 -0.18699596916E+03 -0.38713451001E+03  0.10554509069E+04  0.11396566317E+04  0.00000000000E+00 0. -1.
         -3    1    3    3    0  502 -0.11268899166E+03 -0.13135380797E+03  0.38369698673E+03  0.42092280686E+03  0.00000000000E+00 0.  1.
         11    1    5    5    0    0  0.38127082856E+03  0.38769320195E+03  0.33990189519E+03  0.64125405410E+03  0.00000000000E+00 0. -1.
        -11    1    5    5    0    0  0.21439394426E+03  0.12323223300E+03  0.14923869628E+03  0.28883063385E+03  0.00000000000E+00 0.  1.
          3    1    6    6  503    0 -0.14298073477E+03 -0.14575670446E+01  0.10986176671E+03  0.18031977929E+03  0.00000000000E+00 0. -1.
         -3    1    6    6    0  503 -0.15299907722E+03  0.90204500819E+01  0.25940648630E+03  0.30130020127E+03  0.00000000000E+00 0.  1.
<mgrwt>
<rscale>  0 0.18856579E+04</rscale>
<asrwt>0</asrwt>
<pdfrwt beam="1">  1        2 0.40537236E+00 0.18856579E+04</pdfrwt>
<pdfrwt beam="2">  1       -1 0.51902107E-01 0.18856579E+04</pdfrwt>
<totfact> 0.11593961E+01</totfact>
</mgrwt>
</event>
<event>
12    6  0.1611689E-007  0.1485431E+04  0.7818608E-02  0.8894199E-01
         -1   -1    0    0    0  501 -0.00000000000E+00  0.00000000000E+00  0.73452957504E+03  0.73452957504E+03  0.00000000000E+00 0.  1.
          2   -1    0    0  501    0  0.00000000000E+00 -0.00000000000E+00 -0.75099283750E+03  0.75099283750E+03  0.00000000000E+00 0. -1.
         24    2    1    2    0    0  0.10103319719E+03 -0.54614401277E+01  0.44965735717E+03  0.46768613821E+03  0.79379158200E+02 0.  0.
        254    2    1    2    0    0 -0.10103319719E+03  0.54614401277E+01 -0.46612061963E+03  0.10178362743E+04  0.89915778093E+03 0.  0.
         23    2    4    4    0    0  0.39176807527E+03 -0.11021823780E+02 -0.23145243062E+03  0.46402830403E+03  0.90268122291E+02 0.  0.
         23    2    4    4    0    0 -0.49280127246E+03  0.16483263907E+02 -0.23466818902E+03  0.55380797029E+03  0.92245958669E+02 0.  0.
          2    1    3    3  502    0  0.14558229007E+02  0.10688931863E+02  0.12993504578E+02  0.22249190040E+02  0.00000000000E+00 0. -1.
         -1    1    3    3    0  502  0.86474968185E+02 -0.16150371990E+02  0.43666385259E+03  0.44543694817E+03  0.00000000000E+00 0.  1.
         11    1    5    5    0    0  0.38622023212E+03 -0.25115355786E+02 -0.22300972930E+03  0.44668802106E+03  0.00000000000E+00 0.  1.
        -11    1    5    5    0    0  0.55478431527E+01  0.14093532006E+02 -0.84427013110E+01  0.17340282970E+02  0.00000000000E+00 0. -1.
          2    1    6    6  503    0 -0.34446510254E+02  0.25826968563E+02 -0.16688107907E+02  0.46174531068E+02  0.00000000000E+00 0. -1.
         -2    1    6    6    0  503 -0.45835476221E+03 -0.93437046555E+01 -0.21798008111E+03  0.50763343922E+03  0.00000000000E+00 0.  1.
<mgrwt>
<rscale>  0 0.14854312E+04</rscale>
<asrwt>0</asrwt>
<pdfrwt beam="1">  1        2 0.11553736E+00 0.14854312E+04</pdfrwt>
<pdfrwt beam="2">  1       -1 0.11300455E+00 0.14854312E+04</pdfrwt>
<totfact> 0.29607525E+01</totfact>
</mgrwt>
</event>
<event>
12    6  0.1611689E-007  0.2061057E+04  0.7818608E-02  0.8578595E-01
         -1   -1    0    0    0  501 -0.00000000000E+00  0.00000000000E+00  0.36415069953E+03  0.36415069953E+03  0.00000000000E+00 0.  1.
          2   -1    0    0  501    0  0.00000000000E+00 -0.00000000000E+00 -0.29163460515E+04  0.29163460515E+04  0.00000000000E+00 0. -1.
         24    2    1    2    0    0 -0.36912653601E+03 -0.44425759593E+03 -0.87811893681E+02  0.59008213514E+03  0.82866075174E+02 0.  0.
        254    2    1    2    0    0  0.36912653601E+03  0.44425759593E+03 -0.24643834582E+04  0.26904146159E+04  0.91188034565E+03 0.  0.
         23    2    4    4    0    0  0.43940658354E+03  0.49157430715E+03 -0.89150833654E+03  0.11125973156E+04  0.91445216046E+02 0.  0.
         23    2    4    4    0    0 -0.70280047528E+02 -0.47316711225E+02 -0.15728751217E+04  0.15778173002E+04  0.91614017087E+02 0.  0.
          2    1    3    3  502    0 -0.19959723030E+01 -0.14109417960E+02 -0.13628310418E+02  0.19717769282E+02  0.00000000000E+00 0. -1.
         -1    1    3    3    0  502 -0.36713056370E+03 -0.43014817797E+03 -0.74183583264E+02  0.57036436586E+03  0.00000000000E+00 0.  1.
         11    1    5    5    0    0  0.15185226927E+03  0.11572870777E+03 -0.22342590214E+03  0.29389008019E+03  0.00000000000E+00 0. -1.
        -11    1    5    5    0    0  0.28755431426E+03  0.37584559938E+03 -0.66808243440E+03  0.81870723545E+03  0.00000000000E+00 0.  1.
          1    1    6    6  503    0 -0.32888121105E+02  0.65245045078E+01 -0.16267317359E+03  0.16609262197E+03  0.00000000000E+00 0. -1.
         -1    1    6    6    0  503 -0.37391926423E+02 -0.53841215732E+02 -0.14102019481E+04  0.14117246782E+04  0.00000000000E+00 0.  1.
<mgrwt>
<rscale>  0 0.20610575E+04</rscale>
<asrwt>0</asrwt>
<pdfrwt beam="1">  1        2 0.44866862E+00 0.20610575E+04</pdfrwt>
<pdfrwt beam="2">  1       -1 0.56023185E-01 0.20610575E+04</pdfrwt>
<totfact> 0.66683271E+00</totfact>
</mgrwt>
</event>
<event>
12    6  0.1611689E-007  0.1533301E+04  0.7818608E-02  0.8862605E-01
          2   -1    0    0  501    0  0.00000000000E+00  0.00000000000E+00  0.24669121993E+04  0.24669121993E+04  0.00000000000E+00 0. -1.
         -1   -1    0    0    0  501 -0.00000000000E+00 -0.00000000000E+00 -0.23825455295E+03  0.23825455295E+03  0.00000000000E+00 0.  1.
         24    2    1    2    0    0 -0.38541131673E+03 -0.18899598679E+03  0.11896898655E+04  0.12671763079E+04  0.78182178426E+02 0.  0.
        254    2    1    2    0    0  0.38541131673E+03  0.18899598679E+03  0.10389677808E+04  0.14379904444E+04  0.89671684630E+03 0.  0.
         23    2    4    4    0    0  0.47967434277E+03 -0.22878324401E+03  0.44309229838E+03  0.69848351556E+03  0.95494443673E+02 0.  0.
         23    2    4    4    0    0 -0.94263026035E+02  0.41777923080E+03  0.59587548243E+03  0.73950692881E+03  0.91530887841E+02 0.  0.
          2    1    3    3  502    0 -0.10904642386E+03 -0.50868105663E+02  0.44396373933E+03  0.45998096544E+03  0.00000000000E+00 0. -1.
         -1    1    3    3    0  502 -0.27636489287E+03 -0.13812788113E+03  0.74572612619E+03  0.80719534243E+03  0.00000000000E+00 0.  1.
         11    1    5    5    0    0  0.26181446658E+03 -0.10676623495E+03  0.29282735476E+03  0.40705491464E+03  0.00000000000E+00 0. -1.
        -11    1    5    5    0    0  0.21785987619E+03 -0.12201700906E+03  0.15026494363E+03  0.29142860092E+03  0.00000000000E+00 0.  1.
          4    1    6    6  503    0 -0.91808073230E+02  0.30244855839E+03  0.37595485208E+03  0.49116789755E+03  0.00000000000E+00 0. -1.
         -4    1    6    6    0  503 -0.24549528052E+01  0.11533067241E+03  0.21992063035E+03  0.24833903126E+03  0.00000000000E+00 0.  1.
<mgrwt>
<rscale>  0 0.15333011E+04</rscale>
<asrwt>0</asrwt>
<pdfrwt beam="1">  1        2 0.37952494E+00 0.15333011E+04</pdfrwt>
<pdfrwt beam="2">  1       -1 0.36654548E-01 0.15333011E+04</pdfrwt>
<totfact> 0.28579156E+01</totfact>
</mgrwt>
</event>
<event>
12    6  0.1611689E-007  0.1325873E+04  0.7818608E-02  0.9009295E-01
          2   -1    0    0  501    0  0.00000000000E+00  0.00000000000E+00  0.12387849491E+04  0.12387849491E+04  0.00000000000E+00 0. -1.
         -1   -1    0    0    0  501 -0.00000000000E+00 -0.00000000000E+00 -0.35477097018E+03  0.35477097018E+03  0.00000000000E+00 0.  1.
         24    2    1    2    0    0  0.13102443975E+02  0.15087421092E+03  0.63133924986E+03  0.65428848958E+03  0.81052314141E+02 0.  0.
        254    2    1    2    0    0 -0.13102443975E+02 -0.15087421092E+03  0.25267472901E+03  0.93926742965E+03  0.89187672027E+03 0.  0.
         23    2    4    4    0    0  0.19753972156E+03 -0.31206104003E+03 -0.18242267796E+03  0.42179576989E+03  0.90717163595E+02 0.  0.
         23    2    4    4    0    0 -0.21064216553E+03  0.16118682911E+03  0.43509740698E+03  0.51747165975E+03  0.90088008718E+02 0.  0.
          4    1    3    3  502    0 -0.12130470274E+02  0.14486662291E+03  0.55170187044E+03  0.57053347017E+03  0.00000000000E+00 0. -1.
         -3    1    3    3    0  502  0.25232914249E+02  0.60075880108E+01  0.79637379419E+02  0.83755019407E+02  0.00000000000E+00 0.  1.
         11    1    5    5    0    0  0.14108667690E+03 -0.22982469241E+03 -0.85985639764E+02  0.28305188550E+03  0.00000000000E+00 0. -1.
        -11    1    5    5    0    0  0.56453044656E+02 -0.82236347621E+02 -0.96437038199E+02  0.13874388440E+03  0.00000000000E+00 0.  1.
          2    1    6    6  503    0 -0.46174759301E+02  0.59893503049E+02  0.19610126139E+03  0.21017860220E+03  0.00000000000E+00 0.  1.
         -2    1    6    6    0  503 -0.16446740623E+03  0.10129332606E+03  0.23899614558E+03  0.30729305755E+03  0.00000000000E+00 0. -1.
<mgrwt>
<rscale>  0 0.13258732E+04</rscale>
<asrwt>0</asrwt>
<pdfrwt beam="1">  1        2 0.19058230E+00 0.13258732E+04</pdfrwt>
<pdfrwt beam="2">  1       -1 0.54580150E-01 0.13258732E+04</pdfrwt>
<totfact> 0.67926982E+01</totfact>
</mgrwt>
</event>
<event>
12    6  0.1611689E-007  0.1549122E+04  0.7818608E-02  0.8852429E-01
          2   -1    0    0  501    0  0.00000000000E+00  0.00000000000E+00  0.14752711363E+04  0.14752711363E+04  0.00000000000E+00 0. -1.
         -3   -1    0    0    0  501 -0.00000000000E+00 -0.00000000000E+00 -0.40666756250E+03  0.40666756250E+03  0.00000000000E+00 0.  1.
         24    2    1    2    0    0 -0.98570248295E+02  0.39338533885E+03  0.73214534202E+03  0.84076096799E+03  0.79837865521E+02 0.  0.
        254    2    1    2    0    0  0.98570248295E+02 -0.39338533885E+03  0.33645823181E+03  0.10411777308E+04  0.89798597249E+03 0.  0.
         23    2    4    4    0    0 -0.38947358132E+03 -0.15200227329E+03  0.91705206102E+02  0.43726690198E+03  0.89432304598E+02 0.  0.
         23    2    4    4    0    0  0.48804382962E+03 -0.24138306556E+03  0.24475302570E+03  0.60391082886E+03  0.91387535578E+02 0.  0.
          2    1    3    3  502    0 -0.67624418056E+02  0.36205759001E+03  0.67051121385E+03  0.76501244977E+03  0.00000000000E+00 0. -1.
         -1    1    3    3    0  502 -0.30945830239E+02  0.31327748847E+02  0.61634128171E+02  0.75748518220E+02  0.00000000000E+00 0.  1.
         11    1    5    5    0    0 -0.31885072762E+03 -0.14230297884E+03  0.45021458760E+02  0.35205518891E+03  0.00000000000E+00 0.  1.
        -11    1    5    5    0    0 -0.70622853701E+02 -0.96992944511E+01  0.46683747342E+02  0.85211713066E+02  0.00000000000E+00 0. -1.
          3    1    6    6  503    0  0.32266297430E+03 -0.15827567826E+03  0.11307134546E+03  0.37675949156E+03  0.00000000000E+00 0. -1.
         -3    1    6    6    0  503  0.16538085532E+03 -0.83107387299E+02  0.13168168024E+03  0.22715133731E+03  0.00000000000E+00 0.  1.
<mgrwt>
<rscale>  0 0.15491222E+04</rscale>
<asrwt>0</asrwt>
<pdfrwt beam="1">  1        2 0.22696479E+00 0.15491222E+04</pdfrwt>
<pdfrwt beam="2">  1       -3 0.62564241E-01 0.15491222E+04</pdfrwt>
<totfact> 0.20032292E+01</totfact>
</mgrwt>
</event>
<event>
12    6  0.1611689E-007  0.2841606E+04  0.7818608E-02  0.8290467E-01
         -1   -1    0    0    0  501 -0.00000000000E+00  0.00000000000E+00  0.25204602743E+04  0.25204602743E+04  0.00000000000E+00 0.  1.
          2   -1    0    0  501    0  0.00000000000E+00 -0.00000000000E+00 -0.80091772403E+03  0.80091772403E+03  0.00000000000E+00 0. -1.
         24    2    1    2    0    0 -0.22050434160E+03 -0.42747275630E+03 -0.60631073427E+03  0.77819386322E+03  0.81350231858E+02 0.  0.
        254    2    1    2    0    0  0.22050434160E+03  0.42747275630E+03  0.23258532846E+04  0.25431841351E+04  0.90930573617E+03 0.  0.
         23    2    4    4    0    0 -0.27835044482E+03  0.38807112899E+03  0.14620214809E+04  0.15407016905E+04  0.90425202090E+02 0.  0.
         23    2    4    4    0    0  0.49885478642E+03  0.39401627311E+02  0.86383180362E+03  0.10024824446E+04  0.91417069657E+02 0.  0.
          4    1    3    3  502    0 -0.21945521463E+03 -0.38897368348E+03 -0.53296051698E+03  0.69534741699E+03  0.00000000000E+00 0. -1.
         -3    1    3    3    0  502 -0.10491269716E+01 -0.38499072821E+02 -0.73350217292E+02  0.82846446226E+02  0.00000000000E+00 0.  1.
         11    1    5    5    0    0 -0.11550557621E+03  0.10057728851E+03  0.39325463821E+03  0.42202670481E+03  0.00000000000E+00 0.  1.
        -11    1    5    5    0    0 -0.16284486861E+03  0.28749384048E+03  0.10687668427E+04  0.11186749857E+04  0.00000000000E+00 0. -1.
          1    1    6    6  503    0  0.48115084142E+03  0.55980373789E+02  0.82523046433E+03  0.95689354357E+03  0.00000000000E+00 0. -1.
         -1    1    6    6    0  503  0.17703944996E+02 -0.16578746478E+02  0.38601339289E+02  0.45588901041E+02  0.00000000000E+00 0.  1.
<mgrwt>
<rscale>  0 0.28416061E+04</rscale>
<asrwt>0</asrwt>
<pdfrwt beam="1">  1        2 0.12321811E+00 0.28416061E+04</pdfrwt>
<pdfrwt beam="2">  1       -1 0.38776312E+00 0.28416061E+04</pdfrwt>
<totfact> 0.29464467E-01</totfact>
</mgrwt>
</event>
<event>
12    6  0.1611689E-007  0.1819814E+04  0.7818608E-02  0.8695833E-01
         -1   -1    0    0    0  501 -0.00000000000E+00  0.00000000000E+00  0.44429719888E+03  0.44429719888E+03  0.00000000000E+00 0.  1.
          2   -1    0    0  501    0  0.00000000000E+00 -0.00000000000E+00 -0.18634610291E+04  0.18634610291E+04  0.00000000000E+00 0. -1.
         24    2    1    2    0    0  0.58105125938E+03  0.32135274976E+03 -0.87207398620E+03  0.10989341976E+04  0.79089679131E+02 0.  0.
        254    2    1    2    0    0 -0.58105125938E+03 -0.32135274976E+03 -0.54708984405E+03  0.12088240305E+04  0.84915256777E+03 0.  0.
         23    2    4    4    0    0 -0.68295366060E+03 -0.50143267604E+03 -0.42540432570E+03  0.95237473707E+03  0.90489603554E+02 0.  0.
         23    2    4    4    0    0  0.10190240122E+03  0.18007992628E+03 -0.12168551835E+03  0.25644929339E+03  0.90255168726E+02 0.  0.
          4    1    3    3  502    0  0.48789280486E+03  0.23774859699E+03 -0.68730930067E+03  0.87576130263E+03  0.00000000000E+00 0. -1.
         -3    1    3    3    0  502  0.93158454527E+02  0.83604152766E+02 -0.18476468553E+03  0.22317289492E+03  0.00000000000E+00 0.  1.
         11    1    5    5    0    0 -0.59581436418E+01 -0.97224661945E+01  0.37655013311E+01  0.12008531335E+02  0.00000000000E+00 0. -1.
        -11    1    5    5    0    0 -0.67699551696E+03 -0.49171020984E+03 -0.42916982703E+03  0.94036620573E+03  0.00000000000E+00 0.  1.
          3    1    6    6  503    0  0.54873593446E+02  0.29874358740E+02 -0.95752833639E+01  0.63208184750E+02  0.00000000000E+00 0. -1.
         -3    1    6    6    0  503  0.47028807770E+02  0.15020556754E+03 -0.11211023498E+03  0.19324110864E+03  0.00000000000E+00 0.  1.
<mgrwt>
<rscale>  0 0.18198137E+04</rscale>
<asrwt>0</asrwt>
<pdfrwt beam="1">  1        2 0.28668631E+00 0.18198137E+04</pdfrwt>
<pdfrwt beam="2">  1       -1 0.68353416E-01 0.18198137E+04</pdfrwt>
<totfact> 0.18503617E+01</totfact>
</mgrwt>
</event>
<event>
12    6  0.1611689E-007  0.1465896E+04  0.7818608E-02  0.8907454E-01
         -1   -1    0    0    0  501 -0.00000000000E+00  0.00000000000E+00  0.22669439984E+03  0.22669439984E+03  0.00000000000E+00 0.  1.
          2   -1    0    0  501    0  0.00000000000E+00 -0.00000000000E+00 -0.23697667223E+04  0.23697667223E+04  0.00000000000E+00 0. -1.
         24    2    1    2    0    0  0.24883574734E+03 -0.37648444218E+03 -0.69680958122E+03  0.83415714066E+03  0.81331288358E+02 0.  0.
        254    2    1    2    0    0 -0.24883574734E+03  0.37648444218E+03 -0.14462627413E+04  0.17623039815E+04  0.90021088757E+03 0.  0.
         23    2    4    4    0    0 -0.26173912012E+03  0.49214361708E+03 -0.15015748553E+04  0.16043633960E+04  0.92423771709E+02 0.  0.
         23    2    4    4    0    0  0.12903372773E+02 -0.11565917490E+03  0.55312114001E+02  0.15794058552E+03  0.91335955850E+02 0.  0.
          2    1    3    3  502    0  0.76579811448E+02 -0.71196450066E+02 -0.20610296050E+03  0.23111000054E+03  0.00000000000E+00 0. -1.
         -1    1    3    3    0  502  0.17225593590E+03 -0.30528799212E+03 -0.49070662072E+03  0.60304714012E+03  0.00000000000E+00 0.  1.
         11    1    5    5    0    0 -0.17514464464E+03  0.40612251595E+03 -0.12083876414E+04  0.12867835235E+04  0.00000000000E+00 0. -1.
        -11    1    5    5    0    0 -0.86594475474E+02  0.86021101136E+02 -0.29318721391E+03  0.31757987251E+03  0.00000000000E+00 0.  1.
          1    1    6    6  503    0 -0.22785647218E+02 -0.10433113807E+03  0.55808030556E+02  0.12049360300E+03  0.00000000000E+00 0. -1.
         -1    1    6    6    0  503  0.35689019991E+02 -0.11328036834E+02 -0.49591655563E+00  0.37446982518E+02  0.00000000000E+00 0.  1.
<mgrwt>
<rscale>  0 0.14658961E+04</rscale>
<asrwt>0</asrwt>
<pdfrwt beam="1">  1        2 0.36457951E+00 0.14658961E+04</pdfrwt>
<pdfrwt beam="2">  1       -1 0.34876060E-01 0.14658961E+04</pdfrwt>
<totfact> 0.35720683E+01</totfact>
</mgrwt>
</event>
<event>
12    6  0.1611689E-007  0.1762041E+04  0.7818608E-02  0.8726750E-01
         -1   -1    0    0    0  501 -0.00000000000E+00  0.00000000000E+00  0.27363271587E+03  0.27363271587E+03  0.00000000000E+00 0.  1.
          2   -1    0    0  501    0  0.00000000000E+00 -0.00000000000E+00 -0.28366391921E+04  0.28366391921E+04  0.00000000000E+00 0. -1.
         24    2    1    2    0    0  0.30427355315E+03  0.41759023367E+03 -0.26385430293E+03  0.58538496985E+03  0.78054284698E+02 0.  0.
        254    2    1    2    0    0 -0.30427355315E+03 -0.41759023367E+03 -0.22991521733E+04  0.25248869381E+04  0.90663627540E+03 0.  0.
         23    2    4    4    0    0  0.18680196645E+03 -0.18950789396E+03 -0.17579674942E+03  0.33162134325E+03  0.90884551206E+02 0.  0.
         23    2    4    4    0    0 -0.49107551960E+03 -0.22808233970E+03 -0.21233554239E+04  0.21932655949E+04  0.92730760008E+02 0.  0.
          4    1    3    3  502    0  0.52566648808E+01  0.26170623131E+02 -0.29901766699E+02  0.40083034971E+02  0.00000000000E+00 0. -1.
         -3    1    3    3    0  502  0.29901688826E+03  0.39141961053E+03 -0.23395253623E+03  0.54530193488E+03  0.00000000000E+00 0.  1.
         11    1    5    5    0    0  0.29475136908E+02 -0.66904000351E+02 -0.86017846312E+02  0.11288932121E+03  0.00000000000E+00 0.  1.
        -11    1    5    5    0    0  0.15732682955E+03 -0.12260389361E+03 -0.89778903107E+02  0.21873202204E+03  0.00000000000E+00 0. -1.
          1    1    6    6  503    0 -0.35723057021E+03 -0.18774545026E+03 -0.17075432315E+04  0.17545842590E+04  0.00000000000E+00 0. -1.
         -1    1    6    6    0  503 -0.13384494939E+03 -0.40336889443E+02 -0.41581219235E+03  0.43868133586E+03  0.00000000000E+00 0.  1.
<mgrwt>
<rscale>  0 0.17620412E+04</rscale>
<asrwt>0</asrwt>
<pdfrwt beam="1">  1        2 0.43640600E+00 0.17620412E+04</pdfrwt>
<pdfrwt beam="2">  1       -1 0.42097343E-01 0.17620412E+04</pdfrwt>
<totfact> 0.13171685E+01</totfact>
</mgrwt>
</event>
<event>
12    6  0.1611689E-007  0.2094276E+04  0.7818608E-02  0.8563769E-01
          2   -1    0    0  501    0  0.00000000000E+00  0.00000000000E+00  0.29536932575E+04  0.29536932575E+04  0.00000000000E+00 0. -1.
         -1   -1    0    0    0  501 -0.00000000000E+00 -0.00000000000E+00 -0.37122930665E+03  0.37122930665E+03  0.00000000000E+00 0.  1.
         24    2    1    2    0    0  0.44530407648E+03 -0.63019320437E+03  0.53577027482E+03  0.94282058106E+03  0.80135293898E+02 0.  0.
        254    2    1    2    0    0 -0.44530407648E+03  0.63019320437E+03  0.20466936760E+04  0.23821019831E+04  0.94340641243E+03 0.  0.
         23    2    4    4    0    0 -0.43237357532E+03  0.46485193023E+03  0.20940366611E+04  0.21900731332E+04  0.91632772263E+02 0.  0.
         23    2    4    4    0    0 -0.12930501160E+02  0.16534127414E+03 -0.47342985064E+02  0.19202884993E+03  0.84432139475E+02 0.  0.
          4    1    3    3  502    0  0.10100628988E+03 -0.12338158925E+03  0.75066429663E+02  0.17623920115E+03  0.00000000000E+00 0. -1.
         -3    1    3    3    0  502  0.34429778661E+03 -0.50681161512E+03  0.46070384516E+03  0.76658137991E+03  0.00000000000E+00 0.  1.
         11    1    5    5    0    0 -0.28968283348E+02  0.72531090247E+02  0.28796763158E+03  0.29837103970E+03  0.00000000000E+00 0.  1.
        -11    1    5    5    0    0 -0.40340529197E+03  0.39232083998E+03  0.18060690295E+04  0.18917020935E+04  0.00000000000E+00 0. -1.
          3    1    6    6  503    0 -0.92287686280E+01  0.15892738296E+03 -0.65711334400E+02  0.17222387376E+03  0.00000000000E+00 0. -1.
         -3    1    6    6    0  503 -0.37017325321E+01  0.64138911828E+01  0.18368349335E+02  0.19804976171E+02  0.00000000000E+00 0.  1.
<mgrwt>
<rscale>  0 0.20942755E+04</rscale>
<asrwt>0</asrwt>
<pdfrwt beam="1">  1        2 0.45441433E+00 0.20942755E+04</pdfrwt>
<pdfrwt beam="2">  1       -1 0.57112203E-01 0.20942755E+04</pdfrwt>
<totfact> 0.60716981E+00</totfact>
</mgrwt>
</event>
<event>
12    6  0.1611689E-007  0.1296483E+04  0.7818608E-02  0.9032359E-01
          2   -1    0    0  501    0  0.00000000000E+00  0.00000000000E+00  0.78231100639E+03  0.78231100639E+03  0.00000000000E+00 0. -1.
         -1   -1    0    0    0  501 -0.00000000000E+00 -0.00000000000E+00 -0.53714851296E+03  0.53714851296E+03  0.00000000000E+00 0.  1.
         24    2    1    2    0    0 -0.14858942558E+03 -0.29120319991E+03  0.11346313006E+03  0.35538989334E+03  0.80931905780E+02 0.  0.
        254    2    1    2    0    0  0.14858942558E+03  0.29120319991E+03  0.13169936338E+03  0.96406962601E+03  0.89733349456E+03 0.  0.
         23    2    4    4    0    0  0.43622978356E+02  0.20521083465E+03 -0.37061150032E+03  0.43592174810E+03  0.93061460344E+02 0.  0.
         23    2    4    4    0    0  0.10496644723E+03  0.85992365258E+02  0.50231086370E+03  0.52814787791E+03  0.90616418077E+02 0.  0.
          4    1    3    3  502    0 -0.14086391561E+02 -0.10895202966E+02  0.27594952618E+02  0.32842248474E+02  0.00000000000E+00 0. -1.
         -3    1    3    3    0  502 -0.13450303402E+03 -0.28030799694E+03  0.85868177438E+02  0.32254764486E+03  0.00000000000E+00 0.  1.
         11    1    5    5    0    0  0.40998885503E+02  0.73290982795E+02 -0.76625692743E+02  0.11368365564E+03  0.00000000000E+00 0.  1.
        -11    1    5    5    0    0  0.26240928527E+01  0.13191985185E+03 -0.29398580758E+03  0.32223809246E+03  0.00000000000E+00 0. -1.
          1    1    6    6  503    0  0.11698396918E+03  0.90726767888E+02  0.43205346978E+03  0.45671303485E+03  0.00000000000E+00 0. -1.
         -1    1    6    6    0  503 -0.12017521954E+02 -0.47344026301E+01  0.70257393919E+02  0.71434843056E+02  0.00000000000E+00 0.  1.
<mgrwt>
<rscale>  0 0.12964832E+04</rscale>
<asrwt>0</asrwt>
<pdfrwt beam="1">  1        2 0.12035554E+00 0.12964832E+04</pdfrwt>
<pdfrwt beam="2">  1       -1 0.82638233E-01 0.12964832E+04</pdfrwt>
<totfact> 0.57823936E+01</totfact>
</mgrwt>
</event>
<event>
12    6  0.1611689E-007  0.2409518E+04  0.7818608E-02  0.8435949E-01
         -1   -1    0    0    0  501 -0.00000000000E+00  0.00000000000E+00  0.10993879688E+04  0.10993879688E+04  0.00000000000E+00 0.  1.
          2   -1    0    0  501    0  0.00000000000E+00 -0.00000000000E+00 -0.13202291030E+04  0.13202291030E+04  0.00000000000E+00 0. -1.
         24    2    1    2    0    0  0.78574999000E+02  0.10268097993E+04 -0.20727752793E+03  0.10535060561E+04  0.79991512678E+02 0.  0.
        254    2    1    2    0    0 -0.78574999000E+02 -0.10268097993E+04 -0.13563606354E+02  0.13661110157E+04  0.89753158236E+03 0.  0.
         23    2    4    4    0    0 -0.33022288849E+03 -0.11173594881E+03  0.16179275281E+03  0.39568279236E+03  0.94105786057E+02 0.  0.
         23    2    4    4    0    0  0.25164788949E+03 -0.91507385053E+03 -0.17535635916E+03  0.97042822335E+03  0.10146069073E+03 0.  0.
          4    1    3    3  502    0  0.12263145358E+02  0.44753572740E+03 -0.12378526918E+03  0.46450124317E+03  0.00000000000E+00 0. -1.
         -3    1    3    3    0  502  0.66311853642E+02  0.57927407194E+03 -0.83492258746E+02  0.58900481291E+03  0.00000000000E+00 0.  1.
         11    1    5    5    0    0 -0.28296973081E+03 -0.12176897306E+03  0.16049483786E+03  0.34735881209E+03  0.00000000000E+00 0. -1.
        -11    1    5    5    0    0 -0.47253157677E+02  0.10033024250E+02  0.12979149502E+01  0.48323980271E+02  0.00000000000E+00 0.  1.
          3    1    6    6  503    0  0.20675719574E+03 -0.85187331717E+03 -0.15411081140E+03  0.89004877882E+03  0.00000000000E+00 0. -1.
         -3    1    6    6    0  503  0.44890693749E+02 -0.63200533365E+02 -0.21245547767E+02  0.80379444529E+02  0.00000000000E+00 0.  1.
<mgrwt>
<rscale>  0 0.24095178E+04</rscale>
<asrwt>0</asrwt>
<pdfrwt beam="1">  1        2 0.20311217E+00 0.24095178E+04</pdfrwt>
<pdfrwt beam="2">  1       -1 0.16913661E+00 0.24095178E+04</pdfrwt>
<totfact> 0.41133824E+00</totfact>
</mgrwt>
</event>
<event>
12    6  0.1611689E-007  0.1473411E+04  0.7818608E-02  0.8902329E-01
          2   -1    0    0  501    0  0.00000000000E+00  0.00000000000E+00  0.10086314104E+04  0.10086314104E+04  0.00000000000E+00 0. -1.
         -1   -1    0    0    0  501 -0.00000000000E+00 -0.00000000000E+00 -0.53809038627E+03  0.53809038627E+03  0.00000000000E+00 0.  1.
         24    2    1    2    0    0 -0.16778681628E+03 -0.42659050361E+03  0.13770868440E+03  0.48546620889E+03  0.81128815658E+02 0.  0.
        254    2    1    2    0    0  0.16778681628E+03  0.42659050361E+03  0.33283233975E+03  0.10612555878E+04  0.89741527887E+03 0.  0.
         23    2    4    4    0    0  0.43248911392E+02  0.69270293754E+03  0.24497095542E+03  0.74159765741E+03  0.90821189481E+02 0.  0.
         23    2    4    4    0    0  0.12453790489E+03 -0.26611243393E+03  0.87861384325E+02  0.31965793038E+03  0.90200068464E+02 0.  0.
          2    1    3    3  502    0  0.61768844661E+01 -0.14565583875E+02  0.14742109030E+02  0.21624983560E+02  0.00000000000E+00 0. -1.
         -1    1    3    3    0  502 -0.17396370075E+03 -0.41202491973E+03  0.12296657537E+03  0.46384122533E+03  0.00000000000E+00 0.  1.
         11    1    5    5    0    0  0.17336609770E+01  0.18485312742E+03  0.10745711377E+03  0.21382402951E+03  0.00000000000E+00 0. -1.
        -11    1    5    5    0    0  0.41515250415E+02  0.50784981013E+03  0.13751384166E+03  0.52777362790E+03  0.00000000000E+00 0.  1.
          1    1    6    6  503    0  0.75367575304E+02 -0.14317445871E+03  0.19308070646E+01  0.16181138727E+03  0.00000000000E+00 0. -1.
         -1    1    6    6    0  503  0.49170329588E+02 -0.12293797522E+03  0.85930577260E+02  0.15784654311E+03  0.00000000000E+00 0.  1.
<mgrwt>
<rscale>  0 0.14734108E+04</rscale>
<asrwt>0</asrwt>
<pdfrwt beam="1">  1        2 0.15517406E+00 0.14734108E+04</pdfrwt>
<pdfrwt beam="2">  1       -1 0.82783137E-01 0.14734108E+04</pdfrwt>
<totfact> 0.39827532E+01</totfact>
</mgrwt>
</event>
<event>
12    6  0.1611689E-007  0.1352562E+04  0.7818608E-02  0.8988891E-01
         -1   -1    0    0    0  501 -0.00000000000E+00  0.00000000000E+00  0.24160775311E+03  0.24160775311E+03  0.00000000000E+00 0.  1.
          2   -1    0    0  501    0  0.00000000000E+00 -0.00000000000E+00 -0.18929698737E+04  0.18929698737E+04  0.00000000000E+00 0. -1.
         24    2    1    2    0    0  0.31050981615E+03 -0.18609097263E+02 -0.83308613035E+03  0.89285501016E+03  0.79968269754E+02 0.  0.
        254    2    1    2    0    0 -0.31050981615E+03  0.18609097263E+02 -0.81827599019E+03  0.12417226166E+04  0.88064568132E+03 0.  0.
         23    2    4    4    0    0  0.14098461650E+03  0.32457342495E+03 -0.21781982286E+03  0.42558639264E+03  0.91944179228E+02 0.  0.
         23    2    4    4    0    0 -0.45149443265E+03 -0.30596432769E+03 -0.60045616734E+03  0.81613622396E+03  0.89829475308E+02 0.  0.
          4    1    3    3  502    0  0.21915538111E+03 -0.24136413172E+02 -0.67606230530E+03  0.71110610190E+03  0.00000000000E+00 0. -1.
         -3    1    3    3    0  502  0.91354435034E+02  0.55273159086E+01 -0.15702382505E+03  0.18174890826E+03  0.00000000000E+00 0.  1.
         11    1    5    5    0    0  0.11544979798E+02 -0.40275609547E+01 -0.47613031199E+01  0.13121654362E+02  0.00000000000E+00 0. -1.
        -11    1    5    5    0    0  0.12943963670E+03  0.32860098591E+03 -0.21305851974E+03  0.41246473828E+03  0.00000000000E+00 0.  1.
          3    1    6    6  503    0 -0.27615494372E+03 -0.13329828728E+03 -0.33664821293E+03  0.45537018523E+03  0.00000000000E+00 0. -1.
         -3    1    6    6    0  503 -0.17533948893E+03 -0.17266604041E+03 -0.26380795441E+03  0.36076603873E+03  0.00000000000E+00 0.  1.
<mgrwt>
<rscale>  0 0.13525623E+04</rscale>
<asrwt>0</asrwt>
<pdfrwt beam="1">  1        2 0.29122614E+00 0.13525623E+04</pdfrwt>
<pdfrwt beam="2">  1       -1 0.37170423E-01 0.13525623E+04</pdfrwt>
<totfact> 0.59365272E+01</totfact>
</mgrwt>
</event>
<event>
12    6  0.1611689E-007  0.2053430E+04  0.7818608E-02  0.8582040E-01
         -1   -1    0    0    0  501 -0.00000000000E+00  0.00000000000E+00  0.11145857058E+04  0.11145857058E+04  0.00000000000E+00 0.  1.
          2   -1    0    0  501    0  0.00000000000E+00 -0.00000000000E+00 -0.94577151586E+03  0.94577151586E+03  0.00000000000E+00 0. -1.
         24    2    1    2    0    0 -0.19118602057E+03 -0.54174036056E+03  0.66353876963E+03  0.88139309177E+03  0.80841639671E+02 0.  0.
        254    2    1    2    0    0  0.19118602057E+03  0.54174036056E+03 -0.49472457968E+03  0.11789641299E+04  0.90286726440E+03 0.  0.
         23    2    4    4    0    0 -0.85435780632E+02 -0.19965338092E+03  0.93199491970E+01  0.23621299557E+03  0.92460654867E+02 0.  0.
         23    2    4    4    0    0  0.27662180121E+03  0.74139374148E+03 -0.50404452887E+03  0.94275113432E+03  0.92382429946E+02 0.  0.
          4    1    3    3  502    0  0.15960900531E+01 -0.38063914898E+01  0.21473788806E+02  0.21866863637E+02  0.00000000000E+00 0. -1.
         -3    1    3    3    0  502 -0.19278211063E+03 -0.53793396907E+03  0.64206498082E+03  0.85952622814E+03  0.00000000000E+00 0.  1.
         11    1    5    5    0    0  0.80925786304E+01 -0.13749213265E+02  0.22623020213E+02  0.27682697445E+02  0.00000000000E+00 0. -1.
        -11    1    5    5    0    0 -0.93528359263E+02 -0.18590416766E+03 -0.13303071016E+02  0.20853029813E+03  0.00000000000E+00 0.  1.
          3    1    6    6  503    0  0.92611984526E+02  0.15571500196E+03 -0.14058515360E+03  0.22932144890E+03  0.00000000000E+00 0. -1.
         -3    1    6    6    0  503  0.18400981668E+03  0.58567873952E+03 -0.36345937527E+03  0.71342968542E+03  0.00000000000E+00 0.  1.
<mgrwt>
<rscale>  0 0.20534297E+04</rscale>
<asrwt>0</asrwt>
<pdfrwt beam="1">  1        2 0.14550331E+00 0.20534297E+04</pdfrwt>
<pdfrwt beam="2">  1       -1 0.17147472E+00 0.20534297E+04</pdfrwt>
<totfact> 0.69206001E+00</totfact>
</mgrwt>
</event>
<event>
12    6  0.1611689E-007  0.1453253E+04  0.7818608E-02  0.8916148E-01
          2   -1    0    0  501    0  0.00000000000E+00  0.00000000000E+00  0.34998703330E+03  0.34998703330E+03  0.00000000000E+00 0. -1.
         -1   -1    0    0    0  501 -0.00000000000E+00 -0.00000000000E+00 -0.15085878776E+04  0.15085878776E+04  0.00000000000E+00 0.  1.
         24    2    1    2    0    0  0.10913610274E+03 -0.20866437190E+03  0.12931719024E+03  0.28032726624E+03  0.80055802313E+02 0.  0.
        254    2    1    2    0    0 -0.10913610274E+03  0.20866437190E+03 -0.12879180345E+04  0.15782476446E+04  0.88129521451E+03 0.  0.
         23    2    4    4    0    0 -0.44392513464E+03 -0.79093713013E+02 -0.60950539753E+03  0.76357458144E+03  0.90686113618E+02 0.  0.
         23    2    4    4    0    0  0.33478903190E+03  0.28775808491E+03 -0.67841263699E+03  0.81467306319E+03  0.92520714146E+02 0.  0.
          2    1    3    3  502    0  0.98498723281E+02 -0.19459029993E+03  0.14050241141E+03  0.25943845306E+03  0.00000000000E+00 0. -1.
         -1    1    3    3    0  502  0.10637379456E+02 -0.14074071969E+02 -0.11185221165E+02  0.20888813178E+02  0.00000000000E+00 0.  1.
         11    1    5    5    0    0 -0.24261019553E+02  0.11332012726E+02 -0.64215239545E+02  0.69574482190E+02  0.00000000000E+00 0. -1.
        -11    1    5    5    0    0 -0.41966411508E+03 -0.90425725739E+02 -0.54529015799E+03  0.69400009925E+03  0.00000000000E+00 0.  1.
          4    1    6    6  503    0 -0.15491069871E+01  0.21074316938E+02 -0.23204628032E+02  0.31384412197E+02  0.00000000000E+00 0. -1.
         -4    1    6    6    0  503  0.33633813889E+03  0.26668376798E+03 -0.65520800896E+03  0.78328865099E+03  0.00000000000E+00 0.  1.
<mgrwt>
<rscale>  0 0.14532532E+04</rscale>
<asrwt>0</asrwt>
<pdfrwt beam="1">  1        2 0.53844160E-01 0.14532532E+04</pdfrwt>
<pdfrwt beam="2">  1       -1 0.23209044E+00 0.14532532E+04</pdfrwt>
<totfact> 0.93795420E+00</totfact>
</mgrwt>
</event>
<event>
12    6  0.1611689E-007  0.1538920E+04  0.7818608E-02  0.8858976E-01
          2   -1    0    0  501    0  0.00000000000E+00  0.00000000000E+00  0.22254216847E+04  0.22254216847E+04  0.00000000000E+00 0. -1.
         -1   -1    0    0    0  501 -0.00000000000E+00 -0.00000000000E+00 -0.26604784462E+03  0.26604784462E+03  0.00000000000E+00 0.  1.
         24    2    1    2    0    0  0.23880330923E+03  0.30519355651E+03  0.13137322916E+03  0.41689801712E+03  0.79842995340E+02 0.  0.
        254    2    1    2    0    0 -0.23880330923E+03 -0.30519355651E+03  0.18280006109E+04  0.20745715122E+04  0.90116069500E+03 0.  0.
         23    2    4    4    0    0 -0.11608443557E+03 -0.58015138051E+03  0.79879300953E+03  0.99830749354E+03  0.92175696861E+02 0.  0.
         23    2    4    4    0    0 -0.12271887367E+03  0.27495782400E+03  0.10292076014E+04  0.10762640187E+04  0.91729080208E+02 0.  0.
          2    1    3    3  502    0  0.11761935840E+03  0.16495588177E+03  0.27559105539E+02  0.20446090262E+03  0.00000000000E+00 0. -1.
         -1    1    3    3    0  502  0.12118395083E+03  0.14023767474E+03  0.10381412362E+03  0.21243711450E+03  0.00000000000E+00 0.  1.
         11    1    5    5    0    0 -0.39425002729E+02 -0.12822198722E+03  0.12487931261E+03  0.18327588920E+03  0.00000000000E+00 0. -1.
        -11    1    5    5    0    0 -0.76659432837E+02 -0.45192939329E+03  0.67391369692E+03  0.81503160433E+03  0.00000000000E+00 0.  1.
          1    1    6    6  503    0 -0.64457693654E+01  0.23588585292E+01  0.19854317171E+01  0.71452148586E+01  0.00000000000E+00 0. -1.
         -1    1    6    6    0  503 -0.11627310430E+03  0.27259896547E+03  0.10272221697E+04  0.10691188038E+04  0.00000000000E+00 0.  1.
<mgrwt>
<rscale>  0 0.15389199E+04</rscale>
<asrwt>0</asrwt>
<pdfrwt beam="1">  1        2 0.34237255E+00 0.15389199E+04</pdfrwt>
<pdfrwt beam="2">  1       -1 0.40930439E-01 0.15389199E+04</pdfrwt>
<totfact> 0.32043188E+01</totfact>
</mgrwt>
</event>
<event>
12    6  0.1611689E-007  0.1645104E+04  0.7818608E-02  0.8793308E-01
          2   -1    0    0  501    0  0.00000000000E+00  0.00000000000E+00  0.10905796924E+04  0.10905796924E+04  0.00000000000E+00 0. -1.
         -1   -1    0    0    0  501 -0.00000000000E+00 -0.00000000000E+00 -0.62039658772E+03  0.62039658772E+03  0.00000000000E+00 0.  1.
         24    2    1    2    0    0  0.33638170201E+03  0.43969809059E+03  0.78018687210E+01  0.55942048947E+03  0.80020963310E+02 0.  0.
        254    2    1    2    0    0 -0.33638170201E+03 -0.43969809059E+03  0.46238123600E+03  0.11515557907E+04  0.89766211425E+03 0.  0.
         23    2    4    4    0    0 -0.25100367859E+02  0.23680221590E+03  0.28205094294E+03  0.38008540071E+03  0.90591718713E+02 0.  0.
         23    2    4    4    0    0 -0.31128133415E+03 -0.67650030649E+03  0.18033029306E+03  0.77147038998E+03  0.89993412847E+02 0.  0.
          2    1    3    3  502    0  0.43911705221E+02  0.94763643930E+02 -0.19954397265E+02  0.10633232828E+03  0.00000000000E+00 0. -1.
         -1    1    3    3    0  502  0.29246999679E+03  0.34493444666E+03  0.27756265986E+02  0.45308816120E+03  0.00000000000E+00 0.  1.
         11    1    5    5    0    0  0.30808608329E+02  0.64225518058E+02  0.10271096252E+03  0.12499451723E+03  0.00000000000E+00 0.  1.
        -11    1    5    5    0    0 -0.55908976188E+02  0.17257669784E+03  0.17933998042E+03  0.25509088348E+03  0.00000000000E+00 0. -1.
          3    1    6    6  503    0 -0.39723872197E+02 -0.15640121745E+03  0.15951052475E+02  0.16215351651E+03  0.00000000000E+00 0. -1.
         -3    1    6    6    0  503 -0.27155746195E+03 -0.52009908904E+03  0.16437924058E+03  0.60931687347E+03  0.00000000000E+00 0.  1.
<mgrwt>
<rscale>  0 0.16451042E+04</rscale>
<asrwt>0</asrwt>
<pdfrwt beam="1">  1        2 0.16778149E+00 0.16451042E+04</pdfrwt>
<pdfrwt beam="2">  1       -1 0.95445629E-01 0.16451042E+04</pdfrwt>
<totfact> 0.25505246E+01</totfact>
</mgrwt>
</event>
<event>
12    6  0.1611689E-007  0.1376021E+04  0.7818608E-02  0.8971361E-01
         -3   -1    0    0    0  501 -0.00000000000E+00  0.00000000000E+00  0.49696180443E+03  0.49696180443E+03  0.00000000000E+00 0.  1.
          2   -1    0    0  501    0  0.00000000000E+00 -0.00000000000E+00 -0.95250401017E+03  0.95250401017E+03  0.00000000000E+00 0. -1.
         24    2    1    2    0    0  0.16789822660E+03 -0.28491321514E+03  0.72554581406E+02  0.34928703558E+03  0.85859835109E+02 0.  0.
        254    2    1    2    0    0 -0.16789822660E+03  0.28491321514E+03 -0.52809678714E+03  0.11001787790E+04  0.90672033977E+03 0.  0.
         23    2    4    4    0    0 -0.16154172332E+03  0.41176592264E+02 -0.74110102600E+03  0.76408172909E+03  0.82455550875E+02 0.  0.
         23    2    4    4    0    0 -0.63565032827E+01  0.24373662288E+03  0.21300423886E+03  0.33609704992E+03  0.90235662161E+02 0.  0.
          2    1    3    3  502    0  0.45719225442E+02 -0.12048834951E+03  0.64910708592E+02  0.14429514903E+03  0.00000000000E+00 0. -1.
         -1    1    3    3    0  502  0.12217900116E+03 -0.16442486563E+03  0.76438728140E+01  0.20499188656E+03  0.00000000000E+00 0.  1.
         11    1    5    5    0    0 -0.94549649540E+02  0.32380197635E+02 -0.59211867954E+03  0.60049366698E+03  0.00000000000E+00 0. -1.
        -11    1    5    5    0    0 -0.66992073780E+02  0.87963946289E+01 -0.14898234647E+03  0.16358806211E+03  0.00000000000E+00 0.  1.
          4    1    6    6  503    0 -0.39995830754E+01  0.23659748871E+03  0.22193589728E+03  0.32442242652E+03  0.00000000000E+00 0. -1.
         -4    1    6    6    0  503 -0.23569202073E+01  0.71391341665E+01 -0.89316584137E+01  0.11674623400E+02  0.00000000000E+00 0.  1.
<mgrwt>
<rscale>  0 0.13760205E+04</rscale>
<asrwt>0</asrwt>
<pdfrwt beam="1">  1        2 0.14653908E+00 0.13760205E+04</pdfrwt>
<pdfrwt beam="2">  1       -3 0.76455663E-01 0.13760205E+04</pdfrwt>
<totfact> 0.26930512E+01</totfact>
</mgrwt>
</event>
<event>
12    6  0.1611689E-007  0.1751544E+04  0.7818608E-02  0.8732501E-01
         -1   -1    0    0    0  501 -0.00000000000E+00  0.00000000000E+00  0.16387414535E+04  0.16387414535E+04  0.00000000000E+00 0.  1.
          2   -1    0    0  501    0  0.00000000000E+00 -0.00000000000E+00 -0.46802774135E+03  0.46802774135E+03  0.00000000000E+00 0. -1.
         24    2    1    2    0    0 -0.60068096034E+03 -0.22838499322E+03  0.45394450731E+03  0.79165928393E+03  0.87644080673E+02 0.  0.
        254    2    1    2    0    0  0.60068096034E+03  0.22838499322E+03  0.71676920486E+03  0.13151099109E+04  0.89597916468E+03 0.  0.
         23    2    4    4    0    0  0.71187987109E+03 -0.10983986043E+03  0.55414301877E+03  0.91369943040E+03  0.94522050702E+02 0.  0.
         23    2    4    4    0    0 -0.11119891075E+03  0.33822485365E+03  0.16262618609E+03  0.40141048053E+03  0.89004764452E+02 0.  0.
          4    1    3    3  502    0 -0.42313463129E+03 -0.14379141234E+03  0.26854419120E+03  0.52137785635E+03  0.00000000000E+00 0. -1.
         -3    1    3    3    0  502 -0.17754632904E+03 -0.84593580880E+02  0.18540031611E+03  0.27028142758E+03  0.00000000000E+00 0.  1.
         11    1    5    5    0    0  0.10979591098E+03 -0.39883370729E+02  0.12460244780E+03  0.17079694180E+03  0.00000000000E+00 0. -1.
        -11    1    5    5    0    0  0.60208396011E+03 -0.69956489697E+02  0.42954057096E+03  0.74290248860E+03  0.00000000000E+00 0.  1.
          1    1    6    6  503    0  0.14798491662E+02  0.21799393195E+02  0.98911401634E+01  0.28143268340E+02  0.00000000000E+00 0. -1.
         -1    1    6    6    0  503 -0.12599740241E+03  0.31642546046E+03  0.15273504593E+03  0.37326721219E+03  0.00000000000E+00 0.  1.
<mgrwt>
<rscale>  0 0.17515438E+04</rscale>
<asrwt>0</asrwt>
<pdfrwt beam="1">  1        2 0.72004269E-01 0.17515438E+04</pdfrwt>
<pdfrwt beam="2">  1       -1 0.25211407E+00 0.17515438E+04</pdfrwt>
<totfact> 0.48646224E+00</totfact>
</mgrwt>
</event>
<event>
12    6  0.1611689E-007  0.1747115E+04  0.7818608E-02  0.8734940E-01
          2   -1    0    0  501    0  0.00000000000E+00  0.00000000000E+00  0.22577702830E+04  0.22577702830E+04  0.00000000000E+00 0. -1.
         -1   -1    0    0    0  501 -0.00000000000E+00 -0.00000000000E+00 -0.33798959870E+03  0.33798959870E+03  0.00000000000E+00 0.  1.
         24    2    1    2    0    0 -0.93946365879E+02  0.29725451154E+03 -0.12044164993E+03  0.34359124928E+03  0.79765852679E+02 0.  0.
        254    2    1    2    0    0  0.93946365879E+02 -0.29725451154E+03  0.20402223342E+04  0.22521686324E+04  0.90142676432E+03 0.  0.
         23    2    4    4    0    0  0.76470470860E+02  0.20597971338E+03  0.14567215097E+04  0.14760880178E+04  0.92319575874E+02 0.  0.
         23    2    4    4    0    0  0.17475895019E+02 -0.50323422492E+03  0.58350082452E+03  0.77608061465E+03  0.90982504791E+02 0.  0.
          2    1    3    3  502    0 -0.78753597815E+02  0.11789094932E+03 -0.54282240952E+02  0.15181227481E+03  0.00000000000E+00 0. -1.
         -1    1    3    3    0  502 -0.15192768063E+02  0.17936356222E+03 -0.66159408979E+02  0.19177897447E+03  0.00000000000E+00 0.  1.
         11    1    5    5    0    0 -0.21105694021E+02  0.26066244243E+02  0.22148979798E+03  0.22401479866E+03  0.00000000000E+00 0.  1.
        -11    1    5    5    0    0  0.97576164881E+02  0.17991346914E+03  0.12352317117E+04  0.12520732191E+04  0.00000000000E+00 0. -1.
          1    1    6    6  503    0 -0.31793271157E+02 -0.23498956373E+03  0.30422305589E+03  0.38572344353E+03  0.00000000000E+00 0. -1.
         -1    1    6    6    0  503  0.49269166176E+02 -0.26824466119E+03  0.27927776863E+03  0.39035717112E+03  0.00000000000E+00 0.  1.
<mgrwt>
<rscale>  0 0.17471152E+04</rscale>
<asrwt>0</asrwt>
<pdfrwt beam="1">  1        2 0.34734927E+00 0.17471152E+04</pdfrwt>
<pdfrwt beam="2">  1       -1 0.51998401E-01 0.17471152E+04</pdfrwt>
<totfact> 0.19268920E+01</totfact>
</mgrwt>
</event>
<event>
12    6  0.1611689E-007  0.1911547E+04  0.7818608E-02  0.8649130E-01
         -1   -1    0    0    0  501 -0.00000000000E+00  0.00000000000E+00  0.54423436003E+03  0.54423436003E+03  0.00000000000E+00 0.  1.
          2   -1    0    0  501    0  0.00000000000E+00 -0.00000000000E+00 -0.16785108068E+04  0.16785108068E+04  0.00000000000E+00 0. -1.
         24    2    1    2    0    0 -0.79353109800E+02 -0.54501355338E+03  0.13670722729E+03  0.57320372253E+03  0.80851420057E+02 0.  0.
        254    2    1    2    0    0  0.79353109800E+02  0.54501355338E+03 -0.12709836741E+04  0.16495414443E+04  0.89568453562E+03 0.  0.
         23    2    4    4    0    0  0.47616987257E+02  0.78350576962E+03 -0.10046917266E+04  0.12781392691E+04  0.89921393783E+02 0.  0.
         23    2    4    4    0    0  0.31736122542E+02 -0.23849221624E+03 -0.26629194741E+03  0.37140217523E+03  0.95616190200E+02 0.  0.
          4    1    3    3  502    0  0.16489394093E+02 -0.58023538535E+02  0.15899037150E+02  0.62381171229E+02  0.00000000000E+00 0. -1.
         -3    1    3    3    0  502 -0.95842503893E+02 -0.48699001485E+03  0.12080819014E+03  0.51082255130E+03  0.00000000000E+00 0.  1.
         11    1    5    5    0    0  0.65736618053E+02  0.70492951177E+03 -0.87688961031E+03  0.11270236502E+04  0.00000000000E+00 0.  1.
        -11    1    5    5    0    0 -0.18119630796E+02  0.78576257851E+02 -0.12780211634E+03  0.15111561885E+03  0.00000000000E+00 0. -1.
          2    1    6    6  503    0  0.40001087738E+02 -0.69692636387E+02 -0.13616392989E+03  0.15810681956E+03  0.00000000000E+00 0. -1.
         -2    1    6    6    0  503 -0.82649651959E+01 -0.16879957985E+03 -0.13012801752E+03  0.21329535567E+03  0.00000000000E+00 0.  1.
<mgrwt>
<rscale>  0 0.19115473E+04</rscale>
<asrwt>0</asrwt>
<pdfrwt beam="1">  1        2 0.25823243E+00 0.19115473E+04</pdfrwt>
<pdfrwt beam="2">  1       -1 0.83728365E-01 0.19115473E+04</pdfrwt>
<totfact> 0.15197922E+01</totfact>
</mgrwt>
</event>
<event>
12    6  0.1611689E-007  0.2434812E+04  0.7818608E-02  0.8426584E-01
         -1   -1    0    0    0  501 -0.00000000000E+00  0.00000000000E+00  0.87549878769E+03  0.87549878769E+03  0.00000000000E+00 0.  1.
          2   -1    0    0  501    0  0.00000000000E+00 -0.00000000000E+00 -0.16928378309E+04  0.16928378309E+04  0.00000000000E+00 0. -1.
         24    2    1    2    0    0 -0.64186443723E+03 -0.82963875377E+03 -0.33257656288E+03  0.11033329643E+04  0.80287249091E+02 0.  0.
        254    2    1    2    0    0  0.64186443723E+03  0.82963875377E+03 -0.48476248033E+03  0.14650036543E+04  0.90052797139E+03 0.  0.
         23    2    4    4    0    0  0.42517032297E+03 -0.75661815638E+02 -0.21855662803E+03  0.49262575069E+03  0.91753020152E+02 0.  0.
         23    2    4    4    0    0  0.21669411426E+03  0.90530056941E+03 -0.26620585230E+03  0.97237790362E+03  0.90154154160E+02 0.  0.
          4    1    3    3  502    0 -0.19389706132E+01 -0.16957027176E+02 -0.10158338053E+02  0.19861827955E+02  0.00000000000E+00 0. -1.
         -3    1    3    3    0  502 -0.63992546661E+03 -0.81268172660E+03 -0.32241822483E+03  0.10834711363E+04  0.00000000000E+00 0.  1.
         11    1    5    5    0    0  0.91297353624E+02 -0.35781195073E+02 -0.88543591561E+02  0.13211914436E+03  0.00000000000E+00 0. -1.
        -11    1    5    5    0    0  0.33387296934E+03 -0.39880620566E+02 -0.13001303647E+03  0.36050660633E+03  0.00000000000E+00 0.  1.
          1    1    6    6  503    0  0.14341637866E+03  0.41303304771E+03 -0.11193524549E+03  0.45132477812E+03  0.00000000000E+00 0. -1.
         -1    1    6    6    0  503  0.73277735597E+02  0.49226752171E+03 -0.15427060681E+03  0.52105312549E+03  0.00000000000E+00 0.  1.
<mgrwt>
<rscale>  0 0.24348121E+04</rscale>
<asrwt>0</asrwt>
<pdfrwt beam="1">  1        2 0.26043659E+00 0.24348121E+04</pdfrwt>
<pdfrwt beam="2">  1       -1 0.13469212E+00 0.24348121E+04</pdfrwt>
<totfact> 0.46819916E+00</totfact>
</mgrwt>
</event>
<event>
12    6  0.1611689E-007  0.1905920E+04  0.7818608E-02  0.8651915E-01
          2   -1    0    0  501    0  0.00000000000E+00  0.00000000000E+00  0.52464449982E+03  0.52464449982E+03  0.00000000000E+00 0. -1.
         -1   -1    0    0    0  501 -0.00000000000E+00 -0.00000000000E+00 -0.17309495345E+04  0.17309495345E+04  0.00000000000E+00 0.  1.
         24    2    1    2    0    0 -0.51705035747E+03  0.41542060966E+03 -0.85543173004E+03  0.10854341858E+04  0.80551672022E+02 0.  0.
        254    2    1    2    0    0  0.51705035747E+03 -0.41542060966E+03 -0.35087330462E+03  0.11701598485E+04  0.89791237881E+03 0.  0.
         23    2    4    4    0    0  0.51624155289E+03  0.63004614742E+02 -0.42418238387E+03  0.67696396407E+03  0.88738894788E+02 0.  0.
         23    2    4    4    0    0  0.80880457547E+00 -0.47842522440E+03  0.73309079252E+02  0.49319588442E+03  0.94744972405E+02 0.  0.
          2    1    3    3  502    0 -0.45117765176E+03  0.36004772920E+03 -0.78411330485E+03  0.97366796990E+03  0.00000000000E+00 0. -1.
         -1    1    3    3    0  502 -0.65872705710E+02  0.55372880458E+02 -0.71318425184E+02  0.11176621591E+03  0.00000000000E+00 0.  1.
         11    1    5    5    0    0  0.39288325427E+03  0.81008401381E+02 -0.34649333673E+03  0.53007286761E+03  0.00000000000E+00 0. -1.
        -11    1    5    5    0    0  0.12335829863E+03 -0.18003786639E+02 -0.77689047146E+02  0.14689109646E+03  0.00000000000E+00 0.  1.
          1    1    6    6  503    0 -0.20528150278E+02 -0.21626737343E+03  0.76021983541E+02  0.23015717183E+03  0.00000000000E+00 0. -1.
         -1    1    6    6    0  503  0.21336954854E+02 -0.26215785097E+03 -0.27129042884E+01  0.26303871259E+03  0.00000000000E+00 0.  1.
<mgrwt>
<rscale>  0 0.19059204E+04</rscale>
<asrwt>0</asrwt>
<pdfrwt beam="1">  1        2 0.80714538E-01 0.19059204E+04</pdfrwt>
<pdfrwt beam="2">  1       -1 0.26629993E+00 0.19059204E+04</pdfrwt>
<totfact> 0.34002097E+00</totfact>
</mgrwt>
</event>
<event>
12    6  0.1611689E-007  0.2124840E+04  0.7818608E-02  0.8550379E-01
         -1   -1    0    0    0  501 -0.00000000000E+00  0.00000000000E+00  0.14482182576E+04  0.14482182576E+04  0.00000000000E+00 0.  1.
          2   -1    0    0  501    0  0.00000000000E+00 -0.00000000000E+00 -0.77939648562E+03  0.77939648562E+03  0.00000000000E+00 0. -1.
         24    2    1    2    0    0 -0.34155214632E+03  0.21424529657E+03 -0.53156768659E+03  0.67183439214E+03  0.78983094873E+02 0.  0.
        254    2    1    2    0    0  0.34155214632E+03 -0.21424529657E+03  0.12003894586E+04  0.15557803511E+04  0.90385769502E+03 0.  0.
         23    2    4    4    0    0  0.42548394079E+03 -0.50833041810E+03  0.84461913167E+03  0.10775936538E+04  0.91598074202E+02 0.  0.
         23    2    4    4    0    0 -0.83931794465E+02  0.29408512153E+03  0.35577032691E+03  0.47818669735E+03  0.92516956224E+02 0.  0.
          4    1    3    3  502    0 -0.31981056473E+03  0.19677071563E+03 -0.52053842525E+03  0.64183935997E+03  0.00000000000E+00 0. -1.
         -3    1    3    3    0  502 -0.21741581591E+02  0.17474580946E+02 -0.11029261338E+02  0.29995032172E+02  0.00000000000E+00 0.  1.
         11    1    5    5    0    0  0.47050696990E+02 -0.47315994420E+02  0.13511962877E+03  0.15069799433E+03  0.00000000000E+00 0.  1.
        -11    1    5    5    0    0  0.37843324380E+03 -0.46101442368E+03  0.70949950290E+03  0.92689565943E+03  0.00000000000E+00 0. -1.
          3    1    6    6  503    0 -0.49891581687E+02  0.16066289286E+03  0.26283001128E+03  0.31205984986E+03  0.00000000000E+00 0. -1.
         -3    1    6    6    0  503 -0.34040212779E+02  0.13342222867E+03  0.92940315636E+02  0.16612684750E+03  0.00000000000E+00 0.  1.
<mgrwt>
<rscale>  0 0.21248400E+04</rscale>
<asrwt>0</asrwt>
<pdfrwt beam="1">  1        2 0.11990715E+00 0.21248400E+04</pdfrwt>
<pdfrwt beam="2">  1       -1 0.22280281E+00 0.21248400E+04</pdfrwt>
<totfact> 0.39439841E+00</totfact>
</mgrwt>
</event>
<event>
12    6  0.1611689E-007  0.1977728E+04  0.7818608E-02  0.8617105E-01
         -1   -1    0    0    0  501 -0.00000000000E+00  0.00000000000E+00  0.47858775357E+03  0.47858775357E+03  0.00000000000E+00 0.  1.
          2   -1    0    0  501    0  0.00000000000E+00 -0.00000000000E+00 -0.20432021424E+04  0.20432021424E+04  0.00000000000E+00 0. -1.
         24    2    1    2    0    0 -0.72057018420E+03  0.13747272285E+02 -0.98929901660E+03  0.12285497384E+04  0.10588454802E+03 0.  0.
        254    2    1    2    0    0  0.72057018420E+03 -0.13747272285E+02 -0.57531537223E+03  0.12932401576E+04  0.90668183499E+03 0.  0.
         23    2    4    4    0    0  0.48542298273E+03 -0.29679120364E+03 -0.68861739586E+03  0.89786618410E+03  0.90825524739E+02 0.  0.
         23    2    4    4    0    0  0.23514720147E+03  0.28304393136E+03  0.11330202364E+03  0.39537397352E+03  0.89861877005E+02 0.  0.
          2    1    3    3  502    0 -0.25000855629E+03 -0.31728584440E+02 -0.28682032765E+03  0.38180738815E+03  0.00000000000E+00 0. -1.
         -1    1    3    3    0  502 -0.47056162790E+03  0.45475856726E+02 -0.70247868895E+03  0.84674235021E+03  0.00000000000E+00 0.  1.
         11    1    5    5    0    0  0.15477602846E+03 -0.14529373416E+03 -0.24305035684E+03  0.32270631250E+03  0.00000000000E+00 0. -1.
        -11    1    5    5    0    0  0.33064695427E+03 -0.15149746949E+03 -0.44556703903E+03  0.57515987160E+03  0.00000000000E+00 0.  1.
          4    1    6    6  503    0  0.13682126669E+03  0.13689413955E+03  0.16167446563E+02  0.19422010913E+03  0.00000000000E+00 0. -1.
         -4    1    6    6    0  503  0.98325934777E+02  0.14614979180E+03  0.97134577074E+02  0.20115386439E+03  0.00000000000E+00 0.  1.
<mgrwt>
<rscale>  0 0.19777275E+04</rscale>
<asrwt>0</asrwt>
<pdfrwt beam="1">  1        2 0.31433879E+00 0.19777275E+04</pdfrwt>
<pdfrwt beam="2">  1       -1 0.73628885E-01 0.19777275E+04</pdfrwt>
<totfact> 0.12446448E+01</totfact>
</mgrwt>
</event>
<event>
12    6  0.1611689E-007  0.1451317E+04  0.7818608E-02  0.8917488E-01
          2   -1    0    0  501    0  0.00000000000E+00  0.00000000000E+00  0.13611794717E+04  0.13611794717E+04  0.00000000000E+00 0. -1.
         -1   -1    0    0    0  501 -0.00000000000E+00 -0.00000000000E+00 -0.38685606658E+03  0.38685606658E+03  0.00000000000E+00 0.  1.
         24    2    1    2    0    0 -0.43243048341E+03  0.63450351202E+02  0.30203123999E+03  0.53760164966E+03  0.82283617712E+02 0.  0.
        254    2    1    2    0    0  0.43243048341E+03 -0.63450351202E+02  0.67229216518E+03  0.12104338887E+04  0.90672563292E+03 0.  0.
         23    2    4    4    0    0  0.27991725335E+03 -0.42902028646E+03  0.60639814758E+03  0.79877626893E+03  0.88953580547E+02 0.  0.
         23    2    4    4    0    0  0.15251323006E+03  0.36556993526E+03  0.65894017596E+02  0.41165761973E+03  0.90654902876E+02 0.  0.
          2    1    3    3  502    0 -0.76830712611E+02 -0.18331940018E+02  0.66988100613E+02  0.10356845103E+03  0.00000000000E+00 0. -1.
         -1    1    3    3    0  502 -0.35559977080E+03  0.81782291220E+02  0.23504313938E+03  0.43403319863E+03  0.00000000000E+00 0.  1.
         11    1    5    5    0    0  0.15672879729E+02 -0.51876318259E+02  0.33375433124E+02  0.63645196923E+02  0.00000000000E+00 0.  1.
        -11    1    5    5    0    0  0.26424437362E+03 -0.37714396820E+03  0.57302271446E+03  0.73513107200E+03  0.00000000000E+00 0. -1.
          1    1    6    6  503    0  0.11679700280E+03  0.30801614456E+03  0.20371015681E+02  0.33004615351E+03  0.00000000000E+00 0. -1.
         -1    1    6    6    0  503  0.35716227257E+02  0.57553790706E+02  0.45523001915E+02  0.81611466213E+02  0.00000000000E+00 0.  1.
<mgrwt>
<rscale>  0 0.14513174E+04</rscale>
<asrwt>0</asrwt>
<pdfrwt beam="1">  1        2 0.20941222E+00 0.14513174E+04</pdfrwt>
<pdfrwt beam="2">  1       -1 0.59516319E-01 0.14513174E+04</pdfrwt>
<totfact> 0.48185539E+01</totfact>
</mgrwt>
</event>
<event>
12    6  0.1611689E-007  0.3421422E+04  0.7818608E-02  0.8132669E-01
         -1   -1    0    0    0  501 -0.00000000000E+00  0.00000000000E+00  0.96293051190E+03  0.96293051190E+03  0.00000000000E+00 0.  1.
          2   -1    0    0  501    0  0.00000000000E+00 -0.00000000000E+00 -0.30391927229E+04  0.30391927229E+04  0.00000000000E+00 0. -1.
         24    2    1    2    0    0 -0.15921462443E+04  0.26864195855E+02 -0.91011710711E+03  0.18359205933E+04  0.81485753564E+02 0.  0.
        254    2    1    2    0    0  0.15921462443E+04 -0.26864195855E+02 -0.11661451039E+04  0.21662026415E+04  0.89268590932E+03 0.  0.
         23    2    4    4    0    0  0.16855467990E+04 -0.61268061300E+02 -0.10593605896E+04  0.19938237099E+04  0.90919417639E+02 0.  0.
         23    2    4    4    0    0 -0.93400554734E+02  0.34403865445E+02 -0.10678451427E+03  0.17237893160E+03  0.91674827448E+02 0.  0.
          4    1    3    3  502    0 -0.34850023377E+03  0.20035122652E+01 -0.16128418213E+03  0.38401694546E+03  0.00000000000E+00 0. -1.
         -3    1    3    3    0  502 -0.12436460105E+04  0.24860683590E+02 -0.74883292498E+03  0.14519036478E+04  0.00000000000E+00 0.  1.
         11    1    5    5    0    0  0.65130300790E+03  0.22572037550E+00 -0.45313631812E+03  0.79342812015E+03  0.00000000000E+00 0. -1.
        -11    1    5    5    0    0  0.10342437911E+04 -0.61493781675E+02 -0.60622427151E+03  0.12003955898E+04  0.00000000000E+00 0.  1.
          3    1    6    6  503    0  0.15915942388E+02 -0.58913739258E+01 -0.50519255547E+01  0.17707271406E+02  0.00000000000E+00 0. -1.
         -3    1    6    6    0  503 -0.10931649712E+03  0.40295239371E+02 -0.10173258872E+03  0.15467166019E+03  0.00000000000E+00 0.  1.
<mgrwt>
<rscale>  0 0.34214216E+04</rscale>
<asrwt>0</asrwt>
<pdfrwt beam="1">  1        2 0.46756811E+00 0.34214216E+04</pdfrwt>
<pdfrwt beam="2">  1       -1 0.14814316E+00 0.34214216E+04</pdfrwt>
<totfact> 0.55695868E-01</totfact>
</mgrwt>
</event>
<event>
12    6  0.1611689E-007  0.1330790E+04  0.7818608E-02  0.9005498E-01
         -1   -1    0    0    0  501 -0.00000000000E+00  0.00000000000E+00  0.29588766061E+03  0.29588766061E+03  0.00000000000E+00 0.  1.
          2   -1    0    0  501    0  0.00000000000E+00 -0.00000000000E+00 -0.14963476653E+04  0.14963476653E+04  0.00000000000E+00 0. -1.
         24    2    1    2    0    0 -0.35390158646E+03  0.91329702699E+02 -0.40274507819E+03  0.54946770489E+03  0.78254157803E+02 0.  0.
        254    2    1    2    0    0  0.35390158646E+03 -0.91329702699E+02 -0.79771492647E+03  0.12427676210E+04  0.88007659232E+03 0.  0.
         23    2    4    4    0    0  0.43124619236E+02  0.37138106948E+03 -0.34070371284E+03  0.51594255789E+03  0.10165663554E+03 0.  0.
         23    2    4    4    0    0  0.31077696723E+03 -0.46271077218E+03 -0.45701121362E+03  0.72682506308E+03  0.93444319820E+02 0.  0.
          4    1    3    3  502    0 -0.11444013186E+03  0.33313401457E+02 -0.18816297260E+03  0.22273668480E+03  0.00000000000E+00 0. -1.
         -3    1    3    3    0  502 -0.23946145460E+03  0.58016301242E+02 -0.21458210559E+03  0.32673102009E+03  0.00000000000E+00 0.  1.
         11    1    5    5    0    0  0.27212697588E+02  0.36438174444E+03 -0.30396632265E+03  0.47530002303E+03  0.00000000000E+00 0.  1.
        -11    1    5    5    0    0  0.15911921648E+02  0.69993250399E+01 -0.36737390196E+02  0.40642534862E+02  0.00000000000E+00 0. -1.
          2    1    6    6  503    0  0.87214981534E+01 -0.65873544211E+02 -0.54665286098E+02  0.86044650392E+02  0.00000000000E+00 0. -1.
         -2    1    6    6    0  503  0.30205546907E+03 -0.39683722796E+03 -0.40234592752E+03  0.64078041269E+03  0.00000000000E+00 0.  1.
<mgrwt>
<rscale>  0 0.13307905E+04</rscale>
<asrwt>0</asrwt>
<pdfrwt beam="1">  1        2 0.23020733E+00 0.13307905E+04</pdfrwt>
<pdfrwt beam="2">  1       -1 0.45521179E-01 0.13307905E+04</pdfrwt>
<totfact> 0.68115781E+01</totfact>
</mgrwt>
</event>
<event>
12    6  0.1611689E-007  0.1811497E+04  0.7818608E-02  0.8700209E-01
         -1   -1    0    0    0  501 -0.00000000000E+00  0.00000000000E+00  0.18429514632E+04  0.18429514632E+04  0.00000000000E+00 0.  1.
          2   -1    0    0  501    0  0.00000000000E+00 -0.00000000000E+00 -0.44514475145E+03  0.44514475145E+03  0.00000000000E+00 0. -1.
         24    2    1    2    0    0 -0.28059128236E+03 -0.39635381717E+03  0.11135244542E+04  0.12173815540E+04  0.79077947977E+02 0.  0.
        254    2    1    2    0    0  0.28059128236E+03  0.39635381717E+03  0.28428225761E+03  0.10707146607E+04  0.91092571951E+03 0.  0.
         23    2    4    4    0    0 -0.24756588850E+03  0.39906487404E+03  0.23251910403E+03  0.53194249442E+03  0.91411382146E+02 0.  0.
         23    2    4    4    0    0  0.52815717087E+03 -0.27110568715E+01  0.51763153578E+02  0.53877216625E+03  0.92944478549E+02 0.  0.
          4    1    3    3  502    0 -0.14604004563E+03 -0.23891467644E+03  0.55368886425E+03  0.62046698215E+03  0.00000000000E+00 0. -1.
         -3    1    3    3    0  502 -0.13455123673E+03 -0.15743914073E+03  0.55983558994E+03  0.59691457187E+03  0.00000000000E+00 0.  1.
         11    1    5    5    0    0 -0.11668957979E+03  0.24084510657E+03  0.17100007801E+03  0.31759069582E+03  0.00000000000E+00 0.  1.
        -11    1    5    5    0    0 -0.13087630871E+03  0.15821976747E+03  0.61519026018E+02  0.21435179860E+03  0.00000000000E+00 0. -1.
          3    1    6    6  503    0  0.23111423124E+03  0.80426278232E+01  0.68139247391E+02  0.24108386254E+03  0.00000000000E+00 0. -1.
         -3    1    6    6    0  503  0.29704293963E+03 -0.10753684695E+02 -0.16376093813E+02  0.29768830371E+03  0.00000000000E+00 0.  1.
<mgrwt>
<rscale>  0 0.18114968E+04</rscale>
<asrwt>0</asrwt>
<pdfrwt beam="1">  1        2 0.68483809E-01 0.18114968E+04</pdfrwt>
<pdfrwt beam="2">  1       -1 0.28353099E+00 0.18114968E+04</pdfrwt>
<totfact> 0.32080094E+00</totfact>
</mgrwt>
</event>
<event>
12    6  0.1611689E-007  0.2194698E+04  0.7818608E-02  0.8520638E-01
         -1   -1    0    0    0  501 -0.00000000000E+00  0.00000000000E+00  0.83388507087E+03  0.83388507087E+03  0.00000000000E+00 0.  1.
          2   -1    0    0  501    0  0.00000000000E+00 -0.00000000000E+00 -0.14440543634E+04  0.14440543634E+04  0.00000000000E+00 0. -1.
         24    2    1    2    0    0  0.84225566815E+03  0.71707155449E+02 -0.59878567486E+03  0.10390722968E+04  0.81181443888E+02 0.  0.
        254    2    1    2    0    0 -0.84225566815E+03 -0.71707155449E+02 -0.11383617717E+02  0.12388671375E+04  0.90560790139E+03 0.  0.
         23    2    4    4    0    0 -0.58578493135E+03 -0.15332886907E+03 -0.41923122046E+03  0.74197970762E+03  0.90140681369E+02 0.  0.
         23    2    4    4    0    0 -0.25647073680E+03  0.81621713619E+02  0.40784760274E+03  0.49688742991E+03  0.90100543697E+02 0.  0.
          2    1    3    3  502    0  0.54180923683E+03  0.43308901238E+02 -0.43172441726E+03  0.69413174723E+03  0.00000000000E+00 0. -1.
         -1    1    3    3    0  502  0.30044643131E+03  0.28398254211E+02 -0.16706125759E+03  0.34494054954E+03  0.00000000000E+00 0.  1.
         11    1    5    5    0    0 -0.30957603350E+03 -0.64339427535E+02 -0.16748771835E+03  0.35781142834E+03  0.00000000000E+00 0.  1.
        -11    1    5    5    0    0 -0.27620889785E+03 -0.88989441534E+02 -0.25174350211E+03  0.38416827929E+03  0.00000000000E+00 0. -1.
          3    1    6    6  503    0 -0.26111691601E+03  0.72142800527E+02  0.37665139618E+03  0.46395355558E+03  0.00000000000E+00 0. -1.
         -3    1    6    6    0  503  0.46461792060E+01  0.94789130925E+01  0.31196206563E+02  0.32933874333E+02  0.00000000000E+00 0.  1.
<mgrwt>
<rscale>  0 0.21946985E+04</rscale>
<asrwt>0</asrwt>
<pdfrwt beam="1">  1        2 0.22216221E+00 0.21946985E+04</pdfrwt>
<pdfrwt beam="2">  1       -1 0.12829001E+00 0.21946985E+04</pdfrwt>
<totfact> 0.74611418E+00</totfact>
</mgrwt>
</event>
<event>
12    6  0.1611689E-007  0.1566292E+04  0.7818608E-02  0.8841528E-01
          2   -1    0    0  501    0  0.00000000000E+00  0.00000000000E+00  0.48407741692E+04  0.48407741692E+04  0.00000000000E+00 0. -1.
         -1   -1    0    0    0  501 -0.00000000000E+00 -0.00000000000E+00 -0.12669820498E+03  0.12669820498E+03  0.00000000000E+00 0.  1.
         24    2    1    2    0    0 -0.46903968924E+03  0.14242364078E+03  0.20959149259E+04  0.21538453388E+04  0.76861194182E+02 0.  0.
        254    2    1    2    0    0  0.46903968924E+03 -0.14242364078E+03  0.26181610383E+04  0.28136270354E+04  0.90633721558E+03 0.  0.
         23    2    4    4    0    0  0.34095972005E+03 -0.15389555481E+03  0.29546357905E+03  0.48564338326E+03  0.92808386873E+02 0.  0.
         23    2    4    4    0    0  0.12807996919E+03  0.11471914031E+02  0.23226974592E+04  0.23279836521E+04  0.89712396619E+02 0.  0.
          2    1    3    3  502    0 -0.43233489270E+03  0.10921354206E+03  0.18480826689E+04  0.19011182521E+04  0.00000000000E+00 0. -1.
         -1    1    3    3    0  502 -0.36704796544E+02  0.33210098721E+02  0.24783225701E+03  0.25272708671E+03  0.00000000000E+00 0.  1.
         11    1    5    5    0    0  0.12187441908E+03 -0.94274891656E+02  0.84604557396E+02  0.17578128557E+03  0.00000000000E+00 0. -1.
        -11    1    5    5    0    0  0.21908530097E+03 -0.59620663155E+02  0.21085902165E+03  0.30986209769E+03  0.00000000000E+00 0.  1.
          2    1    6    6  503    0  0.94578921513E+02 -0.19057898377E+01  0.92579334520E+03  0.93061384174E+03  0.00000000000E+00 0. -1.
         -2    1    6    6    0  503  0.33501047674E+02  0.13377703869E+02  0.13969041140E+04  0.13973698104E+04  0.00000000000E+00 0.  1.
<mgrwt>
<rscale>  0 0.15662917E+04</rscale>
<asrwt>0</asrwt>
<pdfrwt beam="1">  1        2 0.74473434E+00 0.15662917E+04</pdfrwt>
<pdfrwt beam="2">  1       -1 0.19492035E-01 0.15662917E+04</pdfrwt>
<totfact> 0.13033173E+00</totfact>
</mgrwt>
</event>
<event>
12    6  0.1611689E-007  0.2293008E+04  0.7818608E-02  0.8480683E-01
          2   -1    0    0  501    0  0.00000000000E+00  0.00000000000E+00  0.26805790313E+04  0.26805790313E+04  0.00000000000E+00 0. -1.
         -1   -1    0    0    0  501 -0.00000000000E+00 -0.00000000000E+00 -0.49036827869E+03  0.49036827869E+03  0.00000000000E+00 0.  1.
         24    2    1    2    0    0  0.61898498845E+03 -0.74394229684E+03  0.10180644912E+04  0.14070254325E+04  0.81686610761E+02 0.  0.
        254    2    1    2    0    0 -0.61898498845E+03  0.74394229684E+03  0.11721462614E+04  0.17639218775E+04  0.89493070959E+03 0.  0.
         23    2    4    4    0    0  0.11410268974E+03 -0.65257660718E+01  0.48495400390E+03  0.50653822748E+03  0.91315828686E+02 0.  0.
         23    2    4    4    0    0 -0.73308767819E+03  0.75046806291E+03  0.68719225746E+03  0.12573836500E+04  0.90335968888E+02 0.  0.
          2    1    3    3  502    0  0.48900059111E+03 -0.58728236621E+03  0.75352264019E+03  0.10732280862E+04  0.00000000000E+00 0. -1.
         -1    1    3    3    0  502  0.12998439733E+03 -0.15665993063E+03  0.26454185105E+03  0.33379734626E+03  0.00000000000E+00 0.  1.
         11    1    5    5    0    0  0.32723786559E+02 -0.39155619008E+02  0.26279988583E+03  0.26770840237E+03  0.00000000000E+00 0. -1.
        -11    1    5    5    0    0  0.81378903185E+02  0.32629852936E+02  0.22215411807E+03  0.23882982511E+03  0.00000000000E+00 0.  1.
          4    1    6    6  503    0 -0.23496650168E+03  0.28096180423E+03  0.27875673345E+03  0.46027612233E+03  0.00000000000E+00 0. -1.
         -4    1    6    6    0  503 -0.49812117651E+03  0.46950625868E+03  0.40843552401E+03  0.79710752769E+03  0.00000000000E+00 0.  1.
<mgrwt>
<rscale>  0 0.22930076E+04</rscale>
<asrwt>0</asrwt>
<pdfrwt beam="1">  1        2 0.41239677E+00 0.22930076E+04</pdfrwt>
<pdfrwt beam="2">  1       -1 0.75441275E-01 0.22930076E+04</pdfrwt>
<totfact> 0.49716736E+00</totfact>
</mgrwt>
</event>
<event>
12    6  0.1611689E-007  0.2093834E+04  0.7818608E-02  0.8563964E-01
         -1   -1    0    0    0  501 -0.00000000000E+00  0.00000000000E+00  0.65164447621E+03  0.65164447621E+03  0.00000000000E+00 0.  1.
          2   -1    0    0  501    0  0.00000000000E+00 -0.00000000000E+00 -0.16819526655E+04  0.16819526655E+04  0.00000000000E+00 0. -1.
         24    2    1    2    0    0  0.26583767236E+02 -0.61911022119E+02  0.52437351885E+03  0.53455362018E+03  0.78995659661E+02 0.  0.
        254    2    1    2    0    0 -0.26583767236E+02  0.61911022119E+02 -0.15546817082E+04  0.17990435215E+04  0.90276392672E+03 0.  0.
         23    2    4    4    0    0 -0.41568443199E+02 -0.11584438297E+03  0.62903953198E+02  0.16895799999E+03  0.97170169796E+02 0.  0.
         23    2    4    4    0    0  0.14984675963E+02  0.17775540508E+03 -0.16175856614E+04  0.16300855216E+04  0.93669158262E+02 0.  0.
          2    1    3    3  502    0  0.15170958965E+02 -0.21276526368E+02  0.36675533434E+02  0.45032691712E+02  0.00000000000E+00 0. -1.
         -1    1    3    3    0  502  0.11412808272E+02 -0.40634495751E+02  0.48769798541E+03  0.48952092847E+03  0.00000000000E+00 0.  1.
         11    1    5    5    0    0 -0.63836313463E+01  0.13712941037E+02 -0.80246077287E+01  0.17122786871E+02  0.00000000000E+00 0.  1.
        -11    1    5    5    0    0 -0.35184811853E+02 -0.12955732400E+03  0.70928560927E+02  0.15183521312E+03  0.00000000000E+00 0. -1.
          3    1    6    6  503    0  0.82804873636E+01  0.18207133044E+03 -0.13346092300E+04  0.13469967828E+04  0.00000000000E+00 0. -1.
         -3    1    6    6    0  503  0.67041885992E+01 -0.43159253544E+01 -0.28297643131E+03  0.28308873880E+03  0.00000000000E+00 0.  1.
<mgrwt>
<rscale>  0 0.20938340E+04</rscale>
<asrwt>0</asrwt>
<pdfrwt beam="1">  1        2 0.25876195E+00 0.20938340E+04</pdfrwt>
<pdfrwt beam="2">  1       -1 0.10025300E+00 0.20938340E+04</pdfrwt>
<totfact> 0.99868632E+00</totfact>
</mgrwt>
</event>
<event>
12    6  0.1611689E-007  0.1480170E+04  0.7818608E-02  0.8897748E-01
          2   -1    0    0  501    0  0.00000000000E+00  0.00000000000E+00  0.20665048962E+04  0.20665048962E+04  0.00000000000E+00 0. -1.
         -1   -1    0    0    0  501 -0.00000000000E+00 -0.00000000000E+00 -0.26504926738E+03  0.26504926738E+03  0.00000000000E+00 0.  1.
         24    2    1    2    0    0  0.19844924309E+03 -0.41343045225E+03  0.50229356071E+03  0.68450529733E+03  0.77083331578E+02 0.  0.
        254    2    1    2    0    0 -0.19844924309E+03  0.41343045225E+03  0.12991620681E+04  0.16470488663E+04  0.90257467708E+03 0.  0.
         23    2    4    4    0    0 -0.21419293752E+03  0.59517342664E+03  0.47178539718E+03  0.79494770605E+03  0.96178854795E+02 0.  0.
         23    2    4    4    0    0  0.15743694431E+02 -0.18174297439E+03  0.82737667094E+03  0.85210116022E+03  0.90806712120E+02 0.  0.
          2    1    3    3  502    0  0.13400734965E+02 -0.12631481743E+02  0.46309158400E+02  0.49836454332E+02  0.00000000000E+00 0. -1.
         -1    1    3    3    0  502  0.18504850813E+03 -0.40079897050E+03  0.45598440231E+03  0.63466884299E+03  0.00000000000E+00 0.  1.
         11    1    5    5    0    0 -0.99882202366E+02  0.40493875373E+03  0.32667313223E+03  0.52978031668E+03  0.00000000000E+00 0. -1.
        -11    1    5    5    0    0 -0.11431073515E+03  0.19023467291E+03  0.14511226494E+03  0.26516738937E+03  0.00000000000E+00 0.  1.
          3    1    6    6  503    0 -0.26665467540E+00 -0.56759253240E+02  0.11040075767E+03  0.12413706629E+03  0.00000000000E+00 0. -1.
         -3    1    6    6    0  503  0.16010349106E+02 -0.12498372115E+03  0.71697591328E+03  0.72796409393E+03  0.00000000000E+00 0.  1.
<mgrwt>
<rscale>  0 0.14801697E+04</rscale>
<asrwt>0</asrwt>
<pdfrwt beam="1">  1        2 0.31792382E+00 0.14801697E+04</pdfrwt>
<pdfrwt beam="2">  1       -1 0.40776812E-01 0.14801697E+04</pdfrwt>
<totfact> 0.39779073E+01</totfact>
</mgrwt>
</event>
<event>
12    6  0.1611689E-007  0.2581512E+04  0.7818608E-02  0.8374508E-01
         -1   -1    0    0    0  501 -0.00000000000E+00  0.00000000000E+00  0.50250642978E+03  0.50250642978E+03  0.00000000000E+00 0.  1.
          2   -1    0    0  501    0  0.00000000000E+00 -0.00000000000E+00 -0.33154824857E+04  0.33154824857E+04  0.00000000000E+00 0. -1.
         24    2    1    2    0    0  0.79642718681E+03 -0.51837004512E+03 -0.32474824504E+03  0.10074264065E+04  0.80266894602E+02 0.  0.
        254    2    1    2    0    0 -0.79642718681E+03  0.51837004512E+03 -0.24882278109E+04  0.28105625089E+04  0.89720689379E+03 0.  0.
         23    2    4    4    0    0 -0.30127326483E+03  0.54878123580E+03 -0.20420278101E+04  0.21379519295E+04  0.95049729384E+02 0.  0.
         23    2    4    4    0    0 -0.49515392198E+03 -0.30411190676E+02 -0.44620000082E+03  0.67261057941E+03  0.84901730485E+02 0.  0.
          2    1    3    3  502    0  0.17307711896E+03 -0.10095784015E+03 -0.36007591177E+02  0.20357976623E+03  0.00000000000E+00 0. -1.
         -1    1    3    3    0  502  0.62335006785E+03 -0.41741220497E+03 -0.28874065386E+03  0.80384664031E+03  0.00000000000E+00 0.  1.
         11    1    5    5    0    0 -0.62734419545E+02  0.54298833198E+02 -0.31616755096E+03  0.32687289725E+03  0.00000000000E+00 0. -1.
        -11    1    5    5    0    0 -0.23853884529E+03  0.49448240260E+03 -0.17258602591E+04  0.18110790323E+04  0.00000000000E+00 0.  1.
          3    1    6    6  503    0 -0.22100732100E+03  0.22157945528E+02 -0.22800090257E+03  0.31830743324E+03  0.00000000000E+00 0. -1.
         -3    1    6    6    0  503 -0.27414660098E+03 -0.52569136204E+02 -0.21819909825E+03  0.35430314617E+03  0.00000000000E+00 0.  1.
<mgrwt>
<rscale>  0 0.25815122E+04</rscale>
<asrwt>0</asrwt>
<pdfrwt beam="1">  1        2 0.51007421E+00 0.25815122E+04</pdfrwt>
<pdfrwt beam="2">  1       -1 0.77308684E-01 0.25815122E+04</pdfrwt>
<totfact> 0.18384633E+00</totfact>
</mgrwt>
</event>
<event>
12    6  0.1611689E-007  0.1351179E+04  0.7818608E-02  0.8989936E-01
         -1   -1    0    0    0  501 -0.00000000000E+00  0.00000000000E+00  0.39034648780E+03  0.39034648780E+03  0.00000000000E+00 0.  1.
          2   -1    0    0  501    0  0.00000000000E+00 -0.00000000000E+00 -0.11692713961E+04  0.11692713961E+04  0.00000000000E+00 0. -1.
         24    2    1    2    0    0 -0.23812441091E+03  0.23355305150E+03 -0.28689469044E+02  0.34382421807E+03  0.78369281994E+02 0.  0.
        254    2    1    2    0    0  0.23812441091E+03 -0.23355305150E+03 -0.75023543923E+03  0.12157936658E+04  0.89668877579E+03 0.  0.
         23    2    4    4    0    0  0.13900643055E+03 -0.45580280125E+03 -0.81507145600E+03  0.94849274235E+03  0.90653309587E+02 0.  0.
         23    2    4    4    0    0  0.99117980357E+02  0.22224974975E+03  0.64836016763E+02  0.26730092347E+03  0.89592127595E+02 0.  0.
          4    1    3    3  502    0 -0.40693438395E+02  0.21862738717E+02 -0.28647035009E+02  0.54356120975E+02  0.00000000000E+00 0. -1.
         -3    1    3    3    0  502 -0.19743097251E+03  0.21169031279E+03 -0.42434034923E-01  0.28946809709E+03  0.00000000000E+00 0.  1.
         11    1    5    5    0    0  0.82589420262E+02 -0.38184949383E+03 -0.68512496776E+03  0.78868642040E+03  0.00000000000E+00 0. -1.
        -11    1    5    5    0    0  0.56417010287E+02 -0.73953307423E+02 -0.12994648824E+03  0.15980632195E+03  0.00000000000E+00 0.  1.
          4    1    6    6  503    0  0.77274996076E+02  0.66245706415E+02  0.24362574961E+02  0.10465874878E+03  0.00000000000E+00 0. -1.
         -4    1    6    6    0  503  0.21842984281E+02  0.15600404333E+03  0.40473441801E+02  0.16264217470E+03  0.00000000000E+00 0.  1.
<mgrwt>
<rscale>  0 0.13511787E+04</rscale>
<asrwt>0</asrwt>
<pdfrwt beam="1">  1        2 0.17988791E+00 0.13511787E+04</pdfrwt>
<pdfrwt beam="2">  1       -1 0.60053306E-01 0.13511787E+04</pdfrwt>
<totfact> 0.61883772E+01</totfact>
</mgrwt>
</event>
<event>
12    6  0.1611689E-007  0.2150143E+04  0.7818608E-02  0.8539471E-01
          2   -1    0    0  501    0  0.00000000000E+00  0.00000000000E+00  0.15486813794E+04  0.15486813794E+04  0.00000000000E+00 0. -1.
         -1   -1    0    0    0  501 -0.00000000000E+00 -0.00000000000E+00 -0.74629848880E+03  0.74629848880E+03  0.00000000000E+00 0.  1.
         24    2    1    2    0    0 -0.65646777047E+03  0.38783006131E+03  0.81655544894E+03  0.11200320319E+04  0.79667189581E+02 0.  0.
        254    2    1    2    0    0  0.65646777047E+03 -0.38783006131E+03 -0.14172558301E+02  0.11749478364E+04  0.89383413822E+03 0.  0.
         23    2    4    4    0    0  0.14132716738E+03 -0.51494867407E+03 -0.23722596955E+03  0.59121942461E+03  0.90104063427E+02 0.  0.
         23    2    4    4    0    0  0.51514060309E+03  0.12711861276E+03  0.22305341125E+03  0.58372841175E+03  0.97247374017E+02 0.  0.
          2    1    3    3  502    0 -0.58415501818E+03  0.34603933895E+03  0.68703453360E+03  0.96591757398E+03  0.00000000000E+00 0. -1.
         -3    1    3    3    0  502 -0.72312752288E+02  0.41790722356E+02  0.12952091534E+03  0.15411445789E+03  0.00000000000E+00 0.  1.
         11    1    5    5    0    0  0.70518557679E+01 -0.42989068070E+02 -0.49262437727E+02  0.65761511647E+02  0.00000000000E+00 0. -1.
        -11    1    5    5    0    0  0.13427531161E+03 -0.47195960600E+03 -0.18796353182E+03  0.52545791296E+03  0.00000000000E+00 0.  1.
          2    1    6    6  503    0  0.16905695317E+03  0.89533739796E+02  0.80843619701E+02  0.20768301525E+03  0.00000000000E+00 0. -1.
         -2    1    6    6    0  503  0.34608364992E+03  0.37584872966E+02  0.14220979154E+03  0.37604539650E+03  0.00000000000E+00 0.  1.
<mgrwt>
<rscale>  0 0.21501429E+04</rscale>
<asrwt>0</asrwt>
<pdfrwt beam="1">  1        2 0.23825867E+00 0.21501429E+04</pdfrwt>
<pdfrwt beam="2">  1       -1 0.11481515E+00 0.21501429E+04</pdfrwt>
<totfact> 0.85848215E+00</totfact>
</mgrwt>
</event>
<event>
12    6  0.1611689E-007  0.2050252E+04  0.7818608E-02  0.8583480E-01
         -1   -1    0    0    0  501 -0.00000000000E+00  0.00000000000E+00  0.15177216769E+04  0.15177216769E+04  0.00000000000E+00 0.  1.
          2   -1    0    0  501    0  0.00000000000E+00 -0.00000000000E+00 -0.69240819687E+03  0.69240819687E+03  0.00000000000E+00 0. -1.
         24    2    1    2    0    0 -0.59812292123E+02 -0.38876317276E+03 -0.44746291420E+03  0.60105217075E+03  0.79538277555E+02 0.  0.
        254    2    1    2    0    0  0.59812292123E+02  0.38876317276E+03  0.12727763942E+04  0.16090777030E+04  0.90247270863E+03 0.  0.
         23    2    4    4    0    0  0.37049121316E+03 -0.90540917275E+02  0.64380736760E+03  0.75442518146E+03  0.95958486362E+02 0.  0.
         23    2    4    4    0    0 -0.31067892104E+03  0.47930409004E+03  0.62896902661E+03  0.85465252154E+03  0.92601800368E+02 0.  0.
          2    1    3    3  502    0 -0.18592659381E+02 -0.27610832952E+03 -0.35192719499E+03  0.44769883537E+03  0.00000000000E+00 0. -1.
         -3    1    3    3    0  502 -0.41219632742E+02 -0.11265484324E+03 -0.95535719203E+02  0.15335333538E+03  0.00000000000E+00 0.  1.
         11    1    5    5    0    0  0.14901942319E+02  0.65978521956E+01  0.52732562117E+01  0.17129120513E+02  0.00000000000E+00 0.  1.
        -11    1    5    5    0    0  0.35558927084E+03 -0.97138769470E+02  0.63853411139E+03  0.73729606095E+03  0.00000000000E+00 0. -1.
          1    1    6    6  503    0 -0.19155627678E+03  0.21054570337E+03  0.30559358250E+03  0.41762511664E+03  0.00000000000E+00 0. -1.
         -1    1    6    6    0  503 -0.11912264426E+03  0.26875838667E+03  0.32337544411E+03  0.43702740490E+03  0.00000000000E+00 0.  1.
<mgrwt>
<rscale>  0 0.20502516E+04</rscale>
<asrwt>0</asrwt>
<pdfrwt beam="1">  1        2 0.10652434E+00 0.20502516E+04</pdfrwt>
<pdfrwt beam="2">  1       -1 0.23349564E+00 0.20502516E+04</pdfrwt>
<totfact> 0.39263644E+00</totfact>
</mgrwt>
</event>
<event>
12    6  0.1611689E-007  0.2332139E+04  0.7818608E-02  0.8465356E-01
          2   -1    0    0  501    0  0.00000000000E+00  0.00000000000E+00  0.20470727098E+04  0.20470727098E+04  0.00000000000E+00 0. -1.
         -1   -1    0    0    0  501 -0.00000000000E+00 -0.00000000000E+00 -0.66422553694E+03  0.66422553694E+03  0.00000000000E+00 0.  1.
         24    2    1    2    0    0 -0.30728310415E+03  0.53876970331E+03  0.14842485969E+04  0.16106988847E+04  0.81616791603E+02 0.  0.
        254    2    1    2    0    0  0.30728310415E+03 -0.53876970331E+03 -0.10140142405E+03  0.11005993620E+04  0.90351591435E+03 0.  0.
         23    2    4    4    0    0  0.44176060902E+03  0.77835877581E+02 -0.54535122369E+02  0.46091715024E+03  0.90882783217E+02 0.  0.
         23    2    4    4    0    0 -0.13447750488E+03 -0.61660558089E+03 -0.46866301683E+02  0.63968221174E+03  0.93328666979E+02 0.  0.
          4    1    3    3  502    0 -0.20962811047E+03  0.43553582202E+03  0.11335289280E+04  0.12322837448E+04  0.00000000000E+00 0. -1.
         -3    1    3    3    0  502 -0.97654993676E+02  0.10323388128E+03  0.35071966885E+03  0.37841513997E+03  0.00000000000E+00 0.  1.
         11    1    5    5    0    0  0.15268948450E+03  0.46849340792E+02  0.19527632603E+02  0.16090453021E+03  0.00000000000E+00 0.  1.
        -11    1    5    5    0    0  0.28907112453E+03  0.30986536789E+02 -0.74062754972E+02  0.30001262002E+03  0.00000000000E+00 0. -1.
          3    1    6    6  503    0 -0.74056760038E+02 -0.27994153032E+03  0.23332504316E+02  0.29051001680E+03  0.00000000000E+00 0. -1.
         -3    1    6    6    0  503 -0.60420744837E+02 -0.33666405057E+03 -0.70198805999E+02  0.34917219494E+03  0.00000000000E+00 0.  1.
<mgrwt>
<rscale>  0 0.23321389E+04</rscale>
<asrwt>0</asrwt>
<pdfrwt beam="1">  1        2 0.31493426E+00 0.23321389E+04</pdfrwt>
<pdfrwt beam="2">  1       -1 0.10218855E+00 0.23321389E+04</pdfrwt>
<totfact> 0.58682981E+00</totfact>
</mgrwt>
</event>
<event>
12    6  0.1611689E-007  0.1215328E+04  0.7818608E-02  0.9099545E-01
         -1   -1    0    0    0  501 -0.00000000000E+00  0.00000000000E+00  0.16173334362E+03  0.16173334362E+03  0.00000000000E+00 0.  1.
          2   -1    0    0  501    0  0.00000000000E+00 -0.00000000000E+00 -0.22831123240E+04  0.22831123240E+04  0.00000000000E+00 0. -1.
         24    2    1    2    0    0  0.14119312090E+02  0.44182228351E+02  0.37445801053E+02  0.10288150622E+03  0.83851010908E+02 0.  0.
        254    2    1    2    0    0 -0.14119312090E+02 -0.44182228351E+02 -0.21588247815E+04  0.23419641614E+04  0.90670848242E+03 0.  0.
         23    2    4    4    0    0 -0.39175642529E+03  0.17949686862E+03 -0.83119974218E+03  0.94067880132E+03  0.91056978097E+02 0.  0.
         23    2    4    4    0    0  0.37763711320E+03 -0.22367909698E+03 -0.13276250393E+04  0.14012853601E+04  0.91489277086E+02 0.  0.
          2    1    3    3  502    0 -0.33406686398E+02  0.25694623292E+02  0.50031886755E+01  0.42441162321E+02  0.00000000000E+00 0. -1.
         -1    1    3    3    0  502  0.47525998488E+02  0.18487605059E+02  0.32442612378E+02  0.60440343902E+02  0.00000000000E+00 0.  1.
         11    1    5    5    0    0  0.45984420548E+01  0.48132126553E+01 -0.74306328393E+01  0.99763214558E+01  0.00000000000E+00 0.  1.
        -11    1    5    5    0    0 -0.39635486735E+03  0.17468365597E+03 -0.82376910934E+03  0.93070247987E+03  0.00000000000E+00 0. -1.
          3    1    6    6  503    0  0.37681185629E+03 -0.21601408085E+03 -0.13225776329E+04  0.13920707070E+04  0.00000000000E+00 0. -1.
         -3    1    6    6    0  503  0.82525690911E+00 -0.76650161216E+01 -0.50474063829E+01  0.92146531299E+01  0.00000000000E+00 0.  1.
<mgrwt>
<rscale>  0 0.12153278E+04</rscale>
<asrwt>0</asrwt>
<pdfrwt beam="1">  1        2 0.35124802E+00 0.12153278E+04</pdfrwt>
<pdfrwt beam="2">  1       -1 0.24882055E-01 0.12153278E+04</pdfrwt>
<totfact> 0.73755018E+01</totfact>
</mgrwt>
</event>
<event>
12    6  0.1611689E-007  0.2559024E+04  0.7818608E-02  0.8382255E-01
         -1   -1    0    0    0  501 -0.00000000000E+00  0.00000000000E+00  0.12574490765E+04  0.12574490765E+04  0.00000000000E+00 0.  1.
          2   -1    0    0  501    0  0.00000000000E+00 -0.00000000000E+00 -0.13019618860E+04  0.13019618860E+04  0.00000000000E+00 0. -1.
         24    2    1    2    0    0 -0.61540669335E+03  0.39655322828E+03  0.82778241441E+03  0.11079108964E+04  0.79138913319E+02 0.  0.
        254    2    1    2    0    0  0.61540669335E+03 -0.39655322828E+03 -0.87229522393E+03  0.14515000661E+04  0.89998534613E+03 0.  0.
         23    2    4    4    0    0  0.29796283118E+03 -0.38865445924E+03 -0.98523564023E+03  0.11031183322E+04  0.79665868646E+02 0.  0.
         23    2    4    4    0    0  0.31744386217E+03 -0.78987690422E+01  0.11294041630E+03  0.34838173393E+03  0.88211670004E+02 0.  0.
          4    1    3    3  502    0 -0.37079013918E+03  0.23873141488E+03  0.43936235391E+03  0.62250887046E+03  0.00000000000E+00 0. -1.
         -3    1    3    3    0  502 -0.24461655417E+03  0.15782181341E+03  0.38842006050E+03  0.48540202591E+03  0.00000000000E+00 0.  1.
         11    1    5    5    0    0  0.23376088200E+03 -0.28358745366E+03 -0.80397442054E+03  0.88399143814E+03  0.00000000000E+00 0.  1.
        -11    1    5    5    0    0  0.64201949186E+02 -0.10506700558E+03 -0.18126121969E+03  0.21912689407E+03  0.00000000000E+00 0. -1.
          4    1    6    6  503    0  0.70328010173E+02  0.35320982928E+02  0.27232761943E+02  0.83277993329E+02  0.00000000000E+00 0. -1.
         -4    1    6    6    0  503  0.24711585200E+03 -0.43219751971E+02  0.85707654356E+02  0.26510374061E+03  0.00000000000E+00 0.  1.
<mgrwt>
<rscale>  0 0.25590239E+04</rscale>
<asrwt>0</asrwt>
<pdfrwt beam="1">  1        2 0.20030183E+00 0.25590239E+04</pdfrwt>
<pdfrwt beam="2">  1       -1 0.19345370E+00 0.25590239E+04</pdfrwt>
<totfact> 0.27866371E+00</totfact>
</mgrwt>
</event>
<event>
12    6  0.1611689E-007  0.2311981E+04  0.7818608E-02  0.8473212E-01
         -1   -1    0    0    0  501 -0.00000000000E+00  0.00000000000E+00  0.10022111469E+04  0.10022111469E+04  0.00000000000E+00 0.  1.
          2   -1    0    0  501    0  0.00000000000E+00 -0.00000000000E+00 -0.13333654296E+04  0.13333654296E+04  0.00000000000E+00 0. -1.
         24    2    1    2    0    0  0.69861897162E+03 -0.68913230675E+03 -0.12672400429E+03  0.99267306820E+03  0.79806286508E+02 0.  0.
        254    2    1    2    0    0 -0.69861897162E+03  0.68913230675E+03 -0.20443027843E+03  0.13429035082E+04  0.89365893379E+03 0.  0.
         23    2    4    4    0    0  0.44365366412E+02 -0.13608577656E+03  0.87067981624E+02  0.19131326386E+03  0.92370488727E+02 0.  0.
         23    2    4    4    0    0 -0.74298433803E+03  0.82521808330E+03 -0.29149826006E+03  0.11515902444E+04  0.90433642589E+02 0.  0.
          2    1    3    3  502    0  0.45698085788E+02 -0.60828109599E+02 -0.28460991161E+02  0.81230548317E+02  0.00000000000E+00 0. -1.
         -1    1    3    3    0  502  0.65292088583E+03 -0.62830419715E+03 -0.98263013124E+02  0.91144251988E+03  0.00000000000E+00 0.  1.
         11    1    5    5    0    0  0.70399005579E+02 -0.10841794512E+03  0.81757973903E+02  0.15295370903E+03  0.00000000000E+00 0. -1.
        -11    1    5    5    0    0 -0.26033639166E+02 -0.27667831438E+02  0.53100077212E+01  0.38359554830E+02  0.00000000000E+00 0.  1.
          3    1    6    6  503    0 -0.38487199363E+03  0.48965677540E+03 -0.18044478768E+03  0.64842156856E+03  0.00000000000E+00 0. -1.
         -3    1    6    6    0  503 -0.35811234440E+03  0.33556130790E+03 -0.11105347238E+03  0.50316867580E+03  0.00000000000E+00 0.  1.
<mgrwt>
<rscale>  0 0.23119807E+04</rscale>
<asrwt>0</asrwt>
<pdfrwt beam="1">  1        2 0.20513314E+00 0.23119807E+04</pdfrwt>
<pdfrwt beam="2">  1       -1 0.15418633E+00 0.23119807E+04</pdfrwt>
<totfact> 0.52828937E+00</totfact>
</mgrwt>
</event>
<event>
12    6  0.1611689E-007  0.1589656E+04  0.7818608E-02  0.8826928E-01
          2   -1    0    0  501    0  0.00000000000E+00  0.00000000000E+00  0.90970886427E+03  0.90970886427E+03  0.00000000000E+00 0. -1.
         -1   -1    0    0    0  501 -0.00000000000E+00 -0.00000000000E+00 -0.69445474954E+03  0.69445474954E+03  0.00000000000E+00 0.  1.
         24    2    1    2    0    0 -0.27805971733E+03 -0.10320385300E+03  0.56929823609E+03  0.64677993650E+03  0.79092116989E+02 0.  0.
        254    2    1    2    0    0  0.27805971733E+03  0.10320385300E+03 -0.35404412136E+03  0.95738367731E+03  0.83861077028E+03 0.  0.
         23    2    4    4    0    0  0.62632670081E+02 -0.22476707497E+03 -0.47485835162E+03  0.53689344140E+03  0.91219646785E+02 0.  0.
         23    2    4    4    0    0  0.21542704725E+03  0.32797092798E+03  0.12081423027E+03  0.42049023591E+03  0.90786661875E+02 0.  0.
          4    1    3    3  502    0 -0.23654003480E+03 -0.10688726113E+03  0.43922148318E+03  0.51018779478E+03  0.00000000000E+00 0. -1.
         -3    1    3    3    0  502 -0.41519682529E+02  0.36834081258E+01  0.13007675291E+03  0.13659214172E+03  0.00000000000E+00 0.  1.
         11    1    5    5    0    0  0.61210351737E+02 -0.21249579374E+03 -0.36805635216E+03  0.42937937524E+03  0.00000000000E+00 0.  1.
        -11    1    5    5    0    0  0.14223183435E+01 -0.12271281230E+02 -0.10680199946E+03  0.10751406616E+03  0.00000000000E+00 0. -1.
          4    1    6    6  503    0  0.54919381418E+02  0.52117624671E+02 -0.83924818270E+01  0.76176236503E+02  0.00000000000E+00 0. -1.
         -4    1    6    6    0  503  0.16050766583E+03  0.27585330331E+03  0.12920671209E+03  0.34431399940E+03  0.00000000000E+00 0.  1.
<mgrwt>
<rscale>  0 0.15896561E+04</rscale>
<asrwt>0</asrwt>
<pdfrwt beam="1">  1        2 0.13995521E+00 0.15896561E+04</pdfrwt>
<pdfrwt beam="2">  1       -1 0.10683919E+00 0.15896561E+04</pdfrwt>
<totfact> 0.25865568E+01</totfact>
</mgrwt>
</event>
<event>
12    6  0.1611689E-007  0.2436123E+04  0.7818608E-02  0.8426102E-01
          2   -1    0    0  501    0  0.00000000000E+00  0.00000000000E+00  0.13911986006E+04  0.13911986006E+04  0.00000000000E+00 0. -1.
         -1   -1    0    0    0  501 -0.00000000000E+00 -0.00000000000E+00 -0.10664719616E+04  0.10664719616E+04  0.00000000000E+00 0.  1.
         24    2    1    2    0    0  0.10126095942E+04 -0.19743473844E+03 -0.66319787466E+02  0.10369187120E+04  0.80271010176E+02 0.  0.
        254    2    1    2    0    0 -0.10126095942E+04  0.19743473844E+03  0.39104642645E+03  0.14207518502E+04  0.89513118931E+03 0.  0.
         23    2    4    4    0    0  0.10901551665E+03 -0.10487068823E+03 -0.38493767821E+02  0.17898077090E+03  0.87579118921E+02 0.  0.
         23    2    4    4    0    0 -0.11216251108E+04  0.30230542667E+03  0.42954019427E+03  0.12417710793E+04  0.89772906166E+02 0.  0.
          2    1    3    3  502    0  0.29572713018E+03 -0.64765810025E+02 -0.55510885597E+02  0.30778337202E+03  0.00000000000E+00 0. -1.
         -1    1    3    3    0  502  0.71688246397E+03 -0.13266892841E+03 -0.10808901869E+02  0.72913534003E+03  0.00000000000E+00 0.  1.
         11    1    5    5    0    0  0.74515921383E+02 -0.14469243427E+02 -0.31698759009E+01  0.75973874839E+02  0.00000000000E+00 0.  1.
        -11    1    5    5    0    0  0.34499595271E+02 -0.90401444803E+02 -0.35323891920E+02  0.10300689606E+03  0.00000000000E+00 0. -1.
          3    1    6    6  503    0 -0.17183706770E+03  0.15733746355E+02  0.76422307731E+02  0.18872174684E+03  0.00000000000E+00 0. -1.
         -3    1    6    6    0  503 -0.94978804311E+03  0.28657168031E+03  0.35311788654E+03  0.10530493325E+04  0.00000000000E+00 0.  1.
<mgrwt>
<rscale>  0 0.24361234E+04</rscale>
<asrwt>0</asrwt>
<pdfrwt beam="1">  1        2 0.21403055E+00 0.24361234E+04</pdfrwt>
<pdfrwt beam="2">  1       -1 0.16407261E+00 0.24361234E+04</pdfrwt>
<totfact> 0.40722038E+00</totfact>
</mgrwt>
</event>
<event>
12    6  0.1611689E-007  0.1052019E+04  0.7818608E-02  0.9253262E-01
         -1   -1    0    0    0  501 -0.00000000000E+00  0.00000000000E+00  0.10625136924E+04  0.10625136924E+04  0.00000000000E+00 0.  1.
          2   -1    0    0  501    0  0.00000000000E+00 -0.00000000000E+00 -0.26040721516E+03  0.26040721516E+03  0.00000000000E+00 0. -1.
         24    2    1    2    0    0 -0.68706844012E+01  0.41678618910E+02 -0.15577648106E+02  0.11130605761E+03  0.10179421281E+03 0.  0.
        254    2    1    2    0    0  0.68706844012E+01 -0.41678618910E+02  0.81768412538E+03  0.12116148500E+04  0.89309512496E+03 0.  0.
         23    2    4    4    0    0 -0.75510979622E+01 -0.45556054337E+03  0.49451162986E+03  0.67873396410E+03  0.92442491380E+02 0.  0.
         23    2    4    4    0    0  0.14421782363E+02  0.41388192446E+03  0.32317249552E+03  0.53288088588E+03  0.89528439483E+02 0.  0.
          2    1    3    3  502    0  0.14060551282E+02  0.51250352940E+02 -0.47954785881E+02  0.71581836158E+02  0.00000000000E+00 0. -1.
         -1    1    3    3    0  502 -0.20931235683E+02 -0.95717340296E+01  0.32377137775E+02  0.39724221453E+02  0.00000000000E+00 0.  1.
         11    1    5    5    0    0  0.32428399749E+02 -0.35192980977E+03  0.36386130492E+03  0.50724869771E+03  0.00000000000E+00 0. -1.
        -11    1    5    5    0    0 -0.39979497711E+02 -0.10363073360E+03  0.13065032493E+03  0.17148526639E+03  0.00000000000E+00 0.  1.
          3    1    6    6  503    0  0.20954799234E+02  0.31162788586E+03  0.19273532776E+03  0.36701219247E+03  0.00000000000E+00 0. -1.
         -3    1    6    6    0  503 -0.65330168708E+01  0.10225403859E+03  0.13043716776E+03  0.16586869341E+03  0.00000000000E+00 0.  1.
<mgrwt>
<rscale>  0 0.10520195E+04</rscale>
<asrwt>0</asrwt>
<pdfrwt beam="1">  1        2 0.40062649E-01 0.10520195E+04</pdfrwt>
<pdfrwt beam="2">  1       -1 0.16346364E+00 0.10520195E+04</pdfrwt>
<totfact> 0.40406847E+01</totfact>
</mgrwt>
</event>
<event>
12    6  0.1611689E-007  0.2451954E+04  0.7818608E-02  0.8420305E-01
          2   -1    0    0  501    0  0.00000000000E+00  0.00000000000E+00  0.34483245425E+04  0.34483245425E+04  0.00000000000E+00 0. -1.
         -1   -1    0    0    0  501 -0.00000000000E+00 -0.00000000000E+00 -0.43586947292E+03  0.43586947292E+03  0.00000000000E+00 0.  1.
         24    2    1    2    0    0  0.58723504070E+03  0.69141793892E+03  0.21764123683E+04  0.23592884175E+04  0.81038762360E+02 0.  0.
        254    2    1    2    0    0 -0.58723504070E+03 -0.69141793892E+03  0.83604270134E+03  0.15249055979E+04  0.89636260792E+03 0.  0.
         23    2    4    4    0    0 -0.39133320823E+03 -0.72019848595E+03  0.19383644450E+03  0.84717865127E+03  0.91167762539E+02 0.  0.
         23    2    4    4    0    0 -0.19590183247E+03  0.28780547032E+02  0.64220625684E+03  0.67772694667E+03  0.87630417441E+02 0.  0.
          4    1    3    3  502    0  0.19134411795E+03  0.21268688467E+03  0.78457630705E+03  0.83510973170E+03  0.00000000000E+00 0. -1.
         -3    1    3    3    0  502  0.39589092275E+03  0.47873105425E+03  0.13918360612E+04  0.15241786858E+04  0.00000000000E+00 0.  1.
         11    1    5    5    0    0 -0.31877615880E+03 -0.61566719064E+03  0.13219924943E+03  0.70579102473E+03  0.00000000000E+00 0.  1.
        -11    1    5    5    0    0 -0.72557049432E+02 -0.10453129531E+03  0.61637195068E+02  0.14138762654E+03  0.00000000000E+00 0. -1.
          2    1    6    6  503    0 -0.19656808330E+03  0.22034205446E+02  0.53646320492E+03  0.57176681244E+03  0.00000000000E+00 0.  1.
         -2    1    6    6    0  503  0.66625082425E+00  0.67463415859E+01  0.10574305193E+03  0.10596013423E+03  0.00000000000E+00 0. -1.
<mgrwt>
<rscale>  0 0.24519538E+04</rscale>
<asrwt>0</asrwt>
<pdfrwt beam="1">  1        2 0.53051145E+00 0.24519538E+04</pdfrwt>
<pdfrwt beam="2">  1       -1 0.67056844E-01 0.24519538E+04</pdfrwt>
<totfact> 0.20290993E+00</totfact>
</mgrwt>
</event>
<event>
12    6  0.1611689E-007  0.1229173E+04  0.7818608E-02  0.9087698E-01
          2   -1    0    0  501    0  0.00000000000E+00  0.00000000000E+00  0.80468818148E+03  0.80468818148E+03  0.00000000000E+00 0. -1.
         -1   -1    0    0    0  501 -0.00000000000E+00 -0.00000000000E+00 -0.46939488539E+03  0.46939488539E+03  0.00000000000E+00 0.  1.
         24    2    1    2    0    0 -0.75150742471E+02 -0.18180045179E+03  0.28236645510E+03  0.35186976237E+03  0.73365361975E+02 0.  0.
        254    2    1    2    0    0  0.75150742471E+02  0.18180045179E+03  0.52926840991E+02  0.92221330449E+03  0.89943153721E+03 0.  0.
         23    2    4    4    0    0  0.80203836741E+02  0.49051080661E+03 -0.16643002644E+03  0.53258090841E+03  0.94392602866E+02 0.  0.
         23    2    4    4    0    0 -0.50530942699E+01 -0.30871035482E+03  0.21935686743E+03  0.38963239608E+03  0.91478696173E+02 0.  0.
          4    1    3    3  502    0 -0.78745532908E+02 -0.18741213141E+03  0.27284842763E+03  0.34025054065E+03  0.00000000000E+00 0. -1.
         -3    1    3    3    0  502  0.35947904371E+01  0.56116796179E+01  0.95180274660E+01  0.11619221715E+02  0.00000000000E+00 0.  1.
         11    1    5    5    0    0  0.13209341911E+02  0.78037221535E+01 -0.16893744522E+02  0.22820679156E+02  0.00000000000E+00 0.  1.
        -11    1    5    5    0    0  0.66994494830E+02  0.48270708446E+03 -0.14953628192E+03  0.50976022926E+03  0.00000000000E+00 0. -1.
          2    1    6    6  503    0 -0.37112748320E+02 -0.23662469451E+03  0.13856913698E+03  0.27671286176E+03  0.00000000000E+00 0. -1.
         -2    1    6    6    0  503  0.32059654050E+02 -0.72085660305E+02  0.80787730452E+02  0.11291953432E+03  0.00000000000E+00 0.  1.
<mgrwt>
<rscale>  0 0.12291729E+04</rscale>
<asrwt>0</asrwt>
<pdfrwt beam="1">  1        2 0.12379818E+00 0.12291729E+04</pdfrwt>
<pdfrwt beam="2">  1       -1 0.72214598E-01 0.12291729E+04</pdfrwt>
<totfact> 0.74371436E+01</totfact>
</mgrwt>
</event>
<event>
12    6  0.1611689E-007  0.1396197E+04  0.7818608E-02  0.8956576E-01
          2   -1    0    0  501    0  0.00000000000E+00  0.00000000000E+00  0.39345989268E+03  0.39345989268E+03  0.00000000000E+00 0. -1.
         -1   -1    0    0    0  501 -0.00000000000E+00 -0.00000000000E+00 -0.12386060687E+04  0.12386060687E+04  0.00000000000E+00 0.  1.
         24    2    1    2    0    0  0.64426116962E+01  0.36533022818E+03 -0.48735322364E+02  0.37671584719E+03  0.77666047989E+02 0.  0.
        254    2    1    2    0    0 -0.64426116962E+01 -0.36533022818E+03 -0.79641085363E+03  0.12553501142E+04  0.89895827406E+03 0.  0.
         23    2    4    4    0    0  0.12050288675E+03  0.14957994481E+03 -0.67064359352E+03  0.70326985859E+03  0.89053685290E+02 0.  0.
         23    2    4    4    0    0 -0.12694549844E+03 -0.51491017299E+03 -0.12576726011E+03  0.55208025558E+03  0.87906535977E+02 0.  0.
          4    1    3    3  502    0 -0.43369549441E+01  0.35283916076E+03 -0.33835074678E+02  0.35448426597E+03  0.00000000000E+00 0. -1.
         -3    1    3    3    0  502  0.10779566640E+02  0.12491067419E+02 -0.14900247686E+02  0.22231581215E+02  0.00000000000E+00 0.  1.
         11    1    5    5    0    0  0.38930936541E+01 -0.76712119009E+00 -0.13110429346E+03  0.13116432600E+03  0.00000000000E+00 0. -1.
        -11    1    5    5    0    0  0.11660979309E+03  0.15034706600E+03 -0.53953930006E+03  0.57210553258E+03  0.00000000000E+00 0.  1.
          1    1    6    6  503    0 -0.60458645601E+02 -0.14424190391E+03 -0.45437306439E+01  0.15646603516E+03  0.00000000000E+00 0. -1.
         -1    1    6    6    0  503 -0.66486852843E+02 -0.37066826907E+03 -0.12122352947E+03  0.39561422042E+03  0.00000000000E+00 0.  1.
<mgrwt>
<rscale>  0 0.13961974E+04</rscale>
<asrwt>0</asrwt>
<pdfrwt beam="1">  1        2 0.60532292E-01 0.13961974E+04</pdfrwt>
<pdfrwt beam="2">  1       -1 0.19055478E+00 0.13961974E+04</pdfrwt>
<totfact> 0.15803762E+01</totfact>
</mgrwt>
</event>
<event>
12    6  0.1611689E-007  0.2064059E+04  0.7818608E-02  0.8577243E-01
          2   -1    0    0  501    0  0.00000000000E+00  0.00000000000E+00  0.17028134080E+04  0.17028134080E+04  0.00000000000E+00 0. -1.
         -1   -1    0    0    0  501 -0.00000000000E+00 -0.00000000000E+00 -0.62548538853E+03  0.62548538853E+03  0.00000000000E+00 0.  1.
         24    2    1    2    0    0 -0.75266566902E+03  0.11840760504E+03  0.37199111686E+02  0.76708120392E+03  0.80646321969E+02 0.  0.
        254    2    1    2    0    0  0.75266566902E+03 -0.11840760504E+03  0.10401289078E+04  0.15612175926E+04  0.88034439651E+03 0.  0.
         23    2    4    4    0    0  0.23336494073E+03 -0.26476851219E+03  0.93646331619E+03  0.10048636796E+04  0.90696810243E+02 0.  0.
         23    2    4    4    0    0  0.51930072828E+03  0.14636090715E+03  0.10366559161E+03  0.55635391304E+03  0.87683294478E+02 0.  0.
          2    1    3    3  502    0 -0.20935278899E+03 -0.31158466419E+00 -0.43581165047E+01  0.20939837756E+03  0.00000000000E+00 0. -1.
         -1    1    3    3    0  502 -0.54331288003E+03  0.11871918970E+03  0.41557228191E+02  0.55768282636E+03  0.00000000000E+00 0.  1.
         11    1    5    5    0    0  0.21193655785E+03 -0.25279805883E+03  0.78613253162E+03  0.85254226896E+03  0.00000000000E+00 0. -1.
        -11    1    5    5    0    0  0.21428382886E+02 -0.11970453361E+02  0.15033078458E+03  0.15232141064E+03  0.00000000000E+00 0.  1.
          2    1    6    6  503    0  0.74797251624E+01 -0.63767335899E+01  0.10104416617E+02  0.14096391558E+02  0.00000000000E+00 0.  1.
         -2    1    6    6    0  503  0.51182100312E+03  0.15273764074E+03  0.93561174992E+02  0.54225752148E+03  0.00000000000E+00 0. -1.
<mgrwt>
<rscale>  0 0.20640590E+04</rscale>
<asrwt>0</asrwt>
<pdfrwt beam="1">  1        2 0.26197129E+00 0.20640590E+04</pdfrwt>
<pdfrwt beam="2">  1       -1 0.96228522E-01 0.20640590E+04</pdfrwt>
<totfact> 0.10698857E+01</totfact>
</mgrwt>
</event>
<event>
12    6  0.1611689E-007  0.2047259E+04  0.7818608E-02  0.8584839E-01
          2   -1    0    0  501    0  0.00000000000E+00  0.00000000000E+00  0.14788716150E+04  0.14788716150E+04  0.00000000000E+00 0. -1.
         -1   -1    0    0    0  501 -0.00000000000E+00 -0.00000000000E+00 -0.70852504952E+03  0.70852504952E+03  0.00000000000E+00 0.  1.
         24    2    1    2    0    0 -0.48112630122E+03  0.36369308085E+03  0.88081692141E+03  0.10706456206E+04  0.81782767615E+02 0.  0.
        254    2    1    2    0    0  0.48112630122E+03 -0.36369308085E+03 -0.11047035591E+03  0.11167510439E+04  0.93336703383E+03 0.  0.
         23    2    4    4    0    0  0.34673800964E+03  0.11903318943E+03 -0.38357766949E+03  0.53875349304E+03  0.93420288041E+02 0.  0.
         23    2    4    4    0    0  0.13438829158E+03 -0.48272627028E+03  0.27310731359E+03  0.57799755090E+03  0.91698959527E+02 0.  0.
          2    1    3    3  502    0 -0.31432984671E+03  0.28332674852E+03  0.62846437287E+03  0.75765742056E+03  0.00000000000E+00 0. -1.
         -1    1    3    3    0  502 -0.16679645451E+03  0.80366332324E+02  0.25235254854E+03  0.31298820004E+03  0.00000000000E+00 0.  1.
         11    1    5    5    0    0  0.10282690494E+03  0.33654196662E+02 -0.56976552697E+02  0.12227961764E+03  0.00000000000E+00 0. -1.
        -11    1    5    5    0    0  0.24391110470E+03  0.85378992773E+02 -0.32660111680E+03  0.41647387540E+03  0.00000000000E+00 0.  1.
          4    1    6    6  503    0 -0.19333698915E+00 -0.15605522670E+03  0.80249256422E+02  0.17547995417E+03  0.00000000000E+00 0. -1.
         -4    1    6    6    0  503  0.13458162857E+03 -0.32667104358E+03  0.19285805716E+03  0.40251759673E+03  0.00000000000E+00 0.  1.
<mgrwt>
<rscale>  0 0.20472592E+04</rscale>
<asrwt>0</asrwt>
<pdfrwt beam="1">  1        2 0.22751871E+00 0.20472592E+04</pdfrwt>
<pdfrwt beam="2">  1       -1 0.10900385E+00 0.20472592E+04</pdfrwt>
<totfact> 0.10729662E+01</totfact>
</mgrwt>
</event>
<event>
12    6  0.1611689E-007  0.1390280E+04  0.7818608E-02  0.8960884E-01
          2   -1    0    0  501    0  0.00000000000E+00  0.00000000000E+00  0.12307695661E+04  0.12307695661E+04  0.00000000000E+00 0. -1.
         -1   -1    0    0    0  501 -0.00000000000E+00 -0.00000000000E+00 -0.39261600773E+03  0.39261600773E+03  0.00000000000E+00 0.  1.
         24    2    1    2    0    0  0.27759482756E+03 -0.19918607869E+03  0.48660140819E+03  0.59990027546E+03  0.79783631229E+02 0.  0.
        254    2    1    2    0    0 -0.27759482756E+03  0.19918607869E+03  0.35155215017E+03  0.10234852984E+04  0.89844268566E+03 0.  0.
         23    2    4    4    0    0  0.16877696152E+03  0.32955934828E+02  0.48409389341E+03  0.52195206274E+03  0.92278392819E+02 0.  0.
         23    2    4    4    0    0 -0.44637178909E+03  0.16623014386E+03 -0.13254174323E+03  0.50153323562E+03  0.84190485870E+02 0.  0.
          2    1    3    3  502    0  0.10553174728E+03 -0.10356518104E+03  0.26527939015E+03  0.30370355817E+03  0.00000000000E+00 0. -1.
         -1    1    3    3    0  502  0.17206308028E+03 -0.95620897653E+02  0.22132201804E+03  0.29619671729E+03  0.00000000000E+00 0.  1.
         11    1    5    5    0    0  0.80742245287E+01  0.31709988057E+02  0.58546135975E+02  0.67069862695E+02  0.00000000000E+00 0. -1.
        -11    1    5    5    0    0  0.16070273699E+03  0.12459467713E+01  0.42554775743E+03  0.45488220004E+03  0.00000000000E+00 0.  1.
          1    1    6    6  503    0 -0.12227897497E+03  0.41460610509E+02  0.19195452640E+01  0.12913099782E+03  0.00000000000E+00 0. -1.
         -1    1    6    6    0  503 -0.32409281411E+03  0.12476953335E+03 -0.13446128850E+03  0.37240223780E+03  0.00000000000E+00 0.  1.
<mgrwt>
<rscale>  0 0.13902803E+04</rscale>
<asrwt>0</asrwt>
<pdfrwt beam="1">  1        2 0.18934916E+00 0.13902803E+04</pdfrwt>
<pdfrwt beam="2">  1       -1 0.60402464E-01 0.13902803E+04</pdfrwt>
<totfact> 0.56040058E+01</totfact>
</mgrwt>
</event>
<event>
12    6  0.1611689E-007  0.2205079E+04  0.7818608E-02  0.8516317E-01
          2   -1    0    0  501    0  0.00000000000E+00  0.00000000000E+00  0.19970230459E+04  0.19970230459E+04  0.00000000000E+00 0. -1.
         -3   -1    0    0    0  501 -0.00000000000E+00 -0.00000000000E+00 -0.60870280977E+03  0.60870280977E+03  0.00000000000E+00 0.  1.
         24    2    1    2    0    0  0.66815517263E+03 -0.53013356085E+02 -0.16009140847E+03  0.69398520128E+03  0.82124599861E+02 0.  0.
        254    2    1    2    0    0 -0.66815517263E+03  0.53013356085E+02  0.15484116446E+04  0.19117406544E+04  0.89885035343E+03 0.  0.
         23    2    4    4    0    0 -0.27089773755E+02  0.31575378147E+03  0.90262160895E+03  0.96026751693E+03  0.83388421116E+02 0.  0.
         23    2    4    4    0    0 -0.64106539887E+03 -0.26274042538E+03  0.64579003569E+03  0.95147313748E+03  0.90878954658E+02 0.  0.
          4    1    3    3  502    0  0.18143441220E+03 -0.50241900370E+02 -0.35773044685E+02  0.19163090880E+03  0.00000000000E+00 0. -1.
         -3    1    3    3    0  502  0.48672076043E+03 -0.27714557147E+01 -0.12431836379E+03  0.50235429248E+03  0.00000000000E+00 0.  1.
         11    1    5    5    0    0 -0.28140951992E+02  0.11579544919E+03  0.23720720644E+03  0.26545763885E+03  0.00000000000E+00 0.  1.
        -11    1    5    5    0    0  0.10511782366E+01  0.19995833227E+03  0.66541440250E+03  0.69480987808E+03  0.00000000000E+00 0. -1.
          3    1    6    6  503    0 -0.54602115111E+03 -0.18677950653E+03  0.53357745377E+03  0.78595838356E+03  0.00000000000E+00 0. -1.
         -3    1    6    6    0  503 -0.95044247766E+02 -0.75960918853E+02  0.11221258192E+03  0.16551475393E+03  0.00000000000E+00 0.  1.
<mgrwt>
<rscale>  0 0.22050792E+04</rscale>
<asrwt>0</asrwt>
<pdfrwt beam="1">  1        2 0.30723431E+00 0.22050792E+04</pdfrwt>
<pdfrwt beam="2">  1       -3 0.93646587E-01 0.22050792E+04</pdfrwt>
<totfact> 0.39799947E+00</totfact>
</mgrwt>
</event>
<event>
12    6  0.1611689E-007  0.2116370E+04  0.7818608E-02  0.8554066E-01
          2   -1    0    0  501    0  0.00000000000E+00  0.00000000000E+00  0.18248088866E+04  0.18248088866E+04  0.00000000000E+00 0. -1.
         -1   -1    0    0    0  501 -0.00000000000E+00 -0.00000000000E+00 -0.61362915289E+03  0.61362915289E+03  0.00000000000E+00 0.  1.
         24    2    1    2    0    0  0.14974312105E+03 -0.84170071059E+03  0.65912498960E+03  0.10825423352E+04  0.81049781707E+02 0.  0.
        254    2    1    2    0    0 -0.14974312105E+03  0.84170071059E+03  0.55205474410E+03  0.13558957043E+04  0.89599421416E+03 0.  0.
         23    2    4    4    0    0 -0.12325751511E+03 -0.12747050000E+03  0.28279463702E+03  0.34624017015E+03  0.92023395389E+02 0.  0.
         23    2    4    4    0    0 -0.26485605939E+02  0.96917121059E+03  0.26926010708E+03  0.10096555341E+04  0.83120211193E+02 0.  0.
          2    1    3    3  502    0 -0.10097113830E+02 -0.56135881459E+02  0.46788514756E+02  0.73772311933E+02  0.00000000000E+00 0. -1.
         -1    1    3    3    0  502  0.15984023488E+03 -0.78556482913E+03  0.61233647484E+03  0.10087700233E+04  0.00000000000E+00 0.  1.
         11    1    5    5    0    0 -0.11227833774E+03 -0.95950731894E+02  0.15475116529E+03  0.21391795445E+03  0.00000000000E+00 0. -1.
        -11    1    5    5    0    0 -0.10979177378E+02 -0.31519768107E+02  0.12804347173E+03  0.13232221571E+03  0.00000000000E+00 0.  1.
          3    1    6    6  503    0 -0.64799738990E+01  0.91558177469E+03  0.24762446390E+03  0.94849873555E+03  0.00000000000E+00 0. -1.
         -3    1    6    6    0  503 -0.20005632040E+02  0.53589435897E+02  0.21635643180E+02  0.61156798550E+02  0.00000000000E+00 0.  1.
<mgrwt>
<rscale>  0 0.21163704E+04</rscale>
<asrwt>0</asrwt>
<pdfrwt beam="1">  1        2 0.28073983E+00 0.21163704E+04</pdfrwt>
<pdfrwt beam="2">  1       -1 0.94404486E-01 0.21163704E+04</pdfrwt>
<totfact> 0.95126368E+00</totfact>
</mgrwt>
</event>
<event>
12    6  0.1611689E-007  0.3908791E+04  0.7818608E-02  0.8023203E-01
         -1   -1    0    0    0  501 -0.00000000000E+00  0.00000000000E+00  0.21601396335E+04  0.21601396335E+04  0.00000000000E+00 0.  1.
          2   -1    0    0  501    0  0.00000000000E+00 -0.00000000000E+00 -0.17682476219E+04  0.17682476219E+04  0.00000000000E+00 0. -1.
         24    2    1    2    0    0 -0.77364220804E+02  0.61112328812E+03 -0.15694246750E+04  0.16877801718E+04  0.77789472783E+02 0.  0.
        254    2    1    2    0    0  0.77364220804E+02 -0.61112328812E+03  0.19613166866E+04  0.22406070836E+04  0.89112292177E+03 0.  0.
         23    2    4    4    0    0  0.12596741434E+03 -0.61289327650E+03  0.20257214896E+04  0.21220978171E+04  0.90805473419E+02 0.  0.
         23    2    4    4    0    0 -0.48603193538E+02  0.17699883797E+01 -0.64404802987E+02  0.11850926646E+03  0.86781704912E+02 0.  0.
          4    1    3    3  502    0 -0.31811176057E+02  0.43544240771E+03 -0.10327031277E+04  0.11212037243E+04  0.00000000000E+00 0. -1.
         -3    1    3    3    0  502 -0.45553044747E+02  0.17568088041E+03 -0.53672154725E+03  0.56657644754E+03  0.00000000000E+00 0.  1.
         11    1    5    5    0    0  0.99874139454E+02 -0.27065571505E+03  0.96865641801E+03  0.10107050094E+04  0.00000000000E+00 0.  1.
        -11    1    5    5    0    0  0.26093274888E+02 -0.34223756145E+03  0.10570650716E+04  0.11113928077E+04  0.00000000000E+00 0. -1.
          4    1    6    6  503    0  0.24459774729E+02  0.44150347685E+01 -0.25828712517E+02  0.35845439070E+02  0.00000000000E+00 0. -1.
         -4    1    6    6    0  503 -0.73062968267E+02 -0.26450463887E+01 -0.38576090470E+02  0.82663827387E+02  0.00000000000E+00 0.  1.
<mgrwt>
<rscale>  0 0.39087910E+04</rscale>
<asrwt>0</asrwt>
<pdfrwt beam="1">  1        2 0.27203809E+00 0.39087910E+04</pdfrwt>
<pdfrwt beam="2">  1       -1 0.33232918E+00 0.39087910E+04</pdfrwt>
<totfact> 0.16515953E-01</totfact>
</mgrwt>
</event>
<event>
12    6  0.1611689E-007  0.1205534E+04  0.7818608E-02  0.9108026E-01
         -1   -1    0    0    0  501 -0.00000000000E+00  0.00000000000E+00  0.98966604447E+03  0.98966604447E+03  0.00000000000E+00 0.  1.
          2   -1    0    0  501    0  0.00000000000E+00 -0.00000000000E+00 -0.36712215623E+03  0.36712215623E+03  0.00000000000E+00 0. -1.
         24    2    1    2    0    0 -0.23836561830E+03 -0.37821042659E+02  0.51755118537E+02  0.25903054517E+03  0.78547003636E+02 0.  0.
        254    2    1    2    0    0  0.23836561830E+03  0.37821042659E+02  0.57078876970E+03  0.10977576555E+04  0.90610344410E+03 0.  0.
         23    2    4    4    0    0  0.54914496732E+03 -0.76607229031E+02  0.21544030616E+03  0.60318311282E+03  0.99932374112E+02 0.  0.
         23    2    4    4    0    0 -0.31077934902E+03  0.11442827169E+03  0.35534846354E+03  0.49457454272E+03  0.93025881480E+02 0.  0.
          2    1    3    3  502    0 -0.10902942490E+03  0.84977025284E+00 -0.12088980328E+02  0.10970087078E+03  0.00000000000E+00 0. -1.
         -1    1    3    3    0  502 -0.12933619340E+03 -0.38670812912E+02  0.63844098865E+02  0.14932967439E+03  0.00000000000E+00 0.  1.
         11    1    5    5    0    0  0.33578678744E+03 -0.16527622671E+02  0.17073977628E+03  0.37706498132E+03  0.00000000000E+00 0.  1.
        -11    1    5    5    0    0  0.21335817988E+03 -0.60079606360E+02  0.44700529883E+02  0.22611813150E+03  0.00000000000E+00 0. -1.
          2    1    6    6  503    0 -0.29341130907E+03  0.99726850570E+02  0.35577309756E+03  0.47181578817E+03  0.00000000000E+00 0. -1.
         -2    1    6    6    0  503 -0.17368039947E+02  0.14701421121E+02 -0.42463402219E+00  0.22758754549E+02  0.00000000000E+00 0.  1.
<mgrwt>
<rscale>  0 0.12055345E+04</rscale>
<asrwt>0</asrwt>
<pdfrwt beam="1">  1        2 0.56480332E-01 0.12055345E+04</pdfrwt>
<pdfrwt beam="2">  1       -1 0.15225631E+00 0.12055345E+04</pdfrwt>
<totfact> 0.33144551E+01</totfact>
</mgrwt>
</event>
<event>
12    6  0.1611689E-007  0.1965277E+04  0.7818608E-02  0.8623029E-01
          2   -1    0    0  501    0  0.00000000000E+00  0.00000000000E+00  0.62335564411E+03  0.62335564411E+03  0.00000000000E+00 0. -1.
         -1   -1    0    0    0  501 -0.00000000000E+00 -0.00000000000E+00 -0.15490010040E+04  0.15490010040E+04  0.00000000000E+00 0.  1.
         24    2    1    2    0    0  0.53918328874E+03 -0.45397390838E+03 -0.16249948677E+02  0.70939760684E+03  0.78549191021E+02 0.  0.
        254    2    1    2    0    0 -0.53918328874E+03  0.45397390838E+03 -0.90939541120E+03  0.14629590412E+04  0.90356970628E+03 0.  0.
         23    2    4    4    0    0  0.10273006024E+02 -0.10013064304E+03 -0.60586561526E+03  0.62093103939E+03  0.91381243161E+02 0.  0.
         23    2    4    4    0    0 -0.54945629477E+03  0.55410455142E+03 -0.30352979594E+03  0.84202800185E+03  0.89144518178E+02 0.  0.
          2    1    3    3  502    0  0.42772818387E+03 -0.38865155002E+03  0.78506925523E+01  0.57798188552E+03  0.00000000000E+00 0. -1.
         -1    1    3    3    0  502  0.11145510487E+03 -0.65322358357E+02 -0.24100641229E+02  0.13141572132E+03  0.00000000000E+00 0.  1.
         11    1    5    5    0    0 -0.33352941179E+02 -0.29344730595E+02 -0.11911688157E+03  0.12713128401E+03  0.00000000000E+00 0. -1.
        -11    1    5    5    0    0  0.43625947203E+02 -0.70785912442E+02 -0.48674873368E+03  0.49379975538E+03  0.00000000000E+00 0.  1.
          2    1    6    6  503    0 -0.75217588764E+02  0.75829760831E+02 -0.76048646738E+02  0.13111534982E+03  0.00000000000E+00 0. -1.
         -2    1    6    6    0  503 -0.47423870600E+03  0.47827479059E+03 -0.22748114920E+03  0.71091265203E+03  0.00000000000E+00 0.  1.
<mgrwt>
<rscale>  0 0.19652771E+04</rscale>
<asrwt>0</asrwt>
<pdfrwt beam="1">  1        2 0.95900868E-01 0.19652771E+04</pdfrwt>
<pdfrwt beam="2">  1       -1 0.23830785E+00 0.19652771E+04</pdfrwt>
<totfact> 0.41891182E+00</totfact>
</mgrwt>
</event>
<event>
12    6  0.1611689E-007  0.1685067E+04  0.7818608E-02  0.8769928E-01
          2   -1    0    0  501    0  0.00000000000E+00  0.00000000000E+00  0.75437983764E+03  0.75437983764E+03  0.00000000000E+00 0. -1.
         -1   -1    0    0    0  501 -0.00000000000E+00 -0.00000000000E+00 -0.94098791654E+03  0.94098791654E+03  0.00000000000E+00 0.  1.
         24    2    1    2    0    0 -0.56624974764E+03 -0.20180407397E+03 -0.10302775497E+03  0.61506812528E+03  0.79563933262E+02 0.  0.
        254    2    1    2    0    0  0.56624974764E+03  0.20180407397E+03 -0.83580323939E+02  0.10802996289E+04  0.89369903025E+03 0.  0.
         23    2    4    4    0    0  0.19859135205E+03  0.33040898935E+02 -0.46625841568E+03  0.51571060349E+03  0.89611886708E+02 0.  0.
         23    2    4    4    0    0  0.36765839559E+03  0.16876317503E+03  0.38267809174E+03  0.56458902541E+03  0.93083514232E+02 0.  0.
          2    1    3    3  502    0 -0.51325987668E+03 -0.20634135057E+03 -0.92983537828E+02  0.56094419711E+03  0.00000000000E+00 0. -1.
         -1    1    3    3    0  502 -0.52989870960E+02  0.45372765990E+01 -0.10044217138E+02  0.54123928176E+02  0.00000000000E+00 0.  1.
         11    1    5    5    0    0  0.80412769303E+02  0.57480181050E+02 -0.23251477482E+03  0.25265253846E+03  0.00000000000E+00 0.  1.
        -11    1    5    5    0    0  0.11817858275E+03 -0.24439282115E+02 -0.23374364086E+03  0.26305806502E+03  0.00000000000E+00 0. -1.
          1    1    6    6  503    0  0.63778323118E+02  0.47606402073E+02  0.34225963929E+02  0.86634061575E+02  0.00000000000E+00 0. -1.
         -1    1    6    6    0  503  0.30388007247E+03  0.12115677296E+03  0.34845212781E+03  0.47795496384E+03  0.00000000000E+00 0.  1.
<mgrwt>
<rscale>  0 0.16850665E+04</rscale>
<asrwt>0</asrwt>
<pdfrwt beam="1">  1        2 0.11605844E+00 0.16850665E+04</pdfrwt>
<pdfrwt beam="2">  1       -1 0.14476737E+00 0.16850665E+04</pdfrwt>
<totfact> 0.15535065E+01</totfact>
</mgrwt>
</event>
<event>
12    6  0.1611689E-007  0.2023684E+04  0.7818608E-02  0.8595627E-01
          2   -1    0    0  501    0  0.00000000000E+00  0.00000000000E+00  0.17202222454E+04  0.17202222454E+04  0.00000000000E+00 0. -1.
         -1   -1    0    0    0  501 -0.00000000000E+00 -0.00000000000E+00 -0.59516993651E+03  0.59516993651E+03  0.00000000000E+00 0.  1.
         24    2    1    2    0    0  0.64760140638E+03  0.33174115930E+03  0.85751104063E+03  0.11274184738E+04  0.79419467649E+02 0.  0.
        254    2    1    2    0    0 -0.64760140638E+03 -0.33174115930E+03  0.26754126821E+03  0.11879737081E+04  0.90014633400E+03 0.  0.
         23    2    4    4    0    0  0.16765989748E+03 -0.25941085142E+03 -0.20544258091E-01  0.32201325859E+03  0.91042337548E+02 0.  0.
         23    2    4    4    0    0 -0.81526130386E+03 -0.72330307881E+02  0.26756181247E+03  0.86596044952E+03  0.91736086804E+02 0.  0.
          4    1    3    3  502    0  0.66189095580E+01 -0.27994700931E+01  0.18498467064E+02  0.19845409551E+02  0.00000000000E+00 0. -1.
         -3    1    3    3    0  502  0.64098249683E+03  0.33454062940E+03  0.83901257356E+03  0.11075730642E+04  0.00000000000E+00 0.  1.
         11    1    5    5    0    0  0.30302522418E+02 -0.12729459922E+03  0.94744163421E+01  0.13119421641E+03  0.00000000000E+00 0.  1.
        -11    1    5    5    0    0  0.13735737506E+03 -0.13211625220E+03 -0.94949606002E+01  0.19081904217E+03  0.00000000000E+00 0. -1.
          2    1    6    6  503    0 -0.32808954497E+03 -0.32138566232E+02  0.15529856093E+03  0.36440812283E+03  0.00000000000E+00 0. -1.
         -2    1    6    6    0  503 -0.48717175889E+03 -0.40191741649E+02  0.11226325154E+03  0.50155232668E+03  0.00000000000E+00 0.  1.
<mgrwt>
<rscale>  0 0.20236843E+04</rscale>
<asrwt>0</asrwt>
<pdfrwt beam="1">  1        2 0.26464957E+00 0.20236843E+04</pdfrwt>
<pdfrwt beam="2">  1       -1 0.91564606E-01 0.20236843E+04</pdfrwt>
<totfact> 0.11733136E+01</totfact>
</mgrwt>
</event>
<event>
12    6  0.1611689E-007  0.3098865E+04  0.7818608E-02  0.8216050E-01
          2   -1    0    0  501    0  0.00000000000E+00  0.00000000000E+00  0.50241646415E+04  0.50241646415E+04  0.00000000000E+00 0. -1.
         -1   -1    0    0    0  501 -0.00000000000E+00 -0.00000000000E+00 -0.47783871462E+03  0.47783871462E+03  0.00000000000E+00 0.  1.
         24    2    1    2    0    0  0.24594213223E+03  0.12627059103E+04  0.10080182710E+04  0.16358419035E+04  0.70456725995E+02 0.  0.
        254    2    1    2    0    0 -0.24594213223E+03 -0.12627059103E+04  0.35383076558E+04  0.38661614526E+04  0.87901624670E+03 0.  0.
         23    2    4    4    0    0  0.81637889765E+02 -0.22936599428E+03  0.17771568686E+04  0.17960931434E+04  0.91599890296E+02 0.  0.
         23    2    4    4    0    0 -0.32758002199E+03 -0.10333399160E+04  0.17611507872E+04  0.20700683092E+04  0.91818605999E+02 0.  0.
          4    1    3    3  502    0  0.40114307508E+02  0.23460487217E+03  0.15333299340E+03  0.28312472619E+03  0.00000000000E+00 0. -1.
         -1    1    3    3    0  502  0.20582782472E+03  0.10281010381E+04  0.85468527761E+03  0.13527171773E+04  0.00000000000E+00 0.  1.
         11    1    5    5    0    0  0.51378724326E+02 -0.71950343687E+02  0.90664777442E+03  0.91094830377E+03  0.00000000000E+00 0. -1.
        -11    1    5    5    0    0  0.30259165439E+02 -0.15741565059E+03  0.87050909418E+03  0.88514483967E+03  0.00000000000E+00 0.  1.
          4    1    6    6  503    0 -0.88923156802E+02 -0.16739600638E+03  0.29516872881E+03  0.35078957971E+03  0.00000000000E+00 0.  1.
         -4    1    6    6    0  503 -0.23865686519E+03 -0.86594390963E+03  0.14659820584E+04  0.17192787294E+04  0.00000000000E+00 0. -1.
<mgrwt>
<rscale>  0 0.30988645E+04</rscale>
<asrwt>0</asrwt>
<pdfrwt beam="1">  1        2 0.77294837E+00 0.30988645E+04</pdfrwt>
<pdfrwt beam="2">  1       -1 0.73513652E-01 0.30988645E+04</pdfrwt>
<totfact> 0.57383179E-02</totfact>
</mgrwt>
</event>
<event>
12    6  0.1611689E-007  0.1490548E+04  0.7818608E-02  0.8890763E-01
         -1   -1    0    0    0  501 -0.00000000000E+00  0.00000000000E+00  0.39646898431E+03  0.39646898431E+03  0.00000000000E+00 0.  1.
          2   -1    0    0  501    0  0.00000000000E+00 -0.00000000000E+00 -0.14009499022E+04  0.14009499022E+04  0.00000000000E+00 0. -1.
         24    2    1    2    0    0  0.27165757513E+03 -0.34127495551E+03 -0.12366599913E+03  0.46081578347E+03  0.82410397271E+02 0.  0.
        254    2    1    2    0    0 -0.27165757513E+03  0.34127495551E+03 -0.88081491879E+03  0.13366031031E+04  0.90576293841E+03 0.  0.
         23    2    4    4    0    0 -0.34181878554E+03 -0.16122081231E+03 -0.68031115936E+03  0.78360928535E+03  0.91586058246E+02 0.  0.
         23    2    4    4    0    0  0.70161210410E+02  0.50249576782E+03 -0.20050375943E+03  0.55299381772E+03  0.90420201164E+02 0.  0.
          4    1    3    3  502    0  0.32963549079E+02 -0.20291818876E+02  0.83282385240E+01  0.39594356140E+02  0.00000000000E+00 0. -1.
         -3    1    3    3    0  502  0.23869402605E+03 -0.32098313663E+03 -0.13199423766E+03  0.42122142733E+03  0.00000000000E+00 0.  1.
         11    1    5    5    0    0 -0.15878600560E+03 -0.39709399332E+02 -0.35682043306E+03  0.39256929760E+03  0.00000000000E+00 0. -1.
        -11    1    5    5    0    0 -0.18303277993E+03 -0.12151141298E+03 -0.32349072631E+03  0.39103998775E+03  0.00000000000E+00 0.  1.
          3    1    6    6  503    0  0.57531151619E+02  0.22651808162E+03 -0.52319124389E+02  0.23949439552E+03  0.00000000000E+00 0. -1.
         -3    1    6    6    0  503  0.12630058791E+02  0.27597768619E+03 -0.14818463504E+03  0.31349942221E+03  0.00000000000E+00 0.  1.
<mgrwt>
<rscale>  0 0.14905478E+04</rscale>
<asrwt>0</asrwt>
<pdfrwt beam="1">  1        2 0.21553075E+00 0.14905478E+04</pdfrwt>
<pdfrwt beam="2">  1       -1 0.60995229E-01 0.14905478E+04</pdfrwt>
<totfact> 0.43412172E+01</totfact>
</mgrwt>
</event>
<event>
12    6  0.1611689E-007  0.1656936E+04  0.7818608E-02  0.8786314E-01
          2   -1    0    0  501    0  0.00000000000E+00  0.00000000000E+00  0.64771570660E+03  0.64771570660E+03  0.00000000000E+00 0. -1.
         -1   -1    0    0    0  501 -0.00000000000E+00 -0.00000000000E+00 -0.10596617882E+04  0.10596617882E+04  0.00000000000E+00 0.  1.
         24    2    1    2    0    0  0.21286319868E+03 -0.27341652714E+03 -0.57859148955E+03  0.67849779347E+03  0.74322306846E+02 0.  0.
        254    2    1    2    0    0 -0.21286319868E+03  0.27341652714E+03  0.16664540791E+03  0.10288797014E+04  0.95433506132E+03 0.  0.
         23    2    4    4    0    0  0.22553284967E+03  0.41987736999E+03  0.25929747576E+03  0.54969873134E+03  0.88155783649E+02 0.  0.
         23    2    4    4    0    0 -0.43839604834E+03 -0.14646084285E+03 -0.92652067859E+02  0.47918097004E+03  0.85954189387E+02 0.  0.
          2    1    3    3  502    0 -0.55192677604E+01 -0.32344925201E+01 -0.16701467972E+02  0.17884722276E+02  0.00000000000E+00 0. -1.
         -1    1    3    3    0  502  0.21838246644E+03 -0.27018203462E+03 -0.56189002158E+03  0.66061307119E+03  0.00000000000E+00 0.  1.
         11    1    5    5    0    0  0.42342680738E+02  0.34627872987E+02  0.99909831306E+01  0.55604064092E+02  0.00000000000E+00 0. -1.
        -11    1    5    5    0    0  0.18319016893E+03  0.38524949701E+03  0.24930649263E+03  0.49409466725E+03  0.00000000000E+00 0.  1.
          2    1    6    6  503    0 -0.35384213810E+03 -0.12842098906E+03 -0.41452380588E+02  0.37870108130E+03  0.00000000000E+00 0. -1.
         -2    1    6    6    0  503 -0.84553910246E+02 -0.18039853792E+02 -0.51199687271E+02  0.10047988873E+03  0.00000000000E+00 0.  1.
<mgrwt>
<rscale>  0 0.16569364E+04</rscale>
<asrwt>0</asrwt>
<pdfrwt beam="1">  1        2 0.99648571E-01 0.16569364E+04</pdfrwt>
<pdfrwt beam="2">  1       -1 0.16302489E+00 0.16569364E+04</pdfrwt>
<totfact> 0.13654959E+01</totfact>
</mgrwt>
</event>
<event>
12    6  0.2259027E-007  0.2002687E+04  0.7818608E-02  0.8605365E-01
         -1   -1    0    0    0  501 -0.00000000000E+00  0.00000000000E+00  0.77700419496E+03  0.77700419496E+03  0.00000000000E+00 0.  1.
          2   -1    0    0  501    0  0.00000000000E+00 -0.00000000000E+00 -0.12904553254E+04  0.12904553254E+04  0.00000000000E+00 0. -1.
         24    2    1    2    0    0 -0.44991212891E+03  0.49170037628E+03 -0.65432771693E+03  0.93703701519E+03  0.75521009845E+02 0.  0.
        254    2    1    2    0    0  0.44991212891E+03 -0.49170037628E+03  0.14087658652E+03  0.11304225051E+04  0.90211897425E+03 0.  0.
         23    2    4    4    0    0  0.18482383926E+03  0.20198654398E+03 -0.15230869345E+03  0.32714035984E+03  0.94151268851E+02 0.  0.
         23    2    4    4    0    0  0.26508828965E+03 -0.69368692026E+03  0.29318527997E+03  0.80328214529E+03  0.88494360853E+02 0.  0.
          4    1    3    3  502    0 -0.43873916855E+03  0.48234281714E+03 -0.65233538990E+03  0.92232755146E+03  0.00000000000E+00 0. -1.
         -3    1    3    3    0  502 -0.11172960363E+02  0.93575591422E+01 -0.19923270259E+01  0.14709463734E+02  0.00000000000E+00 0.  1.
         11    1    5    5    0    0  0.76992215283E+01  0.49301375695E+01 -0.37110362845E+02  0.38219933269E+02  0.00000000000E+00 0. -1.
        -11    1    5    5    0    0  0.17712461773E+03  0.19705640641E+03 -0.11519833060E+03  0.28892042657E+03  0.00000000000E+00 0.  1.
          3    1    6    6  503    0  0.36729078513E+02 -0.77521323155E+02  0.65154759363E+02  0.10772058030E+03  0.00000000000E+00 0. -1.
         -3    1    6    6    0  503  0.22835921114E+03 -0.61616559711E+03  0.22803052060E+03  0.69556156500E+03  0.00000000000E+00 0.  1.
<mgrwt>
<rscale>  0 0.20026874E+04</rscale>
<asrwt>0</asrwt>
<pdfrwt beam="1">  1        2 0.19853159E+00 0.20026874E+04</pdfrwt>
<pdfrwt beam="2">  1       -1 0.11953911E+00 0.20026874E+04</pdfrwt>
<totfact> 0.11081266E+01</totfact>
</mgrwt>
</event>
<event>
12    6  0.1611689E-007  0.1733296E+04  0.7818608E-02  0.8742599E-01
          2   -1    0    0  501    0  0.00000000000E+00  0.00000000000E+00  0.69934130996E+03  0.69934130996E+03  0.00000000000E+00 0. -1.
         -1   -1    0    0    0  501 -0.00000000000E+00 -0.00000000000E+00 -0.10739803259E+04  0.10739803259E+04  0.00000000000E+00 0.  1.
         24    2    1    2    0    0  0.76114092147E+01  0.62854749069E+03 -0.88017848630E+02  0.63958973913E+03  0.78727448360E+02 0.  0.
        254    2    1    2    0    0 -0.76114092147E+01 -0.62854749069E+03 -0.28662116731E+03  0.11337318967E+04  0.89892515735E+03 0.  0.
         23    2    4    4    0    0 -0.30364788410E+02 -0.84252255442E+03 -0.29019723181E+03  0.89551244447E+03  0.83437580136E+02 0.  0.
         23    2    4    4    0    0  0.22753379195E+02  0.21397506373E+03  0.35760644971E+01  0.23821945226E+03  0.10214046719E+03 0.  0.
          2    1    3    3  502    0 -0.32743472514E+01  0.42062776763E+02  0.13472459429E+02  0.44288889148E+02  0.00000000000E+00 0. -1.
         -1    1    3    3    0  502  0.10885756466E+02  0.58648471393E+03 -0.10149030806E+03  0.59530084999E+03  0.00000000000E+00 0.  1.
         11    1    5    5    0    0  0.22658735826E+02 -0.11078026262E+03 -0.28893243564E+02  0.11670691676E+03  0.00000000000E+00 0.  1.
        -11    1    5    5    0    0 -0.53023524236E+02 -0.73174229180E+03 -0.26130398825E+03  0.77880552771E+03  0.00000000000E+00 0. -1.
          3    1    6    6  503    0  0.45377996478E+02  0.18847296385E+03 -0.22691217220E+02  0.19518225330E+03  0.00000000000E+00 0. -1.
         -3    1    6    6    0  503 -0.22624617282E+02  0.25502099880E+02  0.26267281717E+02  0.43037198959E+02  0.00000000000E+00 0.  1.
<mgrwt>
<rscale>  0 0.17332961E+04</rscale>
<asrwt>0</asrwt>
<pdfrwt beam="1">  1        2 0.10759097E+00 0.17332961E+04</pdfrwt>
<pdfrwt beam="2">  1       -1 0.16522774E+00 0.17332961E+04</pdfrwt>
<totfact> 0.11867464E+01</totfact>
</mgrwt>
</event>
<event>
12    6  0.1611689E-007  0.1301590E+04  0.7818608E-02  0.9028305E-01
          2   -1    0    0  501    0  0.00000000000E+00  0.00000000000E+00  0.12065296641E+04  0.12065296641E+04  0.00000000000E+00 0. -1.
         -1   -1    0    0    0  501 -0.00000000000E+00 -0.00000000000E+00 -0.35103485774E+03  0.35103485774E+03  0.00000000000E+00 0.  1.
         24    2    1    2    0    0 -0.64278339792E+02 -0.32268747036E+03  0.17087552501E+03  0.37936722121E+03  0.80387405643E+02 0.  0.
        254    2    1    2    0    0  0.64278339792E+02  0.32268747036E+03  0.68461928135E+03  0.11781973006E+04  0.90065887569E+03 0.  0.
         23    2    4    4    0    0  0.89858786487E+02 -0.30162698494E+03  0.23528245996E+03  0.40310768346E+03  0.89914008636E+02 0.  0.
         23    2    4    4    0    0 -0.25580446695E+02  0.62431445530E+03  0.44933682139E+03  0.77508961718E+03  0.91855523786E+02 0.  0.
          2    1    3    3  502    0  0.68254483506E+01 -0.97076832917E+02  0.21695089184E+02  0.99705441823E+02  0.00000000000E+00 0. -1.
         -1    1    3    3    0  502 -0.71103788143E+02 -0.22561063744E+03  0.14918043583E+03  0.27966177938E+03  0.00000000000E+00 0.  1.
         11    1    5    5    0    0  0.37084756644E+02 -0.22694693742E+03  0.20109067333E+03  0.30547937816E+03  0.00000000000E+00 0.  1.
        -11    1    5    5    0    0  0.52774029844E+02 -0.74680047519E+02  0.34191786626E+02  0.97628305302E+02  0.00000000000E+00 0. -1.
          4    1    6    6  503    0 -0.27468353591E+01  0.58556834464E+03  0.40537412177E+03  0.71219801316E+03  0.00000000000E+00 0.  1.
         -4    1    6    6    0  503 -0.22833611336E+02  0.38746110661E+02  0.43962699624E+02  0.62891604020E+02  0.00000000000E+00 0. -1.
<mgrwt>
<rscale>  0 0.13015897E+04</rscale>
<asrwt>0</asrwt>
<pdfrwt beam="1">  1        2 0.18561995E+00 0.13015897E+04</pdfrwt>
<pdfrwt beam="2">  1       -1 0.54005363E-01 0.13015897E+04</pdfrwt>
<totfact> 0.72592236E+01</totfact>
</mgrwt>
</event>
<event>
12    6  0.1611689E-007  0.2169526E+04  0.7818608E-02  0.8531220E-01
          2   -1    0    0  501    0  0.00000000000E+00  0.00000000000E+00  0.12015630274E+04  0.12015630274E+04  0.00000000000E+00 0. -1.
         -1   -1    0    0    0  501 -0.00000000000E+00 -0.00000000000E+00 -0.97931686995E+03  0.97931686995E+03  0.00000000000E+00 0.  1.
         24    2    1    2    0    0 -0.32164089222E+03 -0.53757032921E+03  0.74283048927E+03  0.97491827306E+03  0.78954296682E+02 0.  0.
        254    2    1    2    0    0  0.32164089222E+03  0.53757032921E+03 -0.52058433178E+03  0.12059616243E+04  0.88932596411E+03 0.  0.
         23    2    4    4    0    0 -0.23135487215E+03  0.14319661690E+03 -0.42742937140E+03  0.51434800975E+03  0.88474061915E+02 0.  0.
         23    2    4    4    0    0  0.55299576437E+03  0.39437371232E+03 -0.93154960377E+02  0.69161361458E+03  0.91195421214E+02 0.  0.
          2    1    3    3  502    0 -0.18494254066E+03 -0.25619410808E+03  0.32903176053E+03  0.45618095510E+03  0.00000000000E+00 0. -1.
         -1    1    3    3    0  502 -0.13669835156E+03 -0.28137622113E+03  0.41379872874E+03  0.51873731796E+03  0.00000000000E+00 0.  1.
         11    1    5    5    0    0 -0.12149029744E+03  0.68503151559E+02 -0.29726679651E+03  0.32835974548E+03  0.00000000000E+00 0. -1.
        -11    1    5    5    0    0 -0.10986457471E+03  0.74693465337E+02 -0.13016257489E+03  0.18598826426E+03  0.00000000000E+00 0.  1.
          3    1    6    6  503    0  0.35163510718E+03  0.30292931149E+03 -0.59927089713E+02  0.46797935044E+03  0.00000000000E+00 0. -1.
         -3    1    6    6    0  503  0.20136065719E+03  0.91444400831E+02 -0.33227870664E+02  0.22363426413E+03  0.00000000000E+00 0.  1.
<mgrwt>
<rscale>  0 0.21695262E+04</rscale>
<asrwt>0</asrwt>
<pdfrwt beam="1">  1        2 0.18485585E+00 0.21695262E+04</pdfrwt>
<pdfrwt beam="2">  1       -1 0.15066414E+00 0.21695262E+04</pdfrwt>
<totfact> 0.68071811E+00</totfact>
</mgrwt>
</event>
<event>
12    6  0.1611689E-007  0.1322534E+04  0.7818608E-02  0.9011884E-01
         -1   -1    0    0    0  501 -0.00000000000E+00  0.00000000000E+00  0.54050941780E+03  0.54050941780E+03  0.00000000000E+00 0.  1.
          2   -1    0    0  501    0  0.00000000000E+00 -0.00000000000E+00 -0.80900369015E+03  0.80900369015E+03  0.00000000000E+00 0. -1.
         24    2    1    2    0    0  0.22166862301E+03  0.13521153426E+03 -0.30411126781E+03  0.40756430079E+03  0.78777272392E+02 0.  0.
        254    2    1    2    0    0 -0.22166862301E+03 -0.13521153426E+03  0.35616995461E+02  0.94194880715E+03  0.90475402597E+03 0.  0.
         23    2    4    4    0    0 -0.10045801299E+03  0.38009731974E+03  0.54224940217E+00  0.40380732256E+03  0.92164390496E+02 0.  0.
         23    2    4    4    0    0 -0.12121061002E+03 -0.51530885400E+03  0.35074746059E+02  0.53814148459E+03  0.90170907940E+02 0.  0.
          4    1    3    3  502    0  0.83300113370E+02  0.93343727188E+02 -0.16371854346E+03  0.20604786280E+03  0.00000000000E+00 0. -1.
         -3    1    3    3    0  502  0.13836850964E+03  0.41867807074E+02 -0.14039272435E+03  0.20151643799E+03  0.00000000000E+00 0.  1.
         11    1    5    5    0    0 -0.10948953259E+02  0.21293296464E+03 -0.13693645604E+02  0.21365355822E+03  0.00000000000E+00 0. -1.
        -11    1    5    5    0    0 -0.89509059731E+02  0.16716435509E+03  0.14235895006E+02  0.19015376434E+03  0.00000000000E+00 0.  1.
          1    1    6    6  503    0 -0.12160994083E+03 -0.39409088946E+03  0.52204360208E+02  0.41571853710E+03  0.00000000000E+00 0. -1.
         -1    1    6    6    0  503  0.39933081117E+00 -0.12121796454E+03 -0.17129614149E+02  0.12242294749E+03  0.00000000000E+00 0.  1.
<mgrwt>
<rscale>  0 0.13225341E+04</rscale>
<asrwt>0</asrwt>
<pdfrwt beam="1">  1        2 0.12446211E+00 0.13225341E+04</pdfrwt>
<pdfrwt beam="2">  1       -1 0.83155295E-01 0.13225341E+04</pdfrwt>
<totfact> 0.54456699E+01</totfact>
</mgrwt>
</event>
<event>
12    6  0.1611689E-007  0.1562239E+04  0.7818608E-02  0.8844088E-01
          2   -1    0    0  501    0  0.00000000000E+00  0.00000000000E+00  0.16485716686E+04  0.16485716686E+04  0.00000000000E+00 0. -1.
         -1   -1    0    0    0  501 -0.00000000000E+00 -0.00000000000E+00 -0.37010670592E+03  0.37010670592E+03  0.00000000000E+00 0.  1.
         24    2    1    2    0    0 -0.60984278381E+02 -0.31417411826E+03 -0.97787900302E+02  0.34501696682E+03  0.83962939165E+02 0.  0.
        254    2    1    2    0    0  0.60984278381E+02  0.31417411826E+03  0.13762528630E+04  0.16736614077E+04  0.89702068314E+03 0.  0.
         23    2    4    4    0    0  0.27682073868E+03 -0.21382068719E+03  0.39881981259E+03  0.53821271884E+03  0.90921285603E+02 0.  0.
         23    2    4    4    0    0 -0.21583646030E+03  0.52799480545E+03  0.97743305042E+03  0.11354486889E+04  0.92219655484E+02 0.  0.
          2    1    3    3  502    0 -0.40289754987E+02 -0.12033094303E+03  0.53595507225E-01  0.12689682060E+03  0.00000000000E+00 0. -1.
         -1    1    3    3    0  502 -0.20694523394E+02 -0.19384317523E+03 -0.97841495810E+02  0.21812014621E+03  0.00000000000E+00 0.  1.
         11    1    5    5    0    0  0.34530908099E+02 -0.46800711793E+02  0.27258125085E+02  0.64231578072E+02  0.00000000000E+00 0.  1.
        -11    1    5    5    0    0  0.24228983058E+03 -0.16701997540E+03  0.37156168750E+03  0.47398114077E+03  0.00000000000E+00 0. -1.
          2    1    6    6  503    0 -0.24393688819E+02  0.13068366627E+02  0.60715454241E+02  0.66724812807E+02  0.00000000000E+00 0. -1.
         -2    1    6    6    0  503 -0.19144277148E+03  0.51492643882E+03  0.91671759618E+03  0.10687238761E+04  0.00000000000E+00 0.  1.
<mgrwt>
<rscale>  0 0.15622387E+04</rscale>
<asrwt>0</asrwt>
<pdfrwt beam="1">  1        2 0.25362640E+00 0.15622387E+04</pdfrwt>
<pdfrwt beam="2">  1       -1 0.56939494E-01 0.15622387E+04</pdfrwt>
<totfact> 0.35840002E+01</totfact>
</mgrwt>
</event>
<event>
12    6  0.1611689E-007  0.1325641E+04  0.7818608E-02  0.9009475E-01
          2   -1    0    0  501    0  0.00000000000E+00  0.00000000000E+00  0.26279888007E+04  0.26279888007E+04  0.00000000000E+00 0. -1.
         -1   -1    0    0    0  501 -0.00000000000E+00 -0.00000000000E+00 -0.16717377661E+03  0.16717377661E+03  0.00000000000E+00 0.  1.
         24    2    1    2    0    0  0.18851044456E+03  0.53028800061E+02  0.13038047082E+04  0.13208514609E+04  0.79960135489E+02 0.  0.
        254    2    1    2    0    0 -0.18851044456E+03 -0.53028800061E+02  0.11570103159E+04  0.14743111164E+04  0.89250891065E+03 0.  0.
         23    2    4    4    0    0  0.24323263106E+03 -0.28140554937E+03  0.70711623573E+03  0.80404270911E+03  0.90111659662E+02 0.  0.
         23    2    4    4    0    0 -0.43174307562E+03  0.22837674931E+03  0.44989408018E+03  0.67026840734E+03  0.91088042685E+02 0.  0.
          2    1    3    3  502    0  0.14531456863E+03  0.38295313234E+01  0.84809780964E+03  0.86046550418E+03  0.00000000000E+00 0. -1.
         -1    1    3    3    0  502  0.43195875930E+02  0.49199268737E+02  0.45570689856E+03  0.46038595671E+03  0.00000000000E+00 0.  1.
         11    1    5    5    0    0  0.15904916630E+03 -0.14977823494E+03  0.49051419587E+03  0.53696772092E+03  0.00000000000E+00 0. -1.
        -11    1    5    5    0    0  0.84183464761E+02 -0.13162731443E+03  0.21660203986E+03  0.26707498819E+03  0.00000000000E+00 0.  1.
          3    1    6    6  503    0 -0.12446118054E+03  0.23537785635E+02  0.97895919987E+02  0.16008817559E+03  0.00000000000E+00 0. -1.
         -3    1    6    6    0  503 -0.30728189508E+03  0.20483896368E+03  0.35199816020E+03  0.51018023174E+03  0.00000000000E+00 0.  1.
<mgrwt>
<rscale>  0 0.13256407E+04</rscale>
<asrwt>0</asrwt>
<pdfrwt beam="1">  1        2 0.40430594E+00 0.13256407E+04</pdfrwt>
<pdfrwt beam="2">  1       -1 0.25719044E-01 0.13256407E+04</pdfrwt>
<totfact> 0.43810339E+01</totfact>
</mgrwt>
</event>
<event>
12    6  0.1611689E-007  0.4423759E+04  0.7818608E-02  0.7924122E-01
         -3   -1    0    0    0  501 -0.00000000000E+00  0.00000000000E+00  0.29616071648E+04  0.29616071648E+04  0.00000000000E+00 0.  1.
          2   -1    0    0  501    0  0.00000000000E+00 -0.00000000000E+00 -0.16519444446E+04  0.16519444446E+04  0.00000000000E+00 0. -1.
         24    2    1    2    0    0 -0.11727742338E+04  0.15780900801E+04  0.14512311330E+04  0.24451125306E+04  0.82071806748E+02 0.  0.
        254    2    1    2    0    0  0.11727742338E+04 -0.15780900801E+04 -0.14156841280E+03  0.21684390789E+04  0.90350357995E+03 0.  0.
         23    2    4    4    0    0  0.50004260810E+03 -0.21742928098E+03  0.23770732013E+03  0.60123412917E+03  0.87519174447E+02 0.  0.
         23    2    4    4    0    0  0.67273162573E+03 -0.13606607991E+04 -0.37927573293E+03  0.15672049497E+04  0.91190034443E+02 0.  0.
          2    1    3    3  502    0 -0.76114402348E+03  0.10413296647E+04  0.90486697335E+03  0.15755925662E+04  0.00000000000E+00 0. -1.
         -1    1    3    3    0  502 -0.41163021035E+03  0.53676041532E+03  0.54636415965E+03  0.86951996439E+03  0.00000000000E+00 0.  1.
         11    1    5    5    0    0  0.32119912340E+03 -0.12783247735E+03  0.19424144529E+03  0.39653468727E+03  0.00000000000E+00 0. -1.
        -11    1    5    5    0    0  0.17884348470E+03 -0.89596803630E+02  0.43465874839E+02  0.20469944190E+03  0.00000000000E+00 0.  1.
          2    1    6    6  503    0  0.47462870294E+03 -0.86923783946E+03 -0.26399774249E+03  0.10249593335E+04  0.00000000000E+00 0. -1.
         -2    1    6    6    0  503  0.19810292279E+03 -0.49142295962E+03 -0.11527799044E+03  0.54224561624E+03  0.00000000000E+00 0.  1.
<mgrwt>
<rscale>  0 0.44237588E+04</rscale>
<asrwt>0</asrwt>
<pdfrwt beam="1">  1        2 0.25414530E+00 0.44237588E+04</pdfrwt>
<pdfrwt beam="2">  1       -3 0.45563187E+00 0.44237588E+04</pdfrwt>
<totfact> 0.26071682E-02</totfact>
</mgrwt>
</event>
<event>
12    6  0.1611689E-007  0.3131442E+04  0.7818608E-02  0.8207162E-01
         -1   -1    0    0    0  501 -0.00000000000E+00  0.00000000000E+00  0.92128055643E+03  0.92128055643E+03  0.00000000000E+00 0.  1.
          2   -1    0    0  501    0  0.00000000000E+00 -0.00000000000E+00 -0.26609506862E+04  0.26609506862E+04  0.00000000000E+00 0. -1.
         24    2    1    2    0    0 -0.14243394041E+04 -0.88412098441E+01 -0.88381485561E+03  0.16781696606E+04  0.79396509342E+02 0.  0.
        254    2    1    2    0    0  0.14243394041E+04  0.88412098441E+01 -0.85585527418E+03  0.19040615820E+04  0.92959203559E+03 0.  0.
         23    2    4    4    0    0  0.15536826127E+03 -0.33688370883E+03 -0.22505425842E+03  0.44252180064E+03  0.86868837502E+02 0.  0.
         23    2    4    4    0    0  0.12689711429E+04  0.34572491867E+03 -0.63080101575E+03  0.14615397814E+04  0.91515737732E+02 0.  0.
          4    1    3    3  502    0 -0.13078991112E+04  0.53750758687E+01 -0.79016576019E+03  0.15280677030E+04  0.00000000000E+00 0. -1.
         -3    1    3    3    0  502 -0.11644029299E+03 -0.14216285713E+02 -0.93649095419E+02  0.15010195763E+03  0.00000000000E+00 0.  1.
         11    1    5    5    0    0  0.57405183288E+01 -0.39526082893E+02 -0.57064965315E+02  0.69653966477E+02  0.00000000000E+00 0. -1.
        -11    1    5    5    0    0  0.14962774294E+03 -0.29735762593E+03 -0.16798929311E+03  0.37286783417E+03  0.00000000000E+00 0.  1.
          1    1    6    6  503    0  0.21049796417E+03  0.78001516498E+02 -0.13938560824E+03  0.26423848561E+03  0.00000000000E+00 0. -1.
         -1    1    6    6    0  503  0.10584731787E+04  0.26772340217E+03 -0.49141540752E+03  0.11973012958E+04  0.00000000000E+00 0.  1.
<mgrwt>
<rscale>  0 0.31314419E+04</rscale>
<asrwt>0</asrwt>
<pdfrwt beam="1">  1        2 0.40937703E+00 0.31314419E+04</pdfrwt>
<pdfrwt beam="2">  1       -1 0.14173547E+00 0.31314419E+04</pdfrwt>
<totfact> 0.10935089E+00</totfact>
</mgrwt>
</event>
<event>
12    6  0.1611689E-007  0.3147145E+04  0.7818608E-02  0.8202917E-01
          2   -1    0    0  501    0  0.00000000000E+00  0.00000000000E+00  0.30207939872E+04  0.30207939872E+04  0.00000000000E+00 0. -1.
         -1   -1    0    0    0  501 -0.00000000000E+00 -0.00000000000E+00 -0.81969547897E+03  0.81969547897E+03  0.00000000000E+00 0.  1.
         24    2    1    2    0    0  0.32041988127E+03 -0.14034521707E+04  0.89909483010E+03  0.16991609651E+04  0.80184637651E+02 0.  0.
        254    2    1    2    0    0 -0.32041988127E+03  0.14034521707E+04  0.13020036781E+04  0.21413285011E+04  0.90428274123E+03 0.  0.
         23    2    4    4    0    0 -0.43179302100E+03  0.59977286659E+03  0.20285353666E+03  0.77162680657E+03  0.89920335927E+02 0.  0.
         23    2    4    4    0    0  0.11137313973E+03  0.80367930407E+03  0.10991501415E+04  0.13697016945E+04  0.98220661904E+02 0.  0.
          4    1    3    3  502    0  0.22248964128E+03 -0.10417059308E+04  0.70209374654E+03  0.12757697737E+04  0.00000000000E+00 0. -1.
         -3    1    3    3    0  502  0.97930239985E+02 -0.36174623989E+03  0.19700108356E+03  0.42339119133E+03  0.00000000000E+00 0.  1.
         11    1    5    5    0    0 -0.32605875052E+02  0.97642511983E+02  0.31755720811E+02  0.10772942513E+03  0.00000000000E+00 0.  1.
        -11    1    5    5    0    0 -0.39918714595E+03  0.50213035460E+03  0.17109781585E+03  0.66389738145E+03  0.00000000000E+00 0. -1.
          2    1    6    6  503    0  0.10809173748E+03  0.76290551787E+03  0.99982512433E+03  0.12622832218E+04  0.00000000000E+00 0. -1.
         -2    1    6    6    0  503  0.32814022495E+01  0.40773786198E+02  0.99325017122E+02  0.10741847266E+03  0.00000000000E+00 0.  1.
<mgrwt>
<rscale>  0 0.31471455E+04</rscale>
<asrwt>0</asrwt>
<pdfrwt beam="1">  1        2 0.46473753E+00 0.31471455E+04</pdfrwt>
<pdfrwt beam="2">  1       -1 0.12610700E+00 0.31471455E+04</pdfrwt>
<totfact> 0.88793641E-01</totfact>
</mgrwt>
</event>
<event>
12    6  0.1611689E-007  0.1492997E+04  0.7818608E-02  0.8889123E-01
         -1   -1    0    0    0  501 -0.00000000000E+00  0.00000000000E+00  0.46863208220E+03  0.46863208220E+03  0.00000000000E+00 0.  1.
          2   -1    0    0  501    0  0.00000000000E+00 -0.00000000000E+00 -0.11891207054E+04  0.11891207054E+04  0.00000000000E+00 0. -1.
         24    2    1    2    0    0  0.10618352685E+03  0.39939133201E+03  0.11182070451E+02  0.42145600852E+03  0.81925276652E+02 0.  0.
        254    2    1    2    0    0 -0.10618352685E+03 -0.39939133201E+03 -0.73167069366E+03  0.12362967791E+04  0.90680722569E+03 0.  0.
         23    2    4    4    0    0  0.22019110459E+03 -0.56750762873E+03 -0.49443461004E+03  0.78974011433E+03  0.93138785506E+02 0.  0.
         23    2    4    4    0    0 -0.32637463143E+03  0.16811629671E+03 -0.23723608362E+03  0.44655666476E+03  0.91369613145E+02 0.  0.
          2    1    3    3  502    0  0.94609669882E+02  0.33449566112E+03 -0.20694661458E+02  0.34823355088E+03  0.00000000000E+00 0. -1.
         -1    1    3    3    0  502  0.11573856967E+02  0.64895670891E+02  0.31876731908E+02  0.73222457639E+02  0.00000000000E+00 0.  1.
         11    1    5    5    0    0  0.93696330032E+02 -0.35162263308E+03 -0.26386805105E+03  0.44949285503E+03  0.00000000000E+00 0. -1.
        -11    1    5    5    0    0  0.12649477455E+03 -0.21588499565E+03 -0.23056655899E+03  0.34024725930E+03  0.00000000000E+00 0.  1.
          2    1    6    6  503    0 -0.28647277715E+03  0.14713590196E+03 -0.23961698243E+03  0.40141241132E+03  0.00000000000E+00 0. -1.
         -2    1    6    6    0  503 -0.39901854281E+02  0.20980394758E+02  0.23808988128E+01  0.45144253437E+02  0.00000000000E+00 0.  1.
<mgrwt>
<rscale>  0 0.14929971E+04</rscale>
<asrwt>0</asrwt>
<pdfrwt beam="1">  1        2 0.18294165E+00 0.14929971E+04</pdfrwt>
<pdfrwt beam="2">  1       -1 0.72097243E-01 0.14929971E+04</pdfrwt>
<totfact> 0.41146593E+01</totfact>
</mgrwt>
</event>
<event>
12    6  0.2133396E-007  0.2132312E+04  0.7818608E-02  0.8547142E-01
         -1   -1    0    0    0  501 -0.00000000000E+00  0.00000000000E+00  0.64805753089E+03  0.64805753089E+03  0.00000000000E+00 0.  1.
          2   -1    0    0  501    0  0.00000000000E+00 -0.00000000000E+00 -0.17539940358E+04  0.17539940358E+04  0.00000000000E+00 0. -1.
         24    2    1    2    0    0  0.25084686315E+03  0.42235952406E+02  0.48847405830E+03  0.55678014590E+03  0.81787534536E+02 0.  0.
        254    2    1    2    0    0 -0.25084686315E+03 -0.42235952406E+02 -0.15944105632E+04  0.18452714208E+04  0.89340558980E+03 0.  0.
         23    2    4    4    0    0  0.16627552048E+03  0.31679236349E+03 -0.67130816816E+03  0.76670995786E+03  0.95836071302E+02 0.  0.
         23    2    4    4    0    0 -0.41712238363E+03 -0.35902831590E+03 -0.92310239501E+03  0.10785614629E+04  0.91018586229E+02 0.  0.
          4    1    3    3  502    0 -0.43430172343E+01  0.84571215624E+01  0.13121468880E+02  0.16203630747E+02  0.00000000000E+00 0. -1.
         -3    1    3    3    0  502  0.25518988038E+03  0.33778830844E+02  0.47535258942E+03  0.54057651515E+03  0.00000000000E+00 0.  1.
         11    1    5    5    0    0 -0.11081661812E+02  0.41038237574E+02 -0.79426537607E+02  0.90086153475E+02  0.00000000000E+00 0. -1.
        -11    1    5    5    0    0  0.17735718229E+03  0.27575412592E+03 -0.59188163055E+03  0.67662380438E+03  0.00000000000E+00 0.  1.
          2    1    6    6  503    0 -0.16273750328E+01 -0.23754125488E+02 -0.34952597515E+02  0.42291735602E+02  0.00000000000E+00 0. -1.
         -2    1    6    6    0  503 -0.41549500860E+03 -0.33527419041E+03 -0.88814979750E+03  0.10362697273E+04  0.00000000000E+00 0.  1.
<mgrwt>
<rscale>  0 0.21323124E+04</rscale>
<asrwt>0</asrwt>
<pdfrwt beam="1">  1        2 0.26984523E+00 0.21323124E+04</pdfrwt>
<pdfrwt beam="2">  1       -1 0.99701161E-01 0.21323124E+04</pdfrwt>
<totfact> 0.91918927E+00</totfact>
</mgrwt>
</event>
<event>
12    6  0.1611689E-007  0.2563148E+04  0.7818608E-02  0.8380828E-01
         -1   -1    0    0    0  501 -0.00000000000E+00  0.00000000000E+00  0.96617920677E+03  0.96617920677E+03  0.00000000000E+00 0.  1.
          2   -1    0    0  501    0  0.00000000000E+00 -0.00000000000E+00 -0.16999244507E+04  0.16999244507E+04  0.00000000000E+00 0. -1.
         24    2    1    2    0    0 -0.10999191253E+04  0.21517671079E+03 -0.32064877216E+03  0.11688610972E+04  0.85425583808E+02 0.  0.
        254    2    1    2    0    0  0.10999191253E+04 -0.21517671079E+03 -0.41309647177E+03  0.14972425603E+04  0.90275328316E+03 0.  0.
         23    2    4    4    0    0  0.13762485738E+03 -0.25600455809E+03  0.18840931399E+03  0.35800888780E+03  0.90517175251E+02 0.  0.
         23    2    4    4    0    0  0.96229426793E+03  0.40827847301E+02 -0.60150578576E+03  0.11392336725E+04  0.91471192162E+02 0.  0.
          2    1    3    3  502    0 -0.43594586144E+03  0.66756767725E+02 -0.87205780635E+02  0.44956657829E+03  0.00000000000E+00 0. -1.
         -1    1    3    3    0  502 -0.66397326387E+03  0.14841994307E+03 -0.23344299152E+03  0.71929451890E+03  0.00000000000E+00 0.  1.
         11    1    5    5    0    0  0.67899024682E+02 -0.47609256608E+02  0.35016887811E+02  0.90017227793E+02  0.00000000000E+00 0.  1.
        -11    1    5    5    0    0  0.69725832696E+02 -0.20839530148E+03  0.15339242618E+03  0.26799166001E+03  0.00000000000E+00 0. -1.
          2    1    6    6  503    0  0.12300624073E+02 -0.40163132219E+01 -0.22032883455E+02  0.25551596385E+02  0.00000000000E+00 0.  1.
         -2    1    6    6    0  503  0.94999364386E+03  0.44844160523E+02 -0.57947290231E+03  0.11136820761E+04  0.00000000000E+00 0. -1.
<mgrwt>
<rscale>  0 0.25631478E+04</rscale>
<asrwt>0</asrwt>
<pdfrwt beam="1">  1        2 0.26152684E+00 0.25631478E+04</pdfrwt>
<pdfrwt beam="2">  1       -1 0.14864296E+00 0.25631478E+04</pdfrwt>
<totfact> 0.35423401E+00</totfact>
</mgrwt>
</event>
<event>
12    6  0.1611689E-007  0.1681311E+04  0.7818608E-02  0.8772096E-01
          2   -1    0    0  501    0  0.00000000000E+00  0.00000000000E+00  0.17776692954E+04  0.17776692954E+04  0.00000000000E+00 0. -1.
         -1   -1    0    0    0  501 -0.00000000000E+00 -0.00000000000E+00 -0.39754403126E+03  0.39754403126E+03  0.00000000000E+00 0.  1.
         24    2    1    2    0    0 -0.39680587165E+03 -0.29189657299E+03  0.59582091585E+02  0.50305296263E+03  0.82787369021E+02 0.  0.
        254    2    1    2    0    0  0.39680587165E+03  0.29189657299E+03  0.13205431726E+04  0.16721603641E+04  0.89979303363E+03 0.  0.
         23    2    4    4    0    0  0.45353520478E+03  0.40690815355E+03  0.39156111536E+03  0.72993957228E+03  0.90682108063E+02 0.  0.
         23    2    4    4    0    0 -0.56729333128E+02 -0.11501158056E+03  0.92898205723E+03  0.94222079178E+03  0.91249530978E+02 0.  0.
          4    1    3    3  502    0 -0.16793362394E+02 -0.38158439457E+02  0.13380385615E+02  0.43784908833E+02  0.00000000000E+00 0. -1.
         -3    1    3    3    0  502 -0.38001250926E+03 -0.25373813353E+03  0.46201705971E+02  0.45926805379E+03  0.00000000000E+00 0.  1.
         11    1    5    5    0    0  0.46572834831E+02  0.28117399119E+02  0.91876129292E+01  0.55172722506E+02  0.00000000000E+00 0. -1.
        -11    1    5    5    0    0  0.40696236995E+03  0.37879075443E+03  0.38237350243E+03  0.67476684978E+03  0.00000000000E+00 0.  1.
          3    1    6    6  503    0 -0.12097403585E+02 -0.56393387855E+02  0.68329087228E+03  0.68572077226E+03  0.00000000000E+00 0. -1.
         -3    1    6    6    0  503 -0.44631929543E+02 -0.58618192708E+02  0.24569118495E+03  0.25650001952E+03  0.00000000000E+00 0.  1.
<mgrwt>
<rscale>  0 0.16813112E+04</rscale>
<asrwt>0</asrwt>
<pdfrwt beam="1">  1        2 0.27348758E+00 0.16813112E+04</pdfrwt>
<pdfrwt beam="2">  1       -1 0.61160621E-01 0.16813112E+04</pdfrwt>
<totfact> 0.26130406E+01</totfact>
</mgrwt>
</event>
<event>
12    6  0.1611689E-007  0.3129105E+04  0.7818608E-02  0.8207795E-01
          2   -1    0    0  501    0  0.00000000000E+00  0.00000000000E+00  0.33544117160E+04  0.33544117160E+04  0.00000000000E+00 0. -1.
         -1   -1    0    0    0  501 -0.00000000000E+00 -0.00000000000E+00 -0.72973288917E+03  0.72973288917E+03  0.00000000000E+00 0.  1.
         24    2    1    2    0    0  0.81709187431E+03 -0.10567471420E+04  0.18923840288E+04  0.23178645952E+04  0.83817158212E+02 0.  0.
        254    2    1    2    0    0 -0.81709187431E+03  0.10567471420E+04  0.73229479809E+03  0.17662800100E+04  0.89394392968E+03 0.  0.
         23    2    4    4    0    0 -0.64921148247E+03  0.10283098846E+04  0.89604278701E+03  0.15131447264E+04  0.88416735048E+02 0.  0.
         23    2    4    4    0    0 -0.16788039184E+03  0.28437257340E+02 -0.16374798892E+03  0.25313528365E+03  0.90948141169E+02 0.  0.
          4    1    3    3  502    0  0.66889037512E+03 -0.84835688972E+03  0.15824641765E+04  0.19160680093E+04  0.00000000000E+00 0. -1.
         -3    1    3    3    0  502  0.14820149919E+03 -0.20839025226E+03  0.30991985230E+03  0.40179658591E+03  0.00000000000E+00 0.  1.
         11    1    5    5    0    0 -0.52309825137E+03  0.75742507739E+03  0.67483375536E+03  0.11413698462E+04  0.00000000000E+00 0. -1.
        -11    1    5    5    0    0 -0.12611323111E+03  0.27088480725E+03  0.22120903165E+03  0.37177488019E+03  0.00000000000E+00 0.  1.
          1    1    6    6  503    0 -0.14275444225E+03  0.15497922117E+02 -0.17164774014E+03  0.22378999769E+03  0.00000000000E+00 0. -1.
         -1    1    6    6    0  503 -0.25125949586E+02  0.12939335223E+02  0.78997512137E+01  0.29345285956E+02  0.00000000000E+00 0.  1.
<mgrwt>
<rscale>  0 0.31291050E+04</rscale>
<asrwt>0</asrwt>
<pdfrwt beam="1">  1        2 0.51606333E+00 0.31291050E+04</pdfrwt>
<pdfrwt beam="2">  1       -1 0.11226660E+00 0.31291050E+04</pdfrwt>
<totfact> 0.71545933E-01</totfact>
</mgrwt>
</event>
<event>
12    6  0.1611689E-007  0.1949361E+04  0.7818608E-02  0.8630669E-01
          2   -1    0    0  501    0  0.00000000000E+00  0.00000000000E+00  0.21323401336E+04  0.21323401336E+04  0.00000000000E+00 0. -1.
         -1   -1    0    0    0  501 -0.00000000000E+00 -0.00000000000E+00 -0.44552080959E+03  0.44552080959E+03  0.00000000000E+00 0.  1.
         24    2    1    2    0    0  0.59588060328E+03 -0.33945456604E+03  0.11562629478E+04  0.13477494215E+04  0.95819637523E+02 0.  0.
        254    2    1    2    0    0 -0.59588060328E+03  0.33945456604E+03  0.53055637616E+03  0.12301115216E+04  0.87257159685E+03 0.  0.
         23    2    4    4    0    0  0.12767880917E+03  0.26196062543E+03  0.37107042776E+03  0.47983786028E+03  0.87326182868E+02 0.  0.
         23    2    4    4    0    0 -0.72355941245E+03  0.77493940603E+02  0.15948594840E+03  0.75027366136E+03  0.89057649987E+02 0.  0.
          4    1    3    3  502    0  0.58249658735E+03 -0.33035342851E+03  0.11492353033E+04  0.13301042983E+04  0.00000000000E+00 0. -1.
         -3    1    3    3    0  502  0.13384015931E+02 -0.91011375275E+01  0.70276445663E+01  0.17645123260E+02  0.00000000000E+00 0.  1.
         11    1    5    5    0    0  0.10033183473E+03  0.15347678191E+03  0.28409389167E+03  0.33812858343E+03  0.00000000000E+00 0.  1.
        -11    1    5    5    0    0  0.27346974438E+02  0.10848384352E+03  0.86976536084E+02  0.14170927685E+03  0.00000000000E+00 0. -1.
          1    1    6    6  503    0 -0.24524478539E+03 -0.14179583835E+02  0.65941061486E+02  0.25435072036E+03  0.00000000000E+00 0. -1.
         -1    1    6    6    0  503 -0.47831462706E+03  0.91673524438E+02  0.93544886917E+02  0.49592294100E+03  0.00000000000E+00 0.  1.
<mgrwt>
<rscale>  0 0.19493608E+04</rscale>
<asrwt>0</asrwt>
<pdfrwt beam="1">  1        2 0.32805232E+00 0.19493608E+04</pdfrwt>
<pdfrwt beam="2">  1       -1 0.68541664E-01 0.19493608E+04</pdfrwt>
<totfact> 0.12896215E+01</totfact>
</mgrwt>
</event>
<event>
12    6  0.1611689E-007  0.1270576E+04  0.7818608E-02  0.9053230E-01
         -1   -1    0    0    0  501 -0.00000000000E+00  0.00000000000E+00  0.61806221016E+03  0.61806221016E+03  0.00000000000E+00 0.  1.
          2   -1    0    0  501    0  0.00000000000E+00 -0.00000000000E+00 -0.65299395782E+03  0.65299395782E+03  0.00000000000E+00 0. -1.
         24    2    1    2    0    0 -0.26032194147E+03  0.13484903954E+03 -0.10856160466E+03  0.32271526572E+03  0.80048385656E+02 0.  0.
        254    2    1    2    0    0  0.26032194147E+03 -0.13484903954E+03  0.73629857002E+02  0.94834090226E+03  0.89887559450E+03 0.  0.
         23    2    4    4    0    0 -0.22977645894E+03 -0.26323371140E+03  0.20789457337E+03  0.41628073874E+03  0.89332479598E+02 0.  0.
         23    2    4    4    0    0  0.49009840041E+03  0.12838467186E+03 -0.13426471637E+03  0.53206016352E+03  0.91552921831E+02 0.  0.
          2    1    3    3  502    0 -0.25201076212E+03  0.10756274633E+03 -0.88881492458E+02  0.28806091079E+03  0.00000000000E+00 0. -1.
         -1    1    3    3    0  502 -0.83111793494E+01  0.27286293210E+02 -0.19680112207E+02  0.34654354933E+02  0.00000000000E+00 0.  1.
         11    1    5    5    0    0 -0.23363975203E+03 -0.26685987218E+03  0.20132242349E+03  0.40783874670E+03  0.00000000000E+00 0.  1.
        -11    1    5    5    0    0  0.38632930911E+01  0.36261607848E+01  0.65721498850E+01  0.84419920432E+01  0.00000000000E+00 0. -1.
          3    1    6    6  503    0  0.60874427060E+02  0.20932575405E+02 -0.50300427987E+02  0.81694563092E+02  0.00000000000E+00 0. -1.
         -3    1    6    6    0  503  0.42922397335E+03  0.10745209645E+03 -0.83964288383E+02  0.45036560043E+03  0.00000000000E+00 0.  1.
<mgrwt>
<rscale>  0 0.12705761E+04</rscale>
<asrwt>0</asrwt>
<pdfrwt beam="1">  1        2 0.10046061E+00 0.12705761E+04</pdfrwt>
<pdfrwt beam="2">  1       -1 0.95086494E-01 0.12705761E+04</pdfrwt>
<totfact> 0.53633193E+01</totfact>
</mgrwt>
</event>
<event>
12    6  0.1611689E-007  0.3786887E+04  0.7818608E-02  0.8048975E-01
         -1   -1    0    0    0  501 -0.00000000000E+00  0.00000000000E+00  0.17408535776E+04  0.17408535776E+04  0.00000000000E+00 0.  1.
          2   -1    0    0  501    0  0.00000000000E+00 -0.00000000000E+00 -0.20594081850E+04  0.20594081850E+04  0.00000000000E+00 0. -1.
         24    2    1    2    0    0 -0.96308428602E+03 -0.24035148589E+03 -0.16412323059E+04  0.19197361730E+04  0.80270252657E+02 0.  0.
        254    2    1    2    0    0  0.96308428602E+03  0.24035148589E+03  0.13226776984E+04  0.18805255896E+04  0.89532118289E+03 0.  0.
         23    2    4    4    0    0  0.33803940864E+03  0.44922349797E+03  0.25837205877E+03  0.62539565678E+03  0.91056102710E+02 0.  0.
         23    2    4    4    0    0  0.62504487738E+03 -0.20887201209E+03  0.10643056396E+04  0.12551299328E+04  0.91082586311E+02 0.  0.
          4    1    3    3  502    0 -0.66275980343E+03 -0.13750563363E+03 -0.11661479989E+04  0.13483543717E+04  0.00000000000E+00 0. -1.
         -3    1    3    3    0  502 -0.30032448259E+03 -0.10284585226E+03 -0.47508430693E+03  0.57138180130E+03  0.00000000000E+00 0.  1.
         11    1    5    5    0    0  0.13057211838E+03  0.11231901594E+03  0.56876469267E+02  0.18138239219E+03  0.00000000000E+00 0.  1.
        -11    1    5    5    0    0  0.20746729026E+03  0.33690448203E+03  0.20149558951E+03  0.44401326459E+03  0.00000000000E+00 0. -1.
          2    1    6    6  503    0  0.30961497207E+03 -0.11712488359E+03  0.61652342545E+03  0.69977196529E+03  0.00000000000E+00 0.  1.
         -2    1    6    6    0  503  0.31542990531E+03 -0.91747128501E+02  0.44778221417E+03  0.55535796751E+03  0.00000000000E+00 0. -1.
<mgrwt>
<rscale>  0 0.37868869E+04</rscale>
<asrwt>0</asrwt>
<pdfrwt beam="1">  1        2 0.31683203E+00 0.37868869E+04</pdfrwt>
<pdfrwt beam="2">  1       -1 0.26782363E+00 0.37868869E+04</pdfrwt>
<totfact> 0.30170587E-01</totfact>
</mgrwt>
</event>
<event>
12    6  0.1611689E-007  0.1420604E+04  0.7818608E-02  0.8939038E-01
         -1   -1    0    0    0  501 -0.00000000000E+00  0.00000000000E+00  0.85183609820E+03  0.85183609820E+03  0.00000000000E+00 0.  1.
          2   -1    0    0  501    0  0.00000000000E+00 -0.00000000000E+00 -0.59228415706E+03  0.59228415706E+03  0.00000000000E+00 0. -1.
         24    2    1    2    0    0  0.26651580984E+03 -0.24706029120E+02 -0.23617783366E+03  0.36509172873E+03  0.76622036722E+02 0.  0.
        254    2    1    2    0    0 -0.26651580984E+03  0.24706029120E+02  0.49572977479E+03  0.10790285265E+04  0.92027902653E+03 0.  0.
         23    2    4    4    0    0 -0.18588412197E+03  0.15982446742E+03 -0.21937012907E+03  0.34142844531E+03  0.91396731641E+02 0.  0.
         23    2    4    4    0    0 -0.80631687863E+02 -0.13511843830E+03  0.71509990386E+03  0.73760008121E+03  0.89036766787E+02 0.  0.
          4    1    3    3  502    0  0.23980887227E+03 -0.38846058568E+02 -0.22938613338E+03  0.33411870596E+03  0.00000000000E+00 0. -1.
         -3    1    3    3    0  502  0.26706937569E+02  0.14140029448E+02 -0.67917002746E+01  0.30973022773E+02  0.00000000000E+00 0.  1.
         11    1    5    5    0    0 -0.18268255257E+03  0.12799451552E+03 -0.21376331466E+03  0.30895026414E+03  0.00000000000E+00 0.  1.
        -11    1    5    5    0    0 -0.32015693999E+01  0.31829951896E+02 -0.56068144046E+01  0.32478181170E+02  0.00000000000E+00 0. -1.
          1    1    6    6  503    0 -0.82958138462E+02 -0.74435375607E+02  0.34517329112E+03  0.36272204066E+03  0.00000000000E+00 0. -1.
         -1    1    6    6    0  503  0.23264505992E+01 -0.60683062691E+02  0.36992661274E+03  0.37487804055E+03  0.00000000000E+00 0.  1.
<mgrwt>
<rscale>  0 0.14206041E+04</rscale>
<asrwt>0</asrwt>
<pdfrwt beam="1">  1        2 0.91120639E-01 0.14206041E+04</pdfrwt>
<pdfrwt beam="2">  1       -1 0.13105171E+00 0.14206041E+04</pdfrwt>
<totfact> 0.27810158E+01</totfact>
</mgrwt>
</event>
<event>
12    6  0.1611689E-007  0.1202956E+04  0.7818608E-02  0.9110273E-01
         -1   -1    0    0    0  501 -0.00000000000E+00  0.00000000000E+00  0.11845560216E+04  0.11845560216E+04  0.00000000000E+00 0.  1.
          2   -1    0    0  501    0  0.00000000000E+00 -0.00000000000E+00 -0.30541033014E+03  0.30541033014E+03  0.00000000000E+00 0. -1.
         24    2    1    2    0    0 -0.15408592105E+02  0.28539585963E+02 -0.11257157496E+03  0.14205897352E+03  0.80352098857E+02 0.  0.
        254    2    1    2    0    0  0.15408592105E+02 -0.28539585963E+02  0.99171726637E+03  0.13479073782E+04  0.91230435220E+03 0.  0.
         23    2    4    4    0    0 -0.13790715823E+03  0.39224586224E+03  0.65125805131E+03  0.77815339432E+03  0.92252127159E+02 0.  0.
         23    2    4    4    0    0  0.15331575033E+03 -0.42078544820E+03  0.34045921507E+03  0.56975398386E+03  0.90227558338E+02 0.  0.
          4    1    3    3  502    0 -0.23062372786E+02  0.22916328715E+02 -0.12342590818E+03  0.12763614680E+03  0.00000000000E+00 0. -1.
         -3    1    3    3    0  502  0.76537806809E+01  0.56232572479E+01  0.10854333222E+02  0.14422826716E+02  0.00000000000E+00 0.  1.
         11    1    5    5    0    0 -0.64576420170E+02  0.16997430396E+03  0.20340763450E+03  0.27282969747E+03  0.00000000000E+00 0. -1.
        -11    1    5    5    0    0 -0.73330738058E+02  0.22227155828E+03  0.44785041681E+03  0.50532369685E+03  0.00000000000E+00 0.  1.
          4    1    6    6  503    0  0.14314797619E+03 -0.29894628223E+03  0.27724031049E+03  0.43211388835E+03  0.00000000000E+00 0. -1.
         -4    1    6    6    0  503  0.10167774144E+02 -0.12183916597E+03  0.63218904574E+02  0.13764009551E+03  0.00000000000E+00 0.  1.
<mgrwt>
<rscale>  0 0.12029558E+04</rscale>
<asrwt>0</asrwt>
<pdfrwt beam="1">  1        2 0.46986205E-01 0.12029558E+04</pdfrwt>
<pdfrwt beam="2">  1       -1 0.18223939E+00 0.12029558E+04</pdfrwt>
<totfact> 0.24398189E+01</totfact>
</mgrwt>
</event>
<event>
12    6  0.1611689E-007  0.2080392E+04  0.7818608E-02  0.8569930E-01
         -1   -1    0    0    0  501 -0.00000000000E+00  0.00000000000E+00  0.28143840918E+03  0.28143840918E+03  0.00000000000E+00 0.  1.
          2   -1    0    0  501    0  0.00000000000E+00 -0.00000000000E+00 -0.38445648318E+04  0.38445648318E+04  0.00000000000E+00 0. -1.
         24    2    1    2    0    0  0.18905168236E+03  0.81110407936E+03 -0.16375595243E+04  0.18389303954E+04  0.80208709642E+02 0.  0.
        254    2    1    2    0    0 -0.18905168236E+03 -0.81110407936E+03 -0.19255668983E+04  0.22870728456E+04  0.91063931127E+03 0.  0.
         23    2    4    4    0    0 -0.14705913706E+02 -0.96069750659E+03 -0.16882537966E+04  0.19446528523E+04  0.91202363854E+02 0.  0.
         23    2    4    4    0    0 -0.17434576866E+03  0.14959342723E+03 -0.23731310171E+03  0.34241999333E+03  0.90328860687E+02 0.  0.
          4    1    3    3  502    0  0.13460850079E+03  0.58922798378E+03 -0.12635203843E+04  0.14006401490E+04  0.00000000000E+00 0. -1.
         -3    1    3    3    0  502  0.54443181568E+02  0.22187609558E+03 -0.37403914000E+03  0.43829024637E+03  0.00000000000E+00 0.  1.
         11    1    5    5    0    0 -0.39689437153E+02 -0.37979093254E+03 -0.72838978367E+03  0.82241600228E+03  0.00000000000E+00 0. -1.
        -11    1    5    5    0    0  0.24983523447E+02 -0.58090657405E+03 -0.95986401289E+03  0.11222368500E+04  0.00000000000E+00 0.  1.
          1    1    6    6  503    0 -0.34062448932E+02  0.72352967808E+02 -0.43600793452E+02  0.91083651483E+02  0.00000000000E+00 0. -1.
         -1    1    6    6    0  503 -0.14028331972E+03  0.77240459424E+02 -0.19371230826E+03  0.25133634185E+03  0.00000000000E+00 0.  1.
<mgrwt>
<rscale>  0 0.20803925E+04</rscale>
<asrwt>0</asrwt>
<pdfrwt beam="1">  1        2 0.59147150E+00 0.20803925E+04</pdfrwt>
<pdfrwt beam="2">  1       -1 0.43298218E-01 0.20803925E+04</pdfrwt>
<totfact> 0.25287314E+00</totfact>
</mgrwt>
</event>
<event>
12    6  0.1611689E-007  0.1853663E+04  0.7818608E-02  0.8678271E-01
          2   -1    0    0  501    0  0.00000000000E+00  0.00000000000E+00  0.31745365465E+03  0.31745365465E+03  0.00000000000E+00 0. -1.
         -1   -1    0    0    0  501 -0.00000000000E+00 -0.00000000000E+00 -0.27059602482E+04  0.27059602482E+04  0.00000000000E+00 0.  1.
         24    2    1    2    0    0 -0.19511931209E+03  0.10545030368E+02  0.19363992364E+03  0.28683543139E+03  0.81212074583E+02 0.  0.
        254    2    1    2    0    0  0.19511931209E+03 -0.10545030368E+02 -0.25821465172E+04  0.27365784714E+04  0.88498494370E+03 0.  0.
         23    2    4    4    0    0  0.53470438660E+02  0.27061807918E+03 -0.22545553052E+04  0.22731525975E+04  0.90054844262E+02 0.  0.
         23    2    4    4    0    0  0.14164887343E+03 -0.28116310954E+03 -0.32759121198E+03  0.46342587389E+03  0.91271249103E+02 0.  0.
          2    1    3    3  502    0 -0.11873399276E+03 -0.24586550251E+02  0.14746208454E+03  0.19091182746E+03  0.00000000000E+00 0. -1.
         -1    1    3    3    0  502 -0.76385319329E+02  0.35131580619E+02  0.46177839103E+02  0.95923603925E+02  0.00000000000E+00 0.  1.
         11    1    5    5    0    0  0.30359384722E+02  0.25974979082E+03 -0.21308908228E+04  0.21468785119E+04  0.00000000000E+00 0.  1.
        -11    1    5    5    0    0  0.23111053938E+02  0.10868288356E+02 -0.12366448236E+03  0.12627408564E+03  0.00000000000E+00 0. -1.
          4    1    6    6  503    0  0.76105437452E+01  0.31255164096E+01 -0.28107004281E+02  0.29286394769E+02  0.00000000000E+00 0. -1.
         -4    1    6    6    0  503  0.13403832968E+03 -0.28428862595E+03 -0.29948420770E+03  0.43413947913E+03  0.00000000000E+00 0.  1.
<mgrwt>
<rscale>  0 0.18536634E+04</rscale>
<asrwt>0</asrwt>
<pdfrwt beam="1">  1        2 0.48839022E-01 0.18536634E+04</pdfrwt>
<pdfrwt beam="2">  1       -1 0.41630159E+00 0.18536634E+04</pdfrwt>
<totfact> 0.61438718E-01</totfact>
</mgrwt>
</event>
<event>
12    6  0.1611689E-007  0.1968745E+04  0.7818608E-02  0.8621374E-01
         -1   -1    0    0    0  501 -0.00000000000E+00  0.00000000000E+00  0.40925138300E+03  0.40925138300E+03  0.00000000000E+00 0.  1.
          2   -1    0    0  501    0  0.00000000000E+00 -0.00000000000E+00 -0.23677111417E+04  0.23677111417E+04  0.00000000000E+00 0. -1.
         24    2    1    2    0    0  0.36662083880E+03 -0.46377908524E+03 -0.14850610124E+04  0.16004313797E+04  0.80451917681E+02 0.  0.
        254    2    1    2    0    0 -0.36662083880E+03  0.46377908524E+03 -0.47339874632E+03  0.11765311451E+04  0.90034286966E+03 0.  0.
         23    2    4    4    0    0 -0.33358549226E+03  0.21234345183E+02 -0.61163512821E+03  0.70283156071E+03  0.90246853730E+02 0.  0.
         23    2    4    4    0    0 -0.33035346541E+02  0.44254474006E+03  0.13823638189E+03  0.47369958436E+03  0.91349974646E+02 0.  0.
          4    1    3    3  502    0  0.25343762379E+03 -0.25728593686E+03 -0.90380524599E+03  0.97328855184E+03  0.00000000000E+00 0. -1.
         -3    1    3    3    0  502  0.11318321501E+03 -0.20649314838E+03 -0.58125576643E+03  0.62714282783E+03  0.00000000000E+00 0.  1.
         11    1    5    5    0    0 -0.24563193551E+03 -0.24049271809E+02 -0.41924125774E+03  0.48649424191E+03  0.00000000000E+00 0.  1.
        -11    1    5    5    0    0 -0.87953556754E+02  0.45283616991E+02 -0.19239387047E+03  0.21633731881E+03  0.00000000000E+00 0. -1.
          3    1    6    6  503    0  0.17758926767E+02  0.27184182657E+03  0.58836854043E+02  0.27870258977E+03  0.00000000000E+00 0.  1.
         -3    1    6    6    0  503 -0.50794273308E+02  0.17070291349E+03  0.79399527847E+02  0.19499699458E+03  0.00000000000E+00 0. -1.
<mgrwt>
<rscale>  0 0.19687448E+04</rscale>
<asrwt>0</asrwt>
<pdfrwt beam="1">  1        2 0.36426325E+00 0.19687448E+04</pdfrwt>
<pdfrwt beam="2">  1       -1 0.62961751E-01 0.19687448E+04</pdfrwt>
<totfact> 0.11257947E+01</totfact>
</mgrwt>
</event>
<event>
12    6  0.1611689E-007  0.1312035E+04  0.7818608E-02  0.9020075E-01
          2   -1    0    0  501    0  0.00000000000E+00  0.00000000000E+00  0.17259832580E+04  0.17259832580E+04  0.00000000000E+00 0. -1.
         -1   -1    0    0    0  501 -0.00000000000E+00 -0.00000000000E+00 -0.24934144723E+03  0.24934144723E+03  0.00000000000E+00 0.  1.
         24    2    1    2    0    0 -0.32422741372E+03  0.12383408038E+02  0.24278523689E+03  0.41287058134E+03  0.78997981495E+02 0.  0.
        254    2    1    2    0    0  0.32422741372E+03 -0.12383408038E+02  0.12338565739E+04  0.15624541239E+04  0.90198895766E+03 0.  0.
         23    2    4    4    0    0 -0.29271474192E+03  0.64458911002E+02  0.28289195730E+03  0.42248423184E+03  0.92888079427E+02 0.  0.
         23    2    4    4    0    0  0.61694215564E+03 -0.76842319041E+02  0.95096461657E+03  0.11399698920E+04  0.93141222808E+02 0.  0.
          2    1    3    3  502    0 -0.48647671156E+02 -0.67582851868E+01  0.75041535410E+02  0.89685575006E+02  0.00000000000E+00 0. -1.
         -1    1    3    3    0  502 -0.27557974256E+03  0.19141693225E+02  0.16774370148E+03  0.32318500633E+03  0.00000000000E+00 0.  1.
         11    1    5    5    0    0 -0.18064404127E+03  0.32466836907E+02  0.10999924818E+03  0.21397710098E+03  0.00000000000E+00 0. -1.
        -11    1    5    5    0    0 -0.11207070065E+03  0.31992074095E+02  0.17289270912E+03  0.20850713085E+03  0.00000000000E+00 0.  1.
          2    1    6    6  503    0  0.41499290596E+03 -0.86394997030E+02  0.69077908638E+03  0.81046835453E+03  0.00000000000E+00 0. -1.
         -2    1    6    6    0  503  0.20194924968E+03  0.95526779890E+01  0.26018553019E+03  0.32950153752E+03  0.00000000000E+00 0.  1.
<mgrwt>
<rscale>  0 0.13120353E+04</rscale>
<asrwt>0</asrwt>
<pdfrwt beam="1">  1        2 0.26553588E+00 0.13120353E+04</pdfrwt>
<pdfrwt beam="2">  1       -1 0.38360224E-01 0.13120353E+04</pdfrwt>
<totfact> 0.69583969E+01</totfact>
</mgrwt>
</event>
<event>
12    6  0.1611689E-007  0.1761394E+04  0.7818608E-02  0.8727103E-01
          2   -1    0    0  501    0  0.00000000000E+00  0.00000000000E+00  0.22651940566E+04  0.22651940566E+04  0.00000000000E+00 0. -1.
         -1   -1    0    0    0  501 -0.00000000000E+00 -0.00000000000E+00 -0.34241094364E+03  0.34241094364E+03  0.00000000000E+00 0.  1.
         24    2    1    2    0    0  0.46524610787E+03 -0.39739211889E+03  0.41120140264E+03  0.74123959533E+03  0.77298816999E+02 0.  0.
        254    2    1    2    0    0 -0.46524610787E+03  0.39739211889E+03  0.15115817103E+04  0.18663654049E+04  0.90778087701E+03 0.  0.
         23    2    4    4    0    0  0.18446887340E+02  0.39900467205E+03  0.12366024357E+04  0.13026486112E+04  0.90348239542E+02 0.  0.
         23    2    4    4    0    0 -0.48369299521E+03 -0.16125531602E+01  0.27497927466E+03  0.56371679372E+03  0.90562178023E+02 0.  0.
          4    1    3    3  502    0  0.23293431415E+02 -0.45040223846E+02  0.44684964446E+02  0.67586624111E+02  0.00000000000E+00 0. -1.
         -3    1    3    3    0  502  0.44195267646E+03 -0.35235189504E+03  0.36651643820E+03  0.67365297122E+03  0.00000000000E+00 0.  1.
         11    1    5    5    0    0 -0.32475730437E+02  0.15471360471E+03  0.41986719159E+03  0.44864176257E+03  0.00000000000E+00 0.  1.
        -11    1    5    5    0    0  0.50922617777E+02  0.24429106734E+03  0.81673524408E+03  0.85400684863E+03  0.00000000000E+00 0. -1.
          2    1    6    6  503    0 -0.47784137280E+03 -0.74180647344E+01  0.25406341498E+03  0.54123527608E+03  0.00000000000E+00 0. -1.
         -2    1    6    6    0  503 -0.58516224151E+01  0.58055115742E+01  0.20915859676E+02  0.22481517642E+02  0.00000000000E+00 0.  1.
<mgrwt>
<rscale>  0 0.17613940E+04</rscale>
<asrwt>0</asrwt>
<pdfrwt beam="1">  1        2 0.34849138E+00 0.17613940E+04</pdfrwt>
<pdfrwt beam="2">  1       -1 0.52678608E-01 0.17613940E+04</pdfrwt>
<totfact> 0.18590570E+01</totfact>
</mgrwt>
</event>
<event>
12    6  0.1611689E-007  0.1272378E+04  0.7818608E-02  0.9051761E-01
         -1   -1    0    0    0  501 -0.00000000000E+00  0.00000000000E+00  0.20362033996E+03  0.20362033996E+03  0.00000000000E+00 0.  1.
          2   -1    0    0  501    0  0.00000000000E+00 -0.00000000000E+00 -0.19877017180E+04  0.19877017180E+04  0.00000000000E+00 0. -1.
         24    2    1    2    0    0 -0.28107960783E+03 -0.43989758231E+02 -0.65753146071E+03  0.72086964689E+03  0.79778325511E+02 0.  0.
        254    2    1    2    0    0  0.28107960783E+03  0.43989758231E+02 -0.11265499174E+04  0.14704524111E+04  0.90120737470E+03 0.  0.
         23    2    4    4    0    0  0.55782503880E+03  0.22043872970E+03 -0.73069096437E+03  0.94916561701E+03  0.85112135630E+02 0.  0.
         23    2    4    4    0    0 -0.27674543097E+03 -0.17644897146E+03 -0.39585895298E+03  0.52128679408E+03  0.85518056159E+02 0.  0.
          4    1    3    3  502    0 -0.17884790276E+02 -0.19700071672E+02 -0.10579745714E+03  0.10909198176E+03  0.00000000000E+00 0. -1.
         -3    1    3    3    0  502 -0.26319481755E+03 -0.24289686559E+02 -0.55173400357E+03  0.61177766513E+03  0.00000000000E+00 0.  1.
         11    1    5    5    0    0  0.38509894849E+03  0.17243377824E+03 -0.45711984049E+03  0.62208774026E+03  0.00000000000E+00 0. -1.
        -11    1    5    5    0    0  0.17272609030E+03  0.48004951452E+02 -0.27357112388E+03  0.32707787675E+03  0.00000000000E+00 0.  1.
          2    1    6    6  503    0 -0.66532269820E+01 -0.30106468946E+02 -0.49609550482E+02  0.58410379221E+02  0.00000000000E+00 0.  1.
         -2    1    6    6    0  503 -0.27009220399E+03 -0.14634250252E+03 -0.34624940250E+03  0.46287641486E+03  0.00000000000E+00 0. -1.
<mgrwt>
<rscale>  0 0.12723781E+04</rscale>
<asrwt>0</asrwt>
<pdfrwt beam="1">  1        2 0.30580028E+00 0.12723781E+04</pdfrwt>
<pdfrwt beam="2">  1       -1 0.31326205E-01 0.12723781E+04</pdfrwt>
<totfact> 0.71852437E+01</totfact>
</mgrwt>
</event>
<event>
12    6  0.1611689E-007  0.1253662E+04  0.7818608E-02  0.9067140E-01
         -1   -1    0    0    0  501 -0.00000000000E+00  0.00000000000E+00  0.28600411328E+03  0.28600411328E+03  0.00000000000E+00 0.  1.
          2   -1    0    0  501    0  0.00000000000E+00 -0.00000000000E+00 -0.13738173112E+04  0.13738173112E+04  0.00000000000E+00 0. -1.
         24    2    1    2    0    0  0.24487948076E+03  0.18265924327E+03 -0.24108131700E+03  0.39731484644E+03  0.80053273178E+02 0.  0.
        254    2    1    2    0    0 -0.24487948076E+03 -0.18265924327E+03 -0.84673188092E+03  0.12625065780E+04  0.88523308918E+03 0.  0.
         23    2    4    4    0    0  0.67311449085E+02 -0.78456352862E+02 -0.90603178813E+03  0.91643238468E+03  0.90931205277E+02 0.  0.
         23    2    4    4    0    0 -0.31219092985E+03 -0.10420289041E+03  0.59299907213E+02  0.34607419337E+03  0.89047455164E+02 0.  0.
          4    1    3    3  502    0  0.63824672342E+02  0.30619794048E+02 -0.98245506505E+02  0.12109227942E+03  0.00000000000E+00 0. -1.
         -3    1    3    3    0  502  0.18105480842E+03  0.15203944922E+03 -0.14283581050E+03  0.27622256702E+03  0.00000000000E+00 0.  1.
         11    1    5    5    0    0  0.20502788951E+02  0.82710260247E+01 -0.49047438751E+02  0.53799865002E+02  0.00000000000E+00 0. -1.
        -11    1    5    5    0    0  0.46808660134E+02 -0.86727378887E+02 -0.85698434938E+03  0.86263251967E+03  0.00000000000E+00 0.  1.
          1    1    6    6  503    0 -0.11223066996E+02 -0.14868129720E+02 -0.14456952530E+02  0.23580118545E+02  0.00000000000E+00 0. -1.
         -1    1    6    6    0  503 -0.30096786285E+03 -0.89334760688E+02  0.73756859742E+02  0.32249407482E+03  0.00000000000E+00 0.  1.
<mgrwt>
<rscale>  0 0.12536625E+04</rscale>
<asrwt>0</asrwt>
<pdfrwt beam="1">  1        2 0.21135651E+00 0.12536625E+04</pdfrwt>
<pdfrwt beam="2">  1       -1 0.44000633E-01 0.12536625E+04</pdfrwt>
<totfact> 0.85697293E+01</totfact>
</mgrwt>
</event>
<event>
12    6  0.1611689E-007  0.2432781E+04  0.7818608E-02  0.8427332E-01
          2   -1    0    0  501    0  0.00000000000E+00  0.00000000000E+00  0.26118079762E+04  0.26118079762E+04  0.00000000000E+00 0. -1.
         -1   -1    0    0    0  501 -0.00000000000E+00 -0.00000000000E+00 -0.56650634913E+03  0.56650634913E+03  0.00000000000E+00 0.  1.
         24    2    1    2    0    0  0.89338922296E+03 -0.39007614674E+03  0.39725633988E+03  0.10564110045E+04  0.88813889034E+02 0.  0.
        254    2    1    2    0    0 -0.89338922296E+03  0.39007614674E+03  0.16480452872E+04  0.21219033208E+04  0.91439418760E+03 0.  0.
         23    2    4    4    0    0 -0.12304136557E+03  0.90840021696E+02 -0.88138276712E+02  0.19656557732E+03  0.86478801930E+02 0.  0.
         23    2    4    4    0    0 -0.77034785740E+03  0.29923612504E+03  0.17361835639E+04  0.19253377435E+04  0.98050900452E+02 0.  0.
          2    1    3    3  502    0  0.57457248048E+03 -0.22503632442E+03  0.21232485813E+03  0.65257699010E+03  0.00000000000E+00 0. -1.
         -1    1    3    3    0  502  0.31881674249E+03 -0.16503982232E+03  0.18493148175E+03  0.40383401440E+03  0.00000000000E+00 0.  1.
         11    1    5    5    0    0  0.32134437838E+01 -0.47434031371E+01 -0.25723332994E+02  0.26353670609E+02  0.00000000000E+00 0. -1.
        -11    1    5    5    0    0 -0.12625480935E+03  0.95583424833E+02 -0.62414943718E+02  0.17021190671E+03  0.00000000000E+00 0.  1.
          2    1    6    6  503    0 -0.71151487238E+03  0.29134131825E+03  0.15552698001E+04  0.17349343874E+04  0.00000000000E+00 0.  1.
         -2    1    6    6    0  503 -0.58832985019E+02  0.78948067922E+01  0.18091376374E+03  0.19040335610E+03  0.00000000000E+00 0. -1.
<mgrwt>
<rscale>  0 0.24327810E+04</rscale>
<asrwt>0</asrwt>
<pdfrwt beam="1">  1        2 0.40181660E+00 0.24327810E+04</pdfrwt>
<pdfrwt beam="2">  1       -1 0.87154825E-01 0.24327810E+04</pdfrwt>
<totfact> 0.39602522E+00</totfact>
</mgrwt>
</event>
<event>
12    6  0.1611689E-007  0.1860043E+04  0.7818608E-02  0.8675005E-01
          2   -1    0    0  501    0  0.00000000000E+00  0.00000000000E+00  0.87005317463E+03  0.87005317463E+03  0.00000000000E+00 0. -1.
         -1   -1    0    0    0  501 -0.00000000000E+00 -0.00000000000E+00 -0.99412364720E+03  0.99412364720E+03  0.00000000000E+00 0.  1.
         24    2    1    2    0    0  0.88941735721E+02  0.72619058467E+02  0.65043334391E+03  0.66524875050E+03  0.79424210229E+02 0.  0.
        254    2    1    2    0    0 -0.88941735721E+02 -0.72619058467E+02 -0.77450381648E+03  0.11989280713E+04  0.90795825811E+03 0.  0.
         23    2    4    4    0    0 -0.38791147468E+02 -0.45551745109E+03 -0.61422456437E+03  0.77091171853E+03  0.89622323791E+02 0.  0.
         23    2    4    4    0    0 -0.50150588253E+02  0.38289839262E+03 -0.16027925211E+03  0.42801635280E+03  0.91554896267E+02 0.  0.
          4    1    3    3  502    0  0.47535368530E+02  0.74975628682E+02  0.54070549564E+03  0.54794469536E+03  0.00000000000E+00 0. -1.
         -3    1    3    3    0  502  0.41406367191E+02 -0.23565702148E+01  0.10972784827E+03  0.11730405514E+03  0.00000000000E+00 0.  1.
         11    1    5    5    0    0 -0.53380394037E+02 -0.43123850603E+03 -0.59459151750E+03  0.73644768194E+03  0.00000000000E+00 0. -1.
        -11    1    5    5    0    0  0.14589246569E+02 -0.24278945059E+02 -0.19633046866E+02  0.34464036587E+02  0.00000000000E+00 0.  1.
          4    1    6    6  503    0 -0.75654665346E+02  0.32312613011E+03 -0.13572648264E+03  0.35854679254E+03  0.00000000000E+00 0. -1.
         -4    1    6    6    0  503  0.25504077093E+02  0.59772262510E+02 -0.24552769470E+02  0.69469560259E+02  0.00000000000E+00 0.  1.
<mgrwt>
<rscale>  0 0.18600435E+04</rscale>
<asrwt>0</asrwt>
<pdfrwt beam="1">  1        2 0.13385433E+00 0.18600435E+04</pdfrwt>
<pdfrwt beam="2">  1       -1 0.15294210E+00 0.18600435E+04</pdfrwt>
<totfact> 0.10909289E+01</totfact>
</mgrwt>
</event>
<event>
12    6  0.1611689E-007  0.1278960E+04  0.7818608E-02  0.9046419E-01
         -1   -1    0    0    0  501 -0.00000000000E+00  0.00000000000E+00  0.46008243639E+03  0.46008243639E+03  0.00000000000E+00 0.  1.
          2   -1    0    0  501    0  0.00000000000E+00 -0.00000000000E+00 -0.88882860454E+03  0.88882860454E+03  0.00000000000E+00 0. -1.
         24    2    1    2    0    0  0.98802675732E+02  0.20187764413E+02  0.22446153657E+03  0.25883009900E+03  0.80252876497E+02 0.  0.
        254    2    1    2    0    0 -0.98802675732E+02 -0.20187764413E+02 -0.65320770472E+03  0.10900809419E+04  0.86684868339E+03 0.  0.
         23    2    4    4    0    0 -0.30227853969E+03  0.16129462371E+03 -0.71372514965E+03  0.79695880459E+03  0.91386409157E+02 0.  0.
         23    2    4    4    0    0  0.20347586396E+03 -0.18148238812E+03  0.60517444931E+02  0.29312213734E+03  0.88994055108E+02 0.  0.
          2    1    3    3  502    0  0.13134120318E+02  0.36483164643E+02  0.45708208014E+02  0.59939692181E+02  0.00000000000E+00 0. -1.
         -1    1    3    3    0  502  0.85668555414E+02 -0.16295400230E+02  0.17875332856E+03  0.19889040682E+03  0.00000000000E+00 0.  1.
         11    1    5    5    0    0 -0.30631850898E+03  0.16425804113E+03 -0.68873206338E+03  0.77146846219E+03  0.00000000000E+00 0. -1.
        -11    1    5    5    0    0  0.40399692897E+01 -0.29634174202E+01 -0.24993086273E+02  0.25490342409E+02  0.00000000000E+00 0.  1.
          3    1    6    6  503    0  0.12098402831E+03 -0.58628988712E+02  0.33466847937E+01  0.13448306110E+03  0.00000000000E+00 0. -1.
         -3    1    6    6    0  503  0.82491835648E+02 -0.12285339941E+03  0.57170760137E+02  0.15863907624E+03  0.00000000000E+00 0.  1.
<mgrwt>
<rscale>  0 0.12789596E+04</rscale>
<asrwt>0</asrwt>
<pdfrwt beam="1">  1        2 0.13674286E+00 0.12789596E+04</pdfrwt>
<pdfrwt beam="2">  1       -1 0.70781914E-01 0.12789596E+04</pdfrwt>
<totfact> 0.67424378E+01</totfact>
</mgrwt>
</event>
<event>
12    6  0.1611689E-007  0.2006983E+04  0.7818608E-02  0.8603363E-01
         -1   -1    0    0    0  501 -0.00000000000E+00  0.00000000000E+00  0.64793322920E+03  0.64793322920E+03  0.00000000000E+00 0.  1.
          2   -1    0    0  501    0  0.00000000000E+00 -0.00000000000E+00 -0.15541656507E+04  0.15541656507E+04  0.00000000000E+00 0. -1.
         24    2    1    2    0    0 -0.30182004065E+03 -0.20387791787E+03  0.41540148855E+03  0.55831278874E+03  0.80580587283E+02 0.  0.
        254    2    1    2    0    0  0.30182004065E+03  0.20387791787E+03 -0.13216339101E+04  0.16437860912E+04  0.90700329603E+03 0.  0.
         23    2    4    4    0    0 -0.14664290703E+03  0.40464220121E+03 -0.39653950812E+03  0.59246596362E+03  0.92373607493E+02 0.  0.
         23    2    4    4    0    0  0.44846294767E+03 -0.20076428335E+03 -0.92509440198E+03  0.10513201276E+04  0.89716471219E+02 0.  0.
          2    1    3    3  502    0 -0.15734865081E+03 -0.95887912894E+02  0.15091659092E+03  0.23817830960E+03  0.00000000000E+00 0. -1.
         -1    1    3    3    0  502 -0.14447138984E+03 -0.10799000497E+03  0.26448489763E+03  0.32013447913E+03  0.00000000000E+00 0.  1.
         11    1    5    5    0    0 -0.13410855915E+03  0.25389860362E+03 -0.23382558167E+03  0.37030259140E+03  0.00000000000E+00 0. -1.
        -11    1    5    5    0    0 -0.12534347873E+02  0.15074359760E+03 -0.16271392644E+03  0.22216337221E+03  0.00000000000E+00 0.  1.
          1    1    6    6  503    0  0.15283671489E+03 -0.40319830994E+02 -0.22945939873E+03  0.27863303081E+03  0.00000000000E+00 0. -1.
         -1    1    6    6    0  503  0.29562623278E+03 -0.16044445235E+03 -0.69563500325E+03  0.77268709679E+03  0.00000000000E+00 0.  1.
<mgrwt>
<rscale>  0 0.20069834E+04</rscale>
<asrwt>0</asrwt>
<pdfrwt beam="1">  1        2 0.23910240E+00 0.20069834E+04</pdfrwt>
<pdfrwt beam="2">  1       -1 0.99682037E-01 0.20069834E+04</pdfrwt>
<totfact> 0.12016989E+01</totfact>
</mgrwt>
</event>
<event>
12    6  0.1611689E-007  0.1115483E+04  0.7818608E-02  0.9190231E-01
          2   -1    0    0  501    0  0.00000000000E+00  0.00000000000E+00  0.28134834911E+03  0.28134834911E+03  0.00000000000E+00 0. -1.
         -1   -1    0    0    0  501 -0.00000000000E+00 -0.00000000000E+00 -0.11056602794E+04  0.11056602794E+04  0.00000000000E+00 0.  1.
         24    2    1    2    0    0 -0.11203421431E+03  0.76419220573E+02  0.97982307393E+01  0.15784489516E+03  0.80171336231E+02 0.  0.
        254    2    1    2    0    0  0.11203421431E+03 -0.76419220573E+02 -0.83411016100E+03  0.12291637333E+04  0.89258734036E+03 0.  0.
         23    2    4    4    0    0 -0.17151838214E+03 -0.70741218124E+00 -0.89456889687E+03  0.91543970933E+03  0.91418238475E+02 0.  0.
         23    2    4    4    0    0  0.28355259645E+03 -0.75711808392E+02  0.60458735863E+02  0.31372402400E+03  0.92914754534E+02 0.  0.
          2    1    3    3  502    0 -0.35331625645E+02  0.47720821037E+02  0.38840749405E+02  0.70952127139E+02  0.00000000000E+00 0. -1.
         -1    1    3    3    0  502 -0.76702588661E+02  0.28698399536E+02 -0.29042518665E+02  0.86892768017E+02  0.00000000000E+00 0.  1.
         11    1    5    5    0    0  0.37399320382E+01  0.11246894871E+02 -0.14836622364E+03  0.14883889294E+03  0.00000000000E+00 0. -1.
        -11    1    5    5    0    0 -0.17525831418E+03 -0.11954307052E+02 -0.74620267323E+03  0.76660081638E+03  0.00000000000E+00 0.  1.
          4    1    6    6  503    0  0.17998600097E+02  0.13954096933E+02  0.20432918496E+02  0.30596904826E+02  0.00000000000E+00 0. -1.
         -4    1    6    6    0  503  0.26555399635E+03 -0.89665905325E+02  0.40025817366E+02  0.28312711917E+03  0.00000000000E+00 0.  1.
<mgrwt>
<rscale>  0 0.11154832E+04</rscale>
<asrwt>0</asrwt>
<pdfrwt beam="1">  1        2 0.43284362E-01 0.11154832E+04</pdfrwt>
<pdfrwt beam="2">  1       -1 0.17010158E+00 0.11154832E+04</pdfrwt>
<totfact> 0.32946419E+01</totfact>
</mgrwt>
</event>
<event>
12    6  0.1734161E-007  0.1716262E+04  0.7818608E-02  0.8752143E-01
         -1   -1    0    0    0  501 -0.00000000000E+00  0.00000000000E+00  0.44930037958E+03  0.44930037958E+03  0.00000000000E+00 0.  1.
          2   -1    0    0  501    0  0.00000000000E+00 -0.00000000000E+00 -0.16389681600E+04  0.16389681600E+04  0.00000000000E+00 0. -1.
         24    2    1    2    0    0  0.11314016473E+03 -0.55154579157E+03 -0.74545055507E+03  0.93765728213E+03  0.80629967163E+02 0.  0.
        254    2    1    2    0    0 -0.11314016473E+03  0.55154579157E+03 -0.44421722535E+03  0.11506112574E+04  0.89976322740E+03 0.  0.
         23    2    4    4    0    0 -0.30011496725E+03  0.24687820727E+03 -0.62374230783E+03  0.74029656058E+03  0.89256306441E+02 0.  0.
         23    2    4    4    0    0  0.18697480252E+03  0.30466758430E+03  0.17952508248E+03  0.41031469686E+03  0.91361816532E+02 0.  0.
          4    1    3    3  502    0  0.91776266164E+02 -0.41246303939E+03 -0.49907825879E+03  0.65393252732E+03  0.00000000000E+00 0. -1.
         -3    1    3    3    0  502  0.21363898570E+02 -0.13908275218E+03 -0.24637229629E+03  0.28372475481E+03  0.00000000000E+00 0.  1.
         11    1    5    5    0    0 -0.28445406995E+03  0.24778118921E+03 -0.56402130437E+03  0.67854967940E+03  0.00000000000E+00 0. -1.
        -11    1    5    5    0    0 -0.15660897304E+02 -0.90298194372E+00 -0.59721003464E+02  0.61746881180E+02  0.00000000000E+00 0.  1.
          4    1    6    6  503    0  0.16257617774E+03  0.23941626828E+03  0.17969922003E+03  0.34065080767E+03  0.00000000000E+00 0. -1.
         -4    1    6    6    0  503  0.24398624772E+02  0.65251316018E+02 -0.17413754932E+00  0.69663889187E+02  0.00000000000E+00 0.  1.
<mgrwt>
<rscale>  0 0.17162622E+04</rscale>
<asrwt>0</asrwt>
<pdfrwt beam="1">  1        2 0.25214895E+00 0.17162622E+04</pdfrwt>
<pdfrwt beam="2">  1       -1 0.69123135E-01 0.17162622E+04</pdfrwt>
<totfact> 0.24312611E+01</totfact>
</mgrwt>
</event>
<event>
12    6  0.1611689E-007  0.1902093E+04  0.7818608E-02  0.8653815E-01
          2   -1    0    0  501    0  0.00000000000E+00  0.00000000000E+00  0.16109436335E+04  0.16109436335E+04  0.00000000000E+00 0. -1.
         -1   -1    0    0    0  501 -0.00000000000E+00 -0.00000000000E+00 -0.56146558231E+03  0.56146558231E+03  0.00000000000E+00 0.  1.
         24    2    1    2    0    0 -0.54118988132E+01 -0.57978679524E+03 -0.10339957052E+03  0.59461484638E+03  0.81812760411E+02 0.  0.
        254    2    1    2    0    0  0.54118988132E+01  0.57978679524E+03  0.11528776217E+04  0.15777943694E+04  0.90781399250E+03 0.  0.
         23    2    4    4    0    0  0.19856501971E+03  0.31192576820E+03  0.63701789660E+01  0.38131276748E+03  0.92914452799E+02 0.  0.
         23    2    4    4    0    0 -0.19315312090E+03  0.26786102704E+03  0.11465074427E+04  0.11964816020E+04  0.89617239567E+02 0.  0.
          2    1    3    3  502    0  0.14358364136E+02 -0.50114227278E+03 -0.67277246805E+02  0.50584184101E+03  0.00000000000E+00 0. -1.
         -1    1    3    3    0  502 -0.19770262949E+02 -0.78644522467E+02 -0.36122323715E+02  0.88773005366E+02  0.00000000000E+00 0.  1.
         11    1    5    5    0    0  0.13224881475E+03  0.25104518924E+03 -0.27610848494E+02  0.28508910010E+03  0.00000000000E+00 0. -1.
        -11    1    5    5    0    0  0.66316204968E+02  0.60880578963E+02  0.33981027460E+02  0.96223667377E+02  0.00000000000E+00 0.  1.
          1    1    6    6  503    0 -0.41662151981E+02  0.63990993866E+02  0.41924551466E+03  0.42614244539E+03  0.00000000000E+00 0. -1.
         -1    1    6    6    0  503 -0.15149096892E+03  0.20387003317E+03  0.72726192809E+03  0.77033915657E+03  0.00000000000E+00 0.  1.
<mgrwt>
<rscale>  0 0.19020930E+04</rscale>
<asrwt>0</asrwt>
<pdfrwt beam="1">  1        2 0.24783748E+00 0.19020930E+04</pdfrwt>
<pdfrwt beam="2">  1       -1 0.86379321E-01 0.19020930E+04</pdfrwt>
<totfact> 0.15505509E+01</totfact>
</mgrwt>
</event>
<event>
12    6  0.1611689E-007  0.1918320E+04  0.7818608E-02  0.8645791E-01
          2   -1    0    0  501    0  0.00000000000E+00  0.00000000000E+00  0.31745422700E+04  0.31745422700E+04  0.00000000000E+00 0. -1.
         -1   -1    0    0    0  501 -0.00000000000E+00 -0.00000000000E+00 -0.28980185187E+03  0.28980185187E+03  0.00000000000E+00 0.  1.
         24    2    1    2    0    0  0.24201169759E+03  0.63107349561E+03  0.62507522171E+03  0.92375174403E+03  0.75992323148E+02 0.  0.
        254    2    1    2    0    0 -0.24201169759E+03 -0.63107349561E+03  0.22596651964E+04  0.25405923778E+04  0.94429837010E+03 0.  0.
         23    2    4    4    0    0  0.19608586034E+03 -0.67056703251E+03  0.15162386168E+04  0.16721030623E+04  0.94017541741E+02 0.  0.
         23    2    4    4    0    0 -0.43809755793E+03  0.39493536901E+02  0.74342657962E+03  0.86848931554E+03  0.90007789624E+02 0.  0.
          2    1    3    3  502    0  0.19119004657E+03  0.52595291349E+03  0.55172259971E+03  0.78586126521E+03  0.00000000000E+00 0. -1.
         -1    1    3    3    0  502  0.50821651024E+02  0.10512058212E+03  0.73352621997E+02  0.13789047883E+03  0.00000000000E+00 0.  1.
         11    1    5    5    0    0  0.11119142888E+03 -0.24507485448E+03  0.64181565241E+03  0.69595441649E+03  0.00000000000E+00 0. -1.
        -11    1    5    5    0    0  0.84894431456E+02 -0.42549217803E+03  0.87442296440E+03  0.97614864582E+03  0.00000000000E+00 0.  1.
          4    1    6    6  503    0 -0.31351665783E+03  0.57018468988E+01  0.45600958172E+03  0.55341661017E+03  0.00000000000E+00 0. -1.
         -4    1    6    6    0  503 -0.12458090011E+03  0.33791690002E+02  0.28741699791E+03  0.31507270537E+03  0.00000000000E+00 0.  1.
<mgrwt>
<rscale>  0 0.19183203E+04</rscale>
<asrwt>0</asrwt>
<pdfrwt beam="1">  1        2 0.48839109E+00 0.19183203E+04</pdfrwt>
<pdfrwt beam="2">  1       -1 0.44584902E-01 0.19183203E+04</pdfrwt>
<totfact> 0.71754566E+00</totfact>
</mgrwt>
</event>
<event>
12    6  0.1611689E-007  0.3112052E+04  0.7818608E-02  0.8212438E-01
         -1   -1    0    0    0  501 -0.00000000000E+00  0.00000000000E+00  0.13576348314E+04  0.13576348314E+04  0.00000000000E+00 0.  1.
          2   -1    0    0  501    0  0.00000000000E+00 -0.00000000000E+00 -0.17834077031E+04  0.17834077031E+04  0.00000000000E+00 0. -1.
         24    2    1    2    0    0 -0.66887631353E+03  0.12567340025E+04 -0.17926931136E+03  0.14372283886E+04  0.81927280091E+02 0.  0.
        254    2    1    2    0    0  0.66887631353E+03 -0.12567340025E+04 -0.24650356035E+03  0.17038141460E+04  0.90301869472E+03 0.  0.
         23    2    4    4    0    0  0.34672955298E+03 -0.69961218503E+03  0.31333836601E+03  0.84639423424E+03  0.92323755217E+02 0.  0.
         23    2    4    4    0    0  0.32214676055E+03 -0.55712181743E+03 -0.55984192636E+03  0.85741991175E+03  0.87078514852E+02 0.  0.
          2    1    3    3  502    0 -0.52457226559E+03  0.95099307479E+03 -0.16768068814E+03  0.10989452686E+04  0.00000000000E+00 0. -1.
         -1    1    3    3    0  502 -0.14430404795E+03  0.30574092768E+03 -0.11588623226E+02  0.33828312003E+03  0.00000000000E+00 0.  1.
         11    1    5    5    0    0  0.62491079645E+02 -0.10912055812E+03  0.16025283386E+02  0.12676450981E+03  0.00000000000E+00 0. -1.
        -11    1    5    5    0    0  0.28423847333E+03 -0.59049162691E+03  0.29731308263E+03  0.71962972443E+03  0.00000000000E+00 0.  1.
          2    1    6    6  503    0 -0.33121528742E+00 -0.30410721340E+01  0.30220886231E+01  0.43000980148E+01  0.00000000000E+00 0. -1.
         -2    1    6    6    0  503  0.32247797584E+03 -0.55408074530E+03 -0.56286401498E+03  0.85311981373E+03  0.00000000000E+00 0.  1.
<mgrwt>
<rscale>  0 0.31120517E+04</rscale>
<asrwt>0</asrwt>
<pdfrwt beam="1">  1        2 0.27437042E+00 0.31120517E+04</pdfrwt>
<pdfrwt beam="2">  1       -1 0.20886690E+00 0.31120517E+04</pdfrwt>
<totfact> 0.11132676E+00</totfact>
</mgrwt>
</event>
<event>
12    6  0.1611689E-007  0.1250668E+04  0.7818608E-02  0.9069627E-01
         -1   -1    0    0    0  501 -0.00000000000E+00  0.00000000000E+00  0.33290396305E+03  0.33290396305E+03  0.00000000000E+00 0.  1.
          2   -1    0    0  501    0  0.00000000000E+00 -0.00000000000E+00 -0.11746413175E+04  0.11746413175E+04  0.00000000000E+00 0. -1.
         24    2    1    2    0    0 -0.82453688679E+02 -0.26046506684E+03 -0.27401473560E+03  0.39476032256E+03  0.78172726186E+02 0.  0.
        254    2    1    2    0    0  0.82453688679E+02  0.26046506684E+03 -0.56772261889E+03  0.11127849580E+04  0.91724627500E+03 0.  0.
         23    2    4    4    0    0  0.19969106252E+03  0.12962731087E+03 -0.78140569314E+03  0.82169952842E+03  0.88969082122E+02 0.  0.
         23    2    4    4    0    0 -0.11723737384E+03  0.13083775597E+03  0.21368307425E+03  0.29108542960E+03  0.90593326972E+02 0.  0.
          2    1    3    3  502    0 -0.78105873725E+02 -0.12519397713E+03 -0.16147349928E+03  0.21874128643E+03  0.00000000000E+00 0. -1.
         -1    1    3    3    0  502 -0.43478149536E+01 -0.13527108972E+03 -0.11254123633E+03  0.17601903614E+03  0.00000000000E+00 0.  1.
         11    1    5    5    0    0  0.14405002594E+03  0.12347779916E+03 -0.67879597779E+03  0.70481285199E+03  0.00000000000E+00 0. -1.
        -11    1    5    5    0    0  0.55641036574E+02  0.61495117069E+01 -0.10260971535E+03  0.11688667644E+03  0.00000000000E+00 0.  1.
          4    1    6    6  503    0 -0.82239104010E+02  0.13911942393E+03  0.17136936354E+03  0.23555242113E+03  0.00000000000E+00 0.  1.
         -4    1    6    6    0  503 -0.34998269829E+02 -0.82816679549E+01  0.42313710715E+02  0.55533008469E+02  0.00000000000E+00 0. -1.
<mgrwt>
<rscale>  0 0.12506682E+04</rscale>
<asrwt>0</asrwt>
<pdfrwt beam="1">  1        2 0.18071405E+00 0.12506682E+04</pdfrwt>
<pdfrwt beam="2">  1       -1 0.51215995E-01 0.12506682E+04</pdfrwt>
<totfact> 0.84306318E+01</totfact>
</mgrwt>
</event>
<event>
12    6  0.1611689E-007  0.2610250E+04  0.7818608E-02  0.8364728E-01
          2   -1    0    0  501    0  0.00000000000E+00  0.00000000000E+00  0.15129002434E+04  0.15129002434E+04  0.00000000000E+00 0. -1.
         -1   -1    0    0    0  501 -0.00000000000E+00 -0.00000000000E+00 -0.11258850799E+04  0.11258850799E+04  0.00000000000E+00 0.  1.
         24    2    1    2    0    0 -0.49637387414E+03  0.21470955869E+03  0.11907419252E+04  0.13102995378E+04  0.80816637190E+02 0.  0.
        254    2    1    2    0    0  0.49637387414E+03 -0.21470955869E+03 -0.80372676164E+03  0.13284857855E+04  0.90907126093E+03 0.  0.
         23    2    4    4    0    0  0.53171284604E+03 -0.44167962524E+03 -0.82652372714E+03  0.10813529171E+04  0.91559913208E+02 0.  0.
         23    2    4    4    0    0 -0.35338971902E+02  0.22697006655E+03  0.22796965506E+02  0.24713286847E+03  0.88264936394E+02 0.  0.
          2    1    3    3  502    0 -0.25827258944E+02 -0.36575946179E+01  0.85184316143E+02  0.89088680649E+02  0.00000000000E+00 0. -1.
         -1    1    3    3    0  502 -0.47054661519E+03  0.21836715331E+03  0.11055576090E+04  0.12212108571E+04  0.00000000000E+00 0.  1.
         11    1    5    5    0    0  0.36009384307E+01  0.35145868201E+01 -0.14199137326E+02  0.15064347942E+02  0.00000000000E+00 0. -1.
        -11    1    5    5    0    0  0.52811190761E+03 -0.44519421206E+03 -0.81232458982E+03  0.10662885691E+04  0.00000000000E+00 0.  1.
          1    1    6    6  503    0 -0.65531028068E+00  0.19496971896E+03  0.57508061500E+00  0.19497166835E+03  0.00000000000E+00 0. -1.
         -1    1    6    6    0  503 -0.34683661621E+02  0.32000347589E+02  0.22221884891E+02  0.52161200114E+02  0.00000000000E+00 0.  1.
<mgrwt>
<rscale>  0 0.26102504E+04</rscale>
<asrwt>0</asrwt>
<pdfrwt beam="1">  1        2 0.23275388E+00 0.26102504E+04</pdfrwt>
<pdfrwt beam="2">  1       -1 0.17321309E+00 0.26102504E+04</pdfrwt>
<totfact> 0.29286483E+00</totfact>
</mgrwt>
</event>
<event>
12    6  0.1611689E-007  0.2376687E+04  0.7818608E-02  0.8448284E-01
         -1   -1    0    0    0  501 -0.00000000000E+00  0.00000000000E+00  0.10784832654E+04  0.10784832654E+04  0.00000000000E+00 0.  1.
          2   -1    0    0  501    0  0.00000000000E+00 -0.00000000000E+00 -0.13093942033E+04  0.13093942033E+04  0.00000000000E+00 0. -1.
         24    2    1    2    0    0  0.32776790334E+03 -0.71502450684E+03  0.54979548204E+03  0.96324697375E+03  0.82932602275E+02 0.  0.
        254    2    1    2    0    0 -0.32776790334E+03  0.71502450684E+03 -0.78070641994E+03  0.14246304950E+04  0.89519701143E+03 0.  0.
         23    2    4    4    0    0  0.20631518941E+03 -0.56885677100E+02 -0.63294069479E+02  0.23972889583E+03  0.87532089132E+02 0.  0.
         23    2    4    4    0    0 -0.53408309275E+03  0.77191018394E+03 -0.71741235046E+03  0.11849015992E+04  0.90671037610E+02 0.  0.
          4    1    3    3  502    0  0.94075999610E+01 -0.19272308599E+01  0.35951329161E+01  0.10253883971E+02  0.00000000000E+00 0. -1.
         -3    1    3    3    0  502  0.31836030338E+03 -0.71309727598E+03  0.54620034912E+03  0.95299308978E+03  0.00000000000E+00 0.  1.
         11    1    5    5    0    0  0.78685161692E+02 -0.39623178423E+02 -0.67317701358E+02  0.11087390971E+03  0.00000000000E+00 0. -1.
        -11    1    5    5    0    0  0.12763002771E+03 -0.17262498677E+02  0.40236318789E+01  0.12885498612E+03  0.00000000000E+00 0.  1.
          3    1    6    6  503    0 -0.28344990511E+03  0.48350779791E+03 -0.40805042385E+03  0.69327396298E+03  0.00000000000E+00 0. -1.
         -3    1    6    6    0  503 -0.25063318764E+03  0.28840238603E+03 -0.30936192660E+03  0.49162763617E+03  0.00000000000E+00 0.  1.
<mgrwt>
<rscale>  0 0.23766865E+04</rscale>
<asrwt>0</asrwt>
<pdfrwt beam="1">  1        2 0.20144526E+00 0.23766865E+04</pdfrwt>
<pdfrwt beam="2">  1       -1 0.16592050E+00 0.23766865E+04</pdfrwt>
<totfact> 0.44211420E+00</totfact>
</mgrwt>
</event>
<event>
12    6  0.1611689E-007  0.1269015E+04  0.7818608E-02  0.9054504E-01
          2   -1    0    0  501    0  0.00000000000E+00  0.00000000000E+00  0.12241362050E+04  0.12241362050E+04  0.00000000000E+00 0. -1.
         -1   -1    0    0    0  501 -0.00000000000E+00 -0.00000000000E+00 -0.32888467186E+03  0.32888467186E+03  0.00000000000E+00 0.  1.
         24    2    1    2    0    0  0.43458407722E+02 -0.18153975183E+02  0.60848522744E+03  0.61549380485E+03  0.79750559716E+02 0.  0.
        254    2    1    2    0    0 -0.43458407722E+02  0.18153975183E+02  0.28676630568E+03  0.93752707200E+03  0.89134948064E+03 0.  0.
         23    2    4    4    0    0 -0.44022038332E+03 -0.40134267681E+02  0.28183004618E+02  0.45156156617E+03  0.87799891579E+02 0.  0.
         23    2    4    4    0    0  0.39676197559E+03  0.58288242864E+02  0.25858330107E+03  0.48596550583E+03  0.92084552081E+02 0.  0.
          4    1    3    3  502    0  0.61225655001E+02  0.67976406033E+01  0.37908349994E+03  0.38405610094E+03  0.00000000000E+00 0. -1.
         -3    1    3    3    0  502 -0.17767247278E+02 -0.24951615786E+02  0.22940172750E+03  0.23143770390E+03  0.00000000000E+00 0.  1.
         11    1    5    5    0    0 -0.39686716779E+03 -0.60114874075E+02  0.36711970374E+02  0.40306961648E+03  0.00000000000E+00 0. -1.
        -11    1    5    5    0    0 -0.43353215521E+02  0.19980606394E+02 -0.85289657565E+01  0.48491949690E+02  0.00000000000E+00 0.  1.
          1    1    6    6  503    0  0.97731204962E+02  0.54873009386E+02  0.61988679069E+02  0.12808212957E+03  0.00000000000E+00 0. -1.
         -1    1    6    6    0  503  0.29903077063E+03  0.34152334782E+01  0.19659462200E+03  0.35788337626E+03  0.00000000000E+00 0.  1.
<mgrwt>
<rscale>  0 0.12690148E+04</rscale>
<asrwt>0</asrwt>
<pdfrwt beam="1">  1        2 0.18832865E+00 0.12690148E+04</pdfrwt>
<pdfrwt beam="2">  1       -1 0.50597642E-01 0.12690148E+04</pdfrwt>
<totfact> 0.80488616E+01</totfact>
</mgrwt>
</event>
<event>
12    6  0.1611689E-007  0.2489090E+04  0.7818608E-02  0.8406882E-01
          2   -1    0    0  501    0  0.00000000000E+00  0.00000000000E+00  0.14946261957E+04  0.14946261957E+04  0.00000000000E+00 0. -1.
         -1   -1    0    0    0  501 -0.00000000000E+00 -0.00000000000E+00 -0.10363077642E+04  0.10363077642E+04  0.00000000000E+00 0.  1.
         24    2    1    2    0    0  0.12782361960E+03 -0.98754285263E+03  0.62126380962E+03  0.11765044727E+04  0.81328283707E+02 0.  0.
        254    2    1    2    0    0 -0.12782361960E+03  0.98754285263E+03 -0.16294537806E+03  0.13544294872E+04  0.90351993668E+03 0.  0.
         23    2    4    4    0    0  0.13363211060E+03  0.86576108234E+01 -0.28682426636E+03  0.32971325175E+03  0.92250601070E+02 0.  0.
         23    2    4    4    0    0 -0.26145573020E+03  0.97888524181E+03  0.12387888830E+03  0.10247162354E+04  0.90121965573E+02 0.  0.
          2    1    3    3  502    0  0.13501545451E+03 -0.95563275525E+03  0.58954407232E+03  0.11309400289E+04  0.00000000000E+00 0. -1.
         -1    1    3    3    0  502 -0.71918349105E+01 -0.31910097382E+02  0.31719737300E+02  0.45564443799E+02  0.00000000000E+00 0.  1.
         11    1    5    5    0    0  0.13160859685E+03 -0.77840632783E+01 -0.28372533700E+03  0.31286016247E+03  0.00000000000E+00 0. -1.
        -11    1    5    5    0    0  0.20235137593E+01  0.16441674102E+02 -0.30989293613E+01  0.16853089283E+02  0.00000000000E+00 0.  1.
          1    1    6    6  503    0 -0.25101417999E+03  0.82847911762E+03  0.91334180933E+02  0.87047555939E+03  0.00000000000E+00 0. -1.
         -1    1    6    6    0  503 -0.10441550211E+02  0.15040612418E+03  0.32544707368E+02  0.15424067602E+03  0.00000000000E+00 0.  1.
<mgrwt>
<rscale>  0 0.24890904E+04</rscale>
<asrwt>0</asrwt>
<pdfrwt beam="1">  1        2 0.22994249E+00 0.24890904E+04</pdfrwt>
<pdfrwt beam="2">  1       -1 0.15943196E+00 0.24890904E+04</pdfrwt>
<totfact> 0.38364300E+00</totfact>
</mgrwt>
</event>
<event>
12    6  0.1611689E-007  0.3725308E+04  0.7818608E-02  0.8062376E-01
          2   -1    0    0  501    0  0.00000000000E+00  0.00000000000E+00  0.27069519967E+04  0.27069519967E+04  0.00000000000E+00 0. -1.
         -1   -1    0    0    0  501 -0.00000000000E+00 -0.00000000000E+00 -0.12816926227E+04  0.12816926227E+04  0.00000000000E+00 0.  1.
         24    2    1    2    0    0  0.15513532059E+04  0.75077647761E+03  0.32354870378E+03  0.17553934748E+04  0.79752107808E+02 0.  0.
        254    2    1    2    0    0 -0.15513532059E+04 -0.75077647761E+03  0.11017106702E+04  0.22332511447E+04  0.89626011039E+03 0.  0.
         23    2    4    4    0    0 -0.10162690328E+04 -0.92020234421E+03  0.76121160743E+03  0.15706651522E+04  0.89279380139E+02 0.  0.
         23    2    4    4    0    0 -0.53508417309E+03  0.16942586660E+03  0.34049906278E+03  0.66258599246E+03  0.89779669642E+02 0.  0.
          4    1    3    3  502    0  0.89312269108E+03  0.44425420790E+03  0.22571990490E+03  0.10227313518E+04  0.00000000000E+00 0. -1.
         -3    1    3    3    0  502  0.65823051484E+03  0.30652226971E+03  0.97828798886E+02  0.73266212294E+03  0.00000000000E+00 0.  1.
         11    1    5    5    0    0 -0.95663806251E+03 -0.88233950587E+03  0.70311048071E+03  0.14792037501E+04  0.00000000000E+00 0.  1.
        -11    1    5    5    0    0 -0.59630970325E+02 -0.37862838338E+02  0.58101126719E+02  0.91461402105E+02  0.00000000000E+00 0. -1.
          4    1    6    6  503    0 -0.68097331823E+02 -0.76794874064E+01  0.32875643833E+02  0.76006769999E+02  0.00000000000E+00 0. -1.
         -4    1    6    6    0  503 -0.46698684127E+03  0.17710535401E+03  0.30762341895E+03  0.58657922246E+03  0.00000000000E+00 0.  1.
<mgrwt>
<rscale>  0 0.37253083E+04</rscale>
<asrwt>0</asrwt>
<pdfrwt beam="1">  1        2 0.41645415E+00 0.37253083E+04</pdfrwt>
<pdfrwt beam="2">  1       -1 0.19718348E+00 0.37253083E+04</pdfrwt>
<totfact> 0.37937835E-01</totfact>
</mgrwt>
</event>
<event>
12    6  0.1611689E-007  0.2118319E+04  0.7818608E-02  0.8553217E-01
          2   -1    0    0  501    0  0.00000000000E+00  0.00000000000E+00  0.37162725554E+04  0.37162725554E+04  0.00000000000E+00 0. -1.
         -1   -1    0    0    0  501 -0.00000000000E+00 -0.00000000000E+00 -0.30186656109E+03  0.30186656109E+03  0.00000000000E+00 0.  1.
         24    2    1    2    0    0  0.75340522904E+03 -0.13037604394E+03  0.63442392205E+03  0.99675763960E+03  0.80091992534E+02 0.  0.
        254    2    1    2    0    0 -0.75340522904E+03  0.13037604394E+03  0.27799820723E+04  0.30213814769E+04  0.90323217107E+03 0.  0.
         23    2    4    4    0    0 -0.83434767870E+03  0.36843565574E+02  0.13957145240E+04  0.16286140128E+04  0.82891936609E+02 0.  0.
         23    2    4    4    0    0  0.80942449662E+02  0.93532478362E+02  0.13842675483E+04  0.13927674641E+04  0.91129353011E+02 0.  0.
          4    1    3    3  502    0  0.26458229621E+03 -0.68941253779E+02  0.26707059084E+03  0.38220856666E+03  0.00000000000E+00 0. -1.
         -3    1    3    3    0  502  0.48882293283E+03 -0.61434790156E+02  0.36735333120E+03  0.61454907294E+03  0.00000000000E+00 0.  1.
         11    1    5    5    0    0 -0.61195666606E+03  0.18146282730E+02  0.10890162124E+04  0.12493104336E+04  0.00000000000E+00 0.  1.
        -11    1    5    5    0    0 -0.22239101264E+03  0.18697282844E+02  0.30669831159E+03  0.37930357923E+03  0.00000000000E+00 0. -1.
          1    1    6    6  503    0 -0.27910534382E+00 -0.13462078684E+02  0.28576324460E+03  0.28608029891E+03  0.00000000000E+00 0. -1.
         -1    1    6    6    0  503  0.81221555006E+02  0.10699455705E+03  0.10985043037E+04  0.11066871652E+04  0.00000000000E+00 0.  1.
<mgrwt>
<rscale>  0 0.21183186E+04</rscale>
<asrwt>0</asrwt>
<pdfrwt beam="1">  1        2 0.57173421E+00 0.21183186E+04</pdfrwt>
<pdfrwt beam="2">  1       -1 0.46441012E-01 0.21183186E+04</pdfrwt>
<totfact> 0.27607106E+00</totfact>
</mgrwt>
</event>
<event>
12    6  0.1611689E-007  0.1430779E+04  0.7818608E-02  0.8931836E-01
          2   -1    0    0  501    0  0.00000000000E+00  0.00000000000E+00  0.61589174491E+03  0.61589174491E+03  0.00000000000E+00 0. -1.
         -1   -1    0    0    0  501 -0.00000000000E+00 -0.00000000000E+00 -0.83096077438E+03  0.83096077438E+03  0.00000000000E+00 0.  1.
         24    2    1    2    0    0 -0.31552693755E+03  0.10755189985E+03  0.16288802057E+03  0.37945154782E+03  0.79538106699E+02 0.  0.
        254    2    1    2    0    0  0.31552693755E+03 -0.10755189985E+03 -0.37795705005E+03  0.10674009715E+04  0.94094029711E+03 0.  0.
         23    2    4    4    0    0  0.31332830548E+03  0.37996212827E+03 -0.15985488132E+03  0.52553736649E+03  0.89944952996E+02 0.  0.
         23    2    4    4    0    0  0.21986320668E+01 -0.48751402812E+03 -0.21810216873E+03  0.54186360497E+03  0.91503272021E+02 0.  0.
          4    1    3    3  502    0 -0.24198289059E+03  0.10326982268E+03  0.15500196523E+03  0.30536205534E+03  0.00000000000E+00 0. -1.
         -3    1    3    3    0  502 -0.73544046954E+02  0.42820771760E+01  0.78860553429E+01  0.74089492481E+02  0.00000000000E+00 0.  1.
         11    1    5    5    0    0  0.28289134355E+03  0.35743581776E+03 -0.16971877694E+03  0.48640758559E+03  0.00000000000E+00 0.  1.
        -11    1    5    5    0    0  0.30436961932E+02  0.22526310502E+02  0.98638956263E+01  0.39129780902E+02  0.00000000000E+00 0. -1.
          3    1    6    6  503    0  0.68899653427E+01 -0.29314273058E+03 -0.81806189709E+02  0.30442139345E+03  0.00000000000E+00 0. -1.
         -3    1    6    6    0  503 -0.46913332759E+01 -0.19437129754E+03 -0.13629597902E+03  0.23744221152E+03  0.00000000000E+00 0.  1.
<mgrwt>
<rscale>  0 0.14307786E+04</rscale>
<asrwt>0</asrwt>
<pdfrwt beam="1">  1        2 0.94752576E-01 0.14307786E+04</pdfrwt>
<pdfrwt beam="2">  1       -1 0.12784012E+00 0.14307786E+04</pdfrwt>
<totfact> 0.28212329E+01</totfact>
</mgrwt>
</event>
<event>
12    6  0.1611689E-007  0.2142232E+04  0.7818608E-02  0.8542864E-01
         -1   -1    0    0    0  501 -0.00000000000E+00  0.00000000000E+00  0.10729315559E+04  0.10729315559E+04  0.00000000000E+00 0.  1.
          2   -1    0    0  501    0  0.00000000000E+00 -0.00000000000E+00 -0.10693039671E+04  0.10693039671E+04  0.00000000000E+00 0. -1.
         24    2    1    2    0    0  0.18764810323E+03 -0.85014231323E+03 -0.14148958387E+03  0.88585650737E+03  0.82272023936E+02 0.  0.
        254    2    1    2    0    0 -0.18764810323E+03  0.85014231323E+03  0.14511717267E+03  0.12563790157E+04  0.89413392391E+03 0.  0.
         23    2    4    4    0    0  0.31264749498E+02  0.52171823618E+03  0.49105683445E+03  0.72312394182E+03  0.92757846281E+02 0.  0.
         23    2    4    4    0    0 -0.21891285272E+03  0.32842407705E+03 -0.34593966178E+03  0.53325507388E+03  0.94347828535E+02 0.  0.
          2    1    3    3  502    0 -0.31799281300E+01 -0.71897121784E+02  0.10647153065E+01  0.71975285219E+02  0.00000000000E+00 0. -1.
         -3    1    3    3    0  502  0.19082803136E+03 -0.77824519145E+03 -0.14255429918E+03  0.81388122216E+03  0.00000000000E+00 0.  1.
         11    1    5    5    0    0  0.53516429027E+02  0.29457062433E+03  0.31749060073E+03  0.43638989728E+03  0.00000000000E+00 0. -1.
        -11    1    5    5    0    0 -0.22251679530E+02  0.22714761185E+03  0.17356623372E+03  0.28673404454E+03  0.00000000000E+00 0.  1.
          3    1    6    6  503    0 -0.19077420970E+03  0.32580164900E+03 -0.32094594959E+03  0.49552781570E+03  0.00000000000E+00 0. -1.
         -3    1    6    6    0  503 -0.28138643025E+02  0.26224280474E+01 -0.24993712190E+02  0.37727258172E+02  0.00000000000E+00 0.  1.
<mgrwt>
<rscale>  0 0.21422325E+04</rscale>
<asrwt>0</asrwt>
<pdfrwt beam="1">  1        2 0.16450830E+00 0.21422325E+04</pdfrwt>
<pdfrwt beam="2">  1       -1 0.16506639E+00 0.21422325E+04</pdfrwt>
<totfact> 0.63819862E+00</totfact>
</mgrwt>
</event>
<event>
12    6  0.1611689E-007  0.1325745E+04  0.7818608E-02  0.9009395E-01
          2   -1    0    0  501    0  0.00000000000E+00  0.00000000000E+00  0.30149078993E+03  0.30149078993E+03  0.00000000000E+00 0. -1.
         -1   -1    0    0    0  501 -0.00000000000E+00 -0.00000000000E+00 -0.14574232413E+04  0.14574232413E+04  0.00000000000E+00 0.  1.
         24    2    1    2    0    0 -0.28188320633E+03 -0.52355273001E+02 -0.40665756085E+02  0.29959385348E+03  0.76834606175E+02 0.  0.
        254    2    1    2    0    0  0.28188320633E+03  0.52355273001E+02 -0.11152666953E+04  0.14593201778E+04  0.89643536463E+03 0.  0.
         23    2    4    4    0    0  0.19125659240E+02  0.19405968249E+03 -0.11267088195E+04  0.11470893983E+04  0.91194147091E+02 0.  0.
         23    2    4    4    0    0  0.26275754709E+03 -0.14170440949E+03  0.11442124234E+02  0.31223077947E+03  0.90749486054E+02 0.  0.
          4    1    3    3  502    0 -0.14133391584E+03 -0.64461477321E+01  0.13508997673E+02  0.14212431743E+03  0.00000000000E+00 0. -1.
         -3    1    3    3    0  502 -0.14054929049E+03 -0.45909125269E+02 -0.54174753758E+02  0.15746953606E+03  0.00000000000E+00 0.  1.
         11    1    5    5    0    0  0.32538530085E+02  0.17091015967E+03 -0.77146910588E+03  0.79084361283E+03  0.00000000000E+00 0. -1.
        -11    1    5    5    0    0 -0.13412870846E+02  0.23149522822E+02 -0.35523971365E+03  0.35624578547E+03  0.00000000000E+00 0.  1.
          1    1    6    6  503    0  0.12791382445E+03 -0.10424209457E+03 -0.26744895223E+02  0.16716354323E+03  0.00000000000E+00 0. -1.
         -1    1    6    6    0  503  0.13484372264E+03 -0.37462314921E+02  0.38187019456E+02  0.14506723623E+03  0.00000000000E+00 0.  1.
<mgrwt>
<rscale>  0 0.13257446E+04</rscale>
<asrwt>0</asrwt>
<pdfrwt beam="1">  1        2 0.46383198E-01 0.13257446E+04</pdfrwt>
<pdfrwt beam="2">  1       -1 0.22421896E+00 0.13257446E+04</pdfrwt>
<totfact> 0.12626374E+01</totfact>
</mgrwt>
</event>
<event>
12    6  0.1611689E-007  0.2065970E+04  0.7818608E-02  0.8576384E-01
         -1   -1    0    0    0  501 -0.00000000000E+00  0.00000000000E+00  0.70363961550E+03  0.70363961550E+03  0.00000000000E+00 0.  1.
          2   -1    0    0  501    0  0.00000000000E+00 -0.00000000000E+00 -0.15164836039E+04  0.15164836039E+04  0.00000000000E+00 0. -1.
         24    2    1    2    0    0  0.15551314269E+03 -0.46746518435E+03 -0.10562689961E+04  0.11681761540E+04  0.78887885414E+02 0.  0.
        254    2    1    2    0    0 -0.15551314269E+03  0.46746518435E+03  0.24342500774E+03  0.10519470654E+04  0.89701106898E+03 0.  0.
         23    2    4    4    0    0  0.30657315862E+03 -0.20343950402E+02 -0.26442815287E+02  0.32224338510E+03  0.93491169953E+02 0.  0.
         23    2    4    4    0    0 -0.46208630131E+03  0.48780913475E+03  0.26986782302E+03  0.72970368029E+03  0.90317868223E+02 0.  0.
          2    1    3    3  502    0  0.11339971171E+03 -0.23018830410E+03 -0.50186652654E+03  0.56366316220E+03  0.00000000000E+00 0. -1.
         -1    1    3    3    0  502  0.42113430985E+02 -0.23727688025E+03 -0.55440246960E+03  0.60451299181E+03  0.00000000000E+00 0.  1.
         11    1    5    5    0    0  0.18113293856E+03 -0.57667351031E+02 -0.21109195636E+02  0.19125967412E+03  0.00000000000E+00 0.  1.
        -11    1    5    5    0    0  0.12544022006E+03  0.37323400629E+02 -0.53336196510E+01  0.13098371098E+03  0.00000000000E+00 0. -1.
          1    1    6    6  503    0 -0.30714934551E+02  0.55653800515E+02  0.49436268098E+02  0.80527618366E+02  0.00000000000E+00 0. -1.
         -1    1    6    6    0  503 -0.43137136676E+03  0.43215533424E+03  0.22043155493E+03  0.64917606193E+03  0.00000000000E+00 0.  1.
<mgrwt>
<rscale>  0 0.20659699E+04</rscale>
<asrwt>0</asrwt>
<pdfrwt beam="1">  1        2 0.23330517E+00 0.20659699E+04</pdfrwt>
<pdfrwt beam="2">  1       -1 0.10825225E+00 0.20659699E+04</pdfrwt>
<totfact> 0.10368177E+01</totfact>
</mgrwt>
</event>
<event>
12    6  0.1611689E-007  0.2450862E+04  0.7818608E-02  0.8420703E-01
         -1   -1    0    0    0  501 -0.00000000000E+00  0.00000000000E+00  0.46336928938E+03  0.46336928938E+03  0.00000000000E+00 0.  1.
          2   -1    0    0  501    0  0.00000000000E+00 -0.00000000000E+00 -0.32407872108E+04  0.32407872108E+04  0.00000000000E+00 0. -1.
         24    2    1    2    0    0  0.10514908601E+04 -0.11100124231E+02 -0.13868182433E+04  0.17422467871E+04  0.80017408290E+02 0.  0.
        254    2    1    2    0    0 -0.10514908601E+04  0.11100124231E+02 -0.13905996781E+04  0.19619097130E+04  0.89975886542E+03 0.  0.
         23    2    4    4    0    0 -0.25507588513E+03 -0.36466163995E+03 -0.25214624865E+03  0.51979855657E+03  0.92579640708E+02 0.  0.
         23    2    4    4    0    0 -0.79641497494E+03  0.37576176418E+03 -0.11384534294E+04  0.14421111565E+04  0.90192355254E+02 0.  0.
          2    1    3    3  502    0  0.25294422470E+03  0.26108946196E+02 -0.36588397630E+03  0.44557102912E+03  0.00000000000E+00 0. -1.
         -1    1    3    3    0  502  0.79854663536E+03 -0.37209070427E+02 -0.10209342670E+04  0.12966757580E+04  0.00000000000E+00 0.  1.
         11    1    5    5    0    0 -0.18706977654E+03 -0.26328337690E+03 -0.13322584246E+03  0.34937424483E+03  0.00000000000E+00 0. -1.
        -11    1    5    5    0    0 -0.68006108591E+02 -0.10137826305E+03 -0.11892040619E+03  0.17042431174E+03  0.00000000000E+00 0.  1.
          2    1    6    6  503    0 -0.46452415612E+03  0.18410534978E+03 -0.69522461547E+03  0.85616279841E+03  0.00000000000E+00 0. -1.
         -2    1    6    6    0  503 -0.33189081882E+03  0.19165641440E+03 -0.44322881395E+03  0.58594835806E+03  0.00000000000E+00 0.  1.
<mgrwt>
<rscale>  0 0.24508621E+04</rscale>
<asrwt>0</asrwt>
<pdfrwt beam="1">  1        2 0.49858265E+00 0.24508621E+04</pdfrwt>
<pdfrwt beam="2">  1       -1 0.71287583E-01 0.24508621E+04</pdfrwt>
<totfact> 0.24696240E+00</totfact>
</mgrwt>
</event>
<event>
12    6  0.1611689E-007  0.2804693E+04  0.7818608E-02  0.8301813E-01
         -1   -1    0    0    0  501 -0.00000000000E+00  0.00000000000E+00  0.11156594625E+04  0.11156594625E+04  0.00000000000E+00 0.  1.
          2   -1    0    0  501    0  0.00000000000E+00 -0.00000000000E+00 -0.17627030556E+04  0.17627030556E+04  0.00000000000E+00 0. -1.
         24    2    1    2    0    0  0.61425845923E+03  0.61635088581E+03 -0.12078859008E+04  0.14912318202E+04  0.87075387921E+02 0.  0.
        254    2    1    2    0    0 -0.61425845923E+03 -0.61635088581E+03  0.56084230773E+03  0.13871306979E+04  0.92324731774E+03 0.  0.
         23    2    4    4    0    0 -0.18656788374E+03  0.23060272605E+03  0.98810717758E+02  0.32798940395E+03  0.99137776112E+02 0.  0.
         23    2    4    4    0    0 -0.42769057549E+03 -0.84695361186E+03  0.46203158997E+03  0.10591412939E+04  0.89763251956E+02 0.  0.
          2    1    3    3  502    0  0.60661674829E+03  0.58713031034E+03 -0.11700970637E+04  0.14428558553E+04  0.00000000000E+00 0. -1.
         -1    1    3    3    0  502  0.76417109363E+01  0.29220575471E+02 -0.37788837048E+02  0.48375964924E+02  0.00000000000E+00 0.  1.
         11    1    5    5    0    0 -0.12631368987E+03  0.92002093820E+02  0.80409397517E+02  0.17574186958E+03  0.00000000000E+00 0. -1.
        -11    1    5    5    0    0 -0.60254193878E+02  0.13860063223E+03  0.18401320241E+02  0.15224753437E+03  0.00000000000E+00 0.  1.
          3    1    6    6  503    0 -0.12289840823E+03 -0.33974370923E+03  0.17190614282E+03  0.40010189783E+03  0.00000000000E+00 0. -1.
         -3    1    6    6    0  503 -0.30479216726E+03 -0.50720990263E+03  0.29012544715E+03  0.65903939612E+03  0.00000000000E+00 0.  1.
<mgrwt>
<rscale>  0 0.28046935E+04</rscale>
<asrwt>0</asrwt>
<pdfrwt beam="1">  1        2 0.27118508E+00 0.28046935E+04</pdfrwt>
<pdfrwt beam="2">  1       -1 0.17163992E+00 0.28046935E+04</pdfrwt>
<totfact> 0.21444720E+00</totfact>
</mgrwt>
</event>
<event>
12    6  0.1611689E-007  0.1531571E+04  0.7818608E-02  0.8863726E-01
          2   -1    0    0  501    0  0.00000000000E+00  0.00000000000E+00  0.27280338427E+04  0.27280338427E+04  0.00000000000E+00 0. -1.
         -1   -1    0    0    0  501 -0.00000000000E+00 -0.00000000000E+00 -0.21496343542E+03  0.21496343542E+03  0.00000000000E+00 0.  1.
         24    2    1    2    0    0 -0.34974903191E+03  0.28482093979E+03  0.12329560301E+04  0.13145345369E+04  0.66129596021E+02 0.  0.
        254    2    1    2    0    0  0.34974903191E+03 -0.28482093979E+03  0.12801143772E+04  0.16284627412E+04  0.89986150480E+03 0.  0.
         23    2    4    4    0    0  0.26860328712E+03  0.17966358865E+02 -0.23317185197E+02  0.28478112491E+03  0.89922644968E+02 0.  0.
         23    2    4    4    0    0  0.81145744791E+02 -0.30278729866E+03  0.13034315624E+04  0.13436816163E+04  0.91003670812E+02 0.  0.
          4    1    3    3  502    0 -0.13402224339E+03  0.96046618575E+02  0.36628432949E+03  0.40168535534E+03  0.00000000000E+00 0. -1.
         -3    1    3    3    0  502 -0.21572678852E+03  0.18877432122E+03  0.86667170061E+03  0.91284918156E+03  0.00000000000E+00 0.  1.
         11    1    5    5    0    0  0.23460969959E+03  0.39465600936E+02 -0.39984919164E+02  0.24124269639E+03  0.00000000000E+00 0. -1.
        -11    1    5    5    0    0  0.33993587524E+02 -0.21499242071E+02  0.16667733967E+02  0.43538428520E+02  0.00000000000E+00 0.  1.
          2    1    6    6  503    0  0.92313110763E+02 -0.23433409682E+03  0.91131892937E+03  0.94548208358E+03  0.00000000000E+00 0. -1.
         -2    1    6    6    0  503 -0.11167365972E+02 -0.68453201833E+02  0.39211263299E+03  0.39819953271E+03  0.00000000000E+00 0.  1.
<mgrwt>
<rscale>  0 0.15315711E+04</rscale>
<asrwt>0</asrwt>
<pdfrwt beam="1">  1        2 0.41969749E+00 0.15315711E+04</pdfrwt>
<pdfrwt beam="2">  1       -1 0.33071300E-01 0.15315711E+04</pdfrwt>
<totfact> 0.24187417E+01</totfact>
</mgrwt>
</event>
<event>
12    6  0.1611689E-007  0.1082860E+04  0.7818608E-02  0.9222060E-01
          2   -1    0    0  501    0  0.00000000000E+00  0.00000000000E+00  0.11706284946E+04  0.11706284946E+04  0.00000000000E+00 0. -1.
         -1   -1    0    0    0  501 -0.00000000000E+00 -0.00000000000E+00 -0.25041809802E+03  0.25041809802E+03  0.00000000000E+00 0.  1.
         24    2    1    2    0    0 -0.29606754139E+02 -0.10316066284E+03  0.29942311931E+03  0.32795016411E+03  0.79865033103E+02 0.  0.
        254    2    1    2    0    0  0.29606754139E+02  0.10316066284E+03  0.62078727725E+03  0.10930964285E+04  0.89328846189E+03 0.  0.
         23    2    4    4    0    0  0.36092635280E+02  0.37467363102E+02 -0.21964901479E+03  0.24510762131E+03  0.95527873968E+02 0.  0.
         23    2    4    4    0    0 -0.64858811409E+01  0.65693299738E+02  0.84043629204E+03  0.84798880719E+03  0.91619756961E+02 0.  0.
          2    1    3    3  502    0  0.12931780918E+02 -0.45852137428E+02  0.19979149473E+03  0.20539301553E+03  0.00000000000E+00 0. -1.
         -3    1    3    3    0  502 -0.42538535057E+02 -0.57308525412E+02  0.99631624582E+02  0.12255714857E+03  0.00000000000E+00 0.  1.
         11    1    5    5    0    0  0.30179329169E+02  0.53232528315E+02 -0.21991299494E+03  0.22826786748E+03  0.00000000000E+00 0.  1.
        -11    1    5    5    0    0  0.59133061116E+01 -0.15765165213E+02  0.26398015315E+00  0.16839753825E+02  0.00000000000E+00 0. -1.
          1    1    6    6  503    0 -0.97711157314E+01 -0.22327625716E+02  0.15222295965E+03  0.15416169115E+03  0.00000000000E+00 0. -1.
         -1    1    6    6    0  503  0.32852345905E+01  0.88020925454E+02  0.68821333239E+03  0.69382711605E+03  0.00000000000E+00 0.  1.
<mgrwt>
<rscale>  0 0.10828602E+04</rscale>
<asrwt>0</asrwt>
<pdfrwt beam="1">  1        2 0.18009669E+00 0.10828602E+04</pdfrwt>
<pdfrwt beam="2">  1       -1 0.38525862E-01 0.10828602E+04</pdfrwt>
<totfact> 0.14565791E+02</totfact>
</mgrwt>
</event>
<event>
12    6  0.1611689E-007  0.1648758E+04  0.7818608E-02  0.8791141E-01
          2   -1    0    0  501    0  0.00000000000E+00  0.00000000000E+00  0.28067469375E+04  0.28067469375E+04  0.00000000000E+00 0. -1.
         -1   -1    0    0    0  501 -0.00000000000E+00 -0.00000000000E+00 -0.24213115754E+03  0.24213115754E+03  0.00000000000E+00 0.  1.
         24    2    1    2    0    0 -0.34017342596E+03  0.46429231827E+03  0.94444308627E+03  0.11077903358E+04  0.62780318605E+02 0.  0.
        254    2    1    2    0    0  0.34017342596E+03 -0.46429231827E+03  0.16201726937E+04  0.19410877592E+04  0.90087558247E+03 0.  0.
         23    2    4    4    0    0  0.16278949734E+03 -0.15954375335E+03 -0.31100771421E+02  0.24972115460E+03  0.97153318996E+02 0.  0.
         23    2    4    4    0    0  0.17738392861E+03 -0.30474856492E+03  0.16512734651E+04  0.16913666047E+04  0.98387949963E+02 0.  0.
          4    1    3    3  502    0 -0.67025235530E+02  0.61190241510E+02  0.12276163842E+03  0.15266645906E+03  0.00000000000E+00 0. -1.
         -3    1    3    3    0  502 -0.27314819042E+03  0.40310207676E+03  0.82168144785E+03  0.95512387676E+03  0.00000000000E+00 0.  1.
         11    1    5    5    0    0  0.16657671483E+03 -0.13226164525E+03 -0.47122522720E+02  0.21785655114E+03  0.00000000000E+00 0.  1.
        -11    1    5    5    0    0 -0.37872174876E+01 -0.27282108097E+02  0.16021751299E+02  0.31864603453E+02  0.00000000000E+00 0. -1.
          2    1    6    6  503    0  0.79834266528E+02 -0.90274468286E+02  0.75904332270E+03  0.76855042480E+03  0.00000000000E+00 0. -1.
         -2    1    6    6    0  503  0.97549662083E+02 -0.21447409664E+03  0.89223014245E+03  0.92281617985E+03  0.00000000000E+00 0.  1.
<mgrwt>
<rscale>  0 0.16487582E+04</rscale>
<asrwt>0</asrwt>
<pdfrwt beam="1">  1        2 0.43180720E+00 0.16487582E+04</pdfrwt>
<pdfrwt beam="2">  1       -1 0.37250949E-01 0.16487582E+04</pdfrwt>
<totfact> 0.17347197E+01</totfact>
</mgrwt>
</event>
<event>
12    6  0.1611689E-007  0.1581735E+04  0.7818608E-02  0.8831848E-01
         -1   -1    0    0    0  501 -0.00000000000E+00  0.00000000000E+00  0.72431332440E+03  0.72431332440E+03  0.00000000000E+00 0.  1.
          2   -1    0    0  501    0  0.00000000000E+00 -0.00000000000E+00 -0.86353685706E+03  0.86353685706E+03  0.00000000000E+00 0. -1.
         24    2    1    2    0    0  0.20593116396E+03 -0.18205885525E+03 -0.53705795090E+03  0.61081948052E+03  0.95478395942E+02 0.  0.
        254    2    1    2    0    0 -0.20593116396E+03  0.18205885525E+03  0.39783441824E+03  0.97703070093E+03  0.84897802985E+03 0.  0.
         23    2    4    4    0    0 -0.17457582927E+03 -0.18725870417E+03 -0.14832180802E+03  0.31048595390E+03  0.94125588363E+02 0.  0.
         23    2    4    4    0    0 -0.31355334690E+02  0.36931755941E+03  0.54615622626E+03  0.66654474703E+03  0.92825964077E+02 0.  0.
          2    1    3    3  502    0  0.13318312558E+03 -0.67384846273E+02 -0.21948258681E+03  0.26542620134E+03  0.00000000000E+00 0. -1.
         -1    1    3    3    0  502  0.72748038380E+02 -0.11467400897E+03 -0.31757536409E+03  0.34539327918E+03  0.00000000000E+00 0.  1.
         11    1    5    5    0    0 -0.20170540548E+02  0.54476116530E+01  0.26441825691E+01  0.21059887943E+02  0.00000000000E+00 0.  1.
        -11    1    5    5    0    0 -0.15440528872E+03 -0.19270631582E+03 -0.15096599059E+03  0.28942606596E+03  0.00000000000E+00 0. -1.
          4    1    6    6  503    0 -0.58943716502E+02  0.31250026841E+03  0.43754176095E+03  0.54090070442E+03  0.00000000000E+00 0. -1.
         -4    1    6    6    0  503  0.27588381812E+02  0.56817291006E+02  0.10861446531E+03  0.12564404261E+03  0.00000000000E+00 0.  1.
<mgrwt>
<rscale>  0 0.15817348E+04</rscale>
<asrwt>0</asrwt>
<pdfrwt beam="1">  1        2 0.13285182E+00 0.15817348E+04</pdfrwt>
<pdfrwt beam="2">  1       -1 0.11143282E+00 0.15817348E+04</pdfrwt>
<totfact> 0.25201010E+01</totfact>
</mgrwt>
</event>
<event>
12    6  0.1611689E-007  0.2009371E+04  0.7818608E-02  0.8602252E-01
         -1   -1    0    0    0  501 -0.00000000000E+00  0.00000000000E+00  0.88995853323E+03  0.88995853323E+03  0.00000000000E+00 0.  1.
          2   -1    0    0  501    0  0.00000000000E+00 -0.00000000000E+00 -0.11342026029E+04  0.11342026029E+04  0.00000000000E+00 0. -1.
         24    2    1    2    0    0  0.40834013429E+03  0.45406348465E+03 -0.64109819166E+03  0.88893537967E+03  0.79271082365E+02 0.  0.
        254    2    1    2    0    0 -0.40834013429E+03 -0.45406348465E+03  0.39685412195E+03  0.11352257565E+04  0.87082088329E+03 0.  0.
         23    2    4    4    0    0  0.23229581257E+03  0.26014871108E+02  0.40406857591E+02  0.25409790421E+03  0.91076411468E+02 0.  0.
         23    2    4    4    0    0 -0.64063594686E+03 -0.48007835576E+03  0.35644726436E+03  0.88112785230E+03  0.91880333809E+02 0.  0.
          2    1    3    3  502    0  0.32183710572E+03  0.36029339795E+03 -0.45742507640E+03  0.66530305556E+03  0.00000000000E+00 0. -1.
         -1    1    3    3    0  502  0.86503028572E+02  0.93770086705E+02 -0.18367311527E+03  0.22363232410E+03  0.00000000000E+00 0.  1.
         11    1    5    5    0    0  0.21475864422E+03  0.11788342047E+01  0.16452019477E+02  0.21539111835E+03  0.00000000000E+00 0.  1.
        -11    1    5    5    0    0  0.17537168354E+02  0.24836036903E+02  0.23954838114E+02  0.38706785865E+02  0.00000000000E+00 0. -1.
          2    1    6    6  503    0 -0.11133487198E+03 -0.12591883960E+03  0.57984563407E+02  0.17780106152E+03  0.00000000000E+00 0. -1.
         -2    1    6    6    0  503 -0.52930107489E+03 -0.35415951616E+03  0.29846270095E+03  0.70332679078E+03  0.00000000000E+00 0.  1.
<mgrwt>
<rscale>  0 0.20093713E+04</rscale>
<asrwt>0</asrwt>
<pdfrwt beam="1">  1        2 0.17449271E+00 0.20093713E+04</pdfrwt>
<pdfrwt beam="2">  1       -1 0.13691670E+00 0.20093713E+04</pdfrwt>
<totfact> 0.97620788E+00</totfact>
</mgrwt>
</event>
<event>
12    6  0.1611689E-007  0.2083821E+04  0.7818608E-02  0.8568404E-01
          2   -1    0    0  501    0  0.00000000000E+00  0.00000000000E+00  0.91581393714E+03  0.91581393714E+03  0.00000000000E+00 0. -1.
         -1   -1    0    0    0  501 -0.00000000000E+00 -0.00000000000E+00 -0.11853691409E+04  0.11853691409E+04  0.00000000000E+00 0.  1.
         24    2    1    2    0    0  0.69998501541E+03  0.43899548969E+03  0.33791304434E+02  0.83308934055E+03  0.10099472910E+03 0.  0.
        254    2    1    2    0    0 -0.69998501541E+03 -0.43899548969E+03 -0.30334650819E+03  0.12680937375E+04  0.91287817438E+03 0.  0.
         23    2    4    4    0    0 -0.11917820673E+03  0.20343817372E+03 -0.30652620676E+03  0.39729700978E+03  0.91082726475E+02 0.  0.
         23    2    4    4    0    0 -0.58080680869E+03 -0.64243366341E+03  0.31796985739E+01  0.87079672772E+03  0.90660187595E+02 0.  0.
          2    1    3    3  502    0  0.25416808194E+02  0.13670185139E+02 -0.17890950929E+02  0.33955474164E+02  0.00000000000E+00 0. -1.
         -1    1    3    3    0  502  0.67456820722E+03  0.42532530456E+03  0.51682255363E+02  0.79913386638E+03  0.00000000000E+00 0.  1.
         11    1    5    5    0    0 -0.13296207355E+03  0.19542121577E+03 -0.28089899605E+03  0.36711389317E+03  0.00000000000E+00 0. -1.
        -11    1    5    5    0    0  0.13783866823E+02  0.80169579463E+01 -0.25627210709E+02  0.30183116606E+02  0.00000000000E+00 0.  1.
          2    1    6    6  503    0 -0.54135844807E+03 -0.59135153374E+03 -0.20661814751E+02  0.80199284058E+03  0.00000000000E+00 0. -1.
         -2    1    6    6    0  503 -0.39448360611E+02 -0.51082129678E+02  0.23841513325E+02  0.68803887135E+02  0.00000000000E+00 0.  1.
<mgrwt>
<rscale>  0 0.20838211E+04</rscale>
<asrwt>0</asrwt>
<pdfrwt beam="1">  1        2 0.14089445E+00 0.20838211E+04</pdfrwt>
<pdfrwt beam="2">  1       -1 0.18236448E+00 0.20838211E+04</pdfrwt>
<totfact> 0.60277573E+00</totfact>
</mgrwt>
</event>
<event>
12    6  0.1611689E-007  0.3071851E+04  0.7818608E-02  0.8223506E-01
          2   -1    0    0  501    0  0.00000000000E+00  0.00000000000E+00  0.42427098300E+04  0.42427098300E+04  0.00000000000E+00 0. -1.
         -1   -1    0    0    0  501 -0.00000000000E+00 -0.00000000000E+00 -0.55602852922E+03  0.55602852922E+03  0.00000000000E+00 0.  1.
         24    2    1    2    0    0 -0.11002727920E+04 -0.45308942229E+02  0.32432342007E+03  0.11507078352E+04  0.79307781075E+02 0.  0.
        254    2    1    2    0    0  0.11002727920E+04  0.45308942229E+02  0.33623578808E+04  0.36480305241E+04  0.88883241909E+03 0.  0.
         23    2    4    4    0    0  0.54778170713E+03  0.32162184678E+03  0.25160278642E+04  0.25966116255E+04  0.92142872472E+02 0.  0.
         23    2    4    4    0    0  0.55249108485E+03 -0.27631290455E+03  0.84633001651E+03  0.10514188986E+04  0.87246681262E+02 0.  0.
          2    1    3    3  502    0 -0.20464280068E+03 -0.16234219594E+02  0.92135281831E+02  0.22501363495E+03  0.00000000000E+00 0. -1.
         -1    1    3    3    0  502 -0.89562999130E+03 -0.29074722635E+02  0.23218813824E+03  0.92569420024E+03  0.00000000000E+00 0.  1.
         11    1    5    5    0    0  0.32618858559E+03  0.23892902913E+03  0.16568435764E+04  0.17054667136E+04  0.00000000000E+00 0. -1.
        -11    1    5    5    0    0  0.22159312154E+03  0.82692817641E+02  0.85918428780E+03  0.89114491190E+03  0.00000000000E+00 0.  1.
          1    1    6    6  503    0  0.50786347587E+03 -0.27265877811E+03  0.75686555117E+03  0.95137457500E+03  0.00000000000E+00 0. -1.
         -1    1    6    6    0  503  0.44627608985E+02 -0.36541264399E+01  0.89464465333E+02  0.10004432358E+03  0.00000000000E+00 0.  1.
<mgrwt>
<rscale>  0 0.30718514E+04</rscale>
<asrwt>0</asrwt>
<pdfrwt beam="1">  1        2 0.65272457E+00 0.30718514E+04</pdfrwt>
<pdfrwt beam="2">  1       -1 0.85542853E-01 0.30718514E+04</pdfrwt>
<totfact> 0.27815039E-01</totfact>
</mgrwt>
</event>
<event>
12    6  0.1611689E-007  0.3019393E+04  0.7818608E-02  0.8238215E-01
         -1   -1    0    0    0  501 -0.00000000000E+00  0.00000000000E+00  0.14228142952E+04  0.14228142952E+04  0.00000000000E+00 0.  1.
          2   -1    0    0  501    0  0.00000000000E+00 -0.00000000000E+00 -0.16018842741E+04  0.16018842741E+04  0.00000000000E+00 0. -1.
         24    2    1    2    0    0  0.82847975704E+03 -0.98991905696E+03  0.38632146982E+03  0.13497390807E+04  0.78948469202E+02 0.  0.
        254    2    1    2    0    0 -0.82847975704E+03  0.98991905696E+03 -0.56539144874E+03  0.16749594886E+04  0.90526424370E+03 0.  0.
         23    2    4    4    0    0 -0.34015851862E+03  0.98214235281E+03 -0.20996993857E+03  0.10643063700E+04  0.91374258485E+02 0.  0.
         23    2    4    4    0    0 -0.48832123842E+03  0.77767041497E+01 -0.35542151017E+03  0.61065311860E+03  0.89747826417E+02 0.  0.
          2    1    3    3  502    0  0.32607849262E+02 -0.19212936464E+02  0.14962284666E+02  0.40697404383E+02  0.00000000000E+00 0. -1.
         -1    1    3    3    0  502  0.79587190778E+03 -0.97070612049E+03  0.37135918516E+03  0.13090416763E+04  0.00000000000E+00 0.  1.
         11    1    5    5    0    0 -0.28647408383E+03  0.79377510974E+03 -0.13518412393E+03  0.85464675329E+03  0.00000000000E+00 0.  1.
        -11    1    5    5    0    0 -0.53684434790E+02  0.18836724307E+03 -0.74785814640E+02  0.20965961669E+03  0.00000000000E+00 0. -1.
          3    1    6    6  503    0 -0.59218019702E+01  0.93280994927E+01  0.65460578010E+00  0.11068409436E+02  0.00000000000E+00 0. -1.
         -3    1    6    6    0  503 -0.48239943645E+03 -0.15513953430E+01 -0.35607611595E+03  0.59958470916E+03  0.00000000000E+00 0.  1.
<mgrwt>
<rscale>  0 0.30193932E+04</rscale>
<asrwt>0</asrwt>
<pdfrwt beam="1">  1        2 0.24644374E+00 0.30193932E+04</pdfrwt>
<pdfrwt beam="2">  1       -1 0.21889451E+00 0.30193932E+04</pdfrwt>
<totfact> 0.12117311E+00</totfact>
</mgrwt>
</event>
<event>
12    6  0.1611689E-007  0.2089490E+04  0.7818608E-02  0.8565887E-01
         -1   -1    0    0    0  501 -0.00000000000E+00  0.00000000000E+00  0.10481151165E+04  0.10481151165E+04  0.00000000000E+00 0.  1.
          2   -1    0    0  501    0  0.00000000000E+00 -0.00000000000E+00 -0.10413855779E+04  0.10413855779E+04  0.00000000000E+00 0. -1.
         24    2    1    2    0    0 -0.65892355352E+03  0.21912171494E+03 -0.47885872052E+03  0.84742173597E+03  0.81383960509E+02 0.  0.
        254    2    1    2    0    0  0.65892355352E+03 -0.21912171494E+03  0.48558825912E+03  0.12420789585E+04  0.90816826986E+03 0.  0.
         23    2    4    4    0    0  0.78126280971E+03 -0.39591685789E+03  0.49295786405E+03  0.10089210869E+04  0.88275521101E+02 0.  0.
         23    2    4    4    0    0 -0.12233925619E+03  0.17679514295E+03 -0.73696049347E+01  0.23315787160E+03  0.89915881992E+02 0.  0.
          2    1    3    3  502    0 -0.62765533647E+03  0.22590842768E+03 -0.45967184072E+03  0.81011359713E+03  0.00000000000E+00 0. -1.
         -1    1    3    3    0  502 -0.31268217042E+02 -0.67867127416E+01 -0.19186879801E+02  0.37308138835E+02  0.00000000000E+00 0.  1.
         11    1    5    5    0    0  0.70266822819E+03 -0.33080077041E+03  0.41557108417E+03  0.88083546399E+03  0.00000000000E+00 0. -1.
        -11    1    5    5    0    0  0.78594581521E+02 -0.65116087478E+02  0.77386779879E+02  0.12808562290E+03  0.00000000000E+00 0.  1.
          3    1    6    6  503    0 -0.41735979379E+01  0.55828430929E+02 -0.28357814844E+02  0.62756659268E+02  0.00000000000E+00 0. -1.
         -3    1    6    6    0  503 -0.11816565826E+03  0.12096671202E+03  0.20988209909E+02  0.17040121233E+03  0.00000000000E+00 0.  1.
<mgrwt>
<rscale>  0 0.20894899E+04</rscale>
<asrwt>0</asrwt>
<pdfrwt beam="1">  1        2 0.16021316E+00 0.20894899E+04</pdfrwt>
<pdfrwt beam="2">  1       -1 0.16124848E+00 0.20894899E+04</pdfrwt>
<totfact> 0.71301332E+00</totfact>
</mgrwt>
</event>
<event>
12    6  0.1611689E-007  0.2337102E+04  0.7818608E-02  0.8463434E-01
         -1   -1    0    0    0  501 -0.00000000000E+00  0.00000000000E+00  0.83566947267E+03  0.83566947267E+03  0.00000000000E+00 0.  1.
          2   -1    0    0  501    0  0.00000000000E+00 -0.00000000000E+00 -0.16340326838E+04  0.16340326838E+04  0.00000000000E+00 0. -1.
         24    2    1    2    0    0 -0.78379157779E+03 -0.56136087339E+02 -0.98590462085E+03  0.12633657454E+04  0.81268613505E+02 0.  0.
        254    2    1    2    0    0  0.78379157779E+03  0.56136087339E+02  0.18754140971E+03  0.12063364111E+04  0.89587680995E+03 0.  0.
         23    2    4    4    0    0  0.48068015356E+03  0.41922837640E+03 -0.88782041109E+02  0.65064130751E+03  0.92983969682E+02 0.  0.
         23    2    4    4    0    0  0.30311142423E+03 -0.36309228906E+03  0.27632345082E+03  0.55569510356E+03  0.93433681152E+02 0.  0.
          2    1    3    3  502    0 -0.76245339214E+03 -0.47230225642E+02 -0.97243451348E+03  0.12366061428E+04  0.00000000000E+00 0. -1.
         -1    1    3    3    0  502 -0.21338185646E+02 -0.89058616966E+01 -0.13470107376E+02  0.26759602612E+02  0.00000000000E+00 0.  1.
         11    1    5    5    0    0  0.47498644921E+03  0.41557312008E+03 -0.98540099942E+02  0.63876701258E+03  0.00000000000E+00 0.  1.
        -11    1    5    5    0    0  0.56937043454E+01  0.36552563219E+01  0.97580588332E+01  0.11874294932E+02  0.00000000000E+00 0. -1.
          4    1    6    6  503    0  0.13318922276E+03 -0.21843241373E+03  0.17898896535E+03  0.31223250655E+03  0.00000000000E+00 0.  1.
         -4    1    6    6    0  503  0.16992220147E+03 -0.14465987533E+03  0.97334485468E+02  0.24346259701E+03  0.00000000000E+00 0. -1.
<mgrwt>
<rscale>  0 0.23371018E+04</rscale>
<asrwt>0</asrwt>
<pdfrwt beam="1">  1        2 0.25138964E+00 0.23371018E+04</pdfrwt>
<pdfrwt beam="2">  1       -1 0.12856454E+00 0.23371018E+04</pdfrwt>
<totfact> 0.57303134E+00</totfact>
</mgrwt>
</event>
<event>
12    6  0.1611689E-007  0.1469007E+04  0.7818608E-02  0.8905328E-01
         -1   -1    0    0    0  501 -0.00000000000E+00  0.00000000000E+00  0.18263058793E+03  0.18263058793E+03  0.00000000000E+00 0.  1.
          2   -1    0    0  501    0  0.00000000000E+00 -0.00000000000E+00 -0.29540268832E+04  0.29540268832E+04  0.00000000000E+00 0. -1.
         24    2    1    2    0    0 -0.19762835940E+03  0.22761897451E+01 -0.17218053845E+04  0.17349331694E+04  0.79480631043E+02 0.  0.
        254    2    1    2    0    0  0.19762835940E+03 -0.22761897451E+01 -0.10495909108E+04  0.14017243018E+04  0.90781484270E+03 0.  0.
         23    2    4    4    0    0  0.36566670942E+03  0.88607148772E+02 -0.62107989316E+02  0.39199375461E+03  0.90765258352E+02 0.  0.
         23    2    4    4    0    0 -0.16803835001E+03 -0.90883338517E+02 -0.98748292149E+03  0.10097305472E+04  0.89087537463E+02 0.  0.
          4    1    3    3  502    0 -0.18325497890E+03 -0.15016595588E+02 -0.16332573047E+04  0.16435745523E+04  0.00000000000E+00 0. -1.
         -3    1    3    3    0  502 -0.14373380507E+02  0.17292785333E+02 -0.88548079724E+02  0.91358617079E+02  0.00000000000E+00 0.  1.
         11    1    5    5    0    0  0.16843392765E+03  0.78123704042E+02 -0.25104282166E+01  0.18568684220E+03  0.00000000000E+00 0.  1.
        -11    1    5    5    0    0  0.19723278177E+03  0.10483444730E+02 -0.59597561099E+02  0.20630691240E+03  0.00000000000E+00 0. -1.
          2    1    6    6  503    0 -0.49516290438E+01 -0.89822742947E+01 -0.70226931435E+01  0.12430530989E+02  0.00000000000E+00 0. -1.
         -2    1    6    6    0  503 -0.16308672097E+03 -0.81901064222E+02 -0.98046022835E+03  0.99730001617E+03  0.00000000000E+00 0.  1.
<mgrwt>
<rscale>  0 0.14690074E+04</rscale>
<asrwt>0</asrwt>
<pdfrwt beam="1">  1        2 0.45446567E+00 0.14690074E+04</pdfrwt>
<pdfrwt beam="2">  1       -1 0.28097014E-01 0.14690074E+04</pdfrwt>
<totfact> 0.23649997E+01</totfact>
</mgrwt>
</event>
<event>
12    6  0.1611689E-007  0.1674590E+04  0.7818608E-02  0.8775991E-01
         -1   -1    0    0    0  501 -0.00000000000E+00  0.00000000000E+00  0.37972648263E+03  0.37972648263E+03  0.00000000000E+00 0.  1.
          2   -1    0    0  501    0  0.00000000000E+00 -0.00000000000E+00 -0.18462308255E+04  0.18462308255E+04  0.00000000000E+00 0. -1.
         24    2    1    2    0    0  0.22733066988E+02  0.29822654694E+03  0.15401564999E+03  0.34583872333E+03  0.80173165596E+02 0.  0.
        254    2    1    2    0    0 -0.22733066988E+02 -0.29822654694E+03 -0.16205199929E+04  0.18801185848E+04  0.90515467189E+03 0.  0.
         23    2    4    4    0    0  0.16208774967E+03 -0.11664685302E+03  0.16600767550E+02  0.22015369845E+03  0.91176414421E+02 0.  0.
         23    2    4    4    0    0 -0.18482081666E+03 -0.18157969392E+03 -0.16371207604E+04  0.16599648864E+04  0.90493757999E+02 0.  0.
          4    1    3    3  502    0 -0.23967479486E+02  0.63950890036E+02  0.16726268313E+02  0.70313046164E+02  0.00000000000E+00 0. -1.
         -3    1    3    3    0  502  0.46700546474E+02  0.23427565691E+03  0.13728938168E+03  0.27552567717E+03  0.00000000000E+00 0.  1.
         11    1    5    5    0    0  0.16092584887E+03 -0.85847258201E+02  0.32825767089E+02  0.18532245293E+03  0.00000000000E+00 0.  1.
        -11    1    5    5    0    0  0.11619007990E+01 -0.30799594822E+02 -0.16224999539E+02  0.34831245523E+02  0.00000000000E+00 0. -1.
          3    1    6    6  503    0 -0.78778152562E+02 -0.22403783922E+02 -0.56723991009E+03  0.57312218807E+03  0.00000000000E+00 0. -1.
         -3    1    6    6    0  503 -0.10604266409E+03 -0.15917591000E+03 -0.10698808503E+04  0.10868426983E+04  0.00000000000E+00 0.  1.
<mgrwt>
<rscale>  0 0.16745898E+04</rscale>
<asrwt>0</asrwt>
<pdfrwt beam="1">  1        2 0.28403552E+00 0.16745898E+04</pdfrwt>
<pdfrwt beam="2">  1       -1 0.58419458E-01 0.16745898E+04</pdfrwt>
<totfact> 0.26227259E+01</totfact>
</mgrwt>
</event>
<event>
12    6  0.1611689E-007  0.1466523E+04  0.7818608E-02  0.8907025E-01
         -1   -1    0    0    0  501 -0.00000000000E+00  0.00000000000E+00  0.20866621459E+03  0.20866621459E+03  0.00000000000E+00 0.  1.
          2   -1    0    0  501    0  0.00000000000E+00 -0.00000000000E+00 -0.25767095082E+04  0.25767095082E+04  0.00000000000E+00 0. -1.
         24    2    1    2    0    0  0.47382678651E+02  0.40460980227E+03 -0.11047722711E+04  0.11802175364E+04  0.80233732696E+02 0.  0.
        254    2    1    2    0    0 -0.47382678651E+02 -0.40460980227E+03 -0.12632710225E+04  0.16051581864E+04  0.90262113685E+03 0.  0.
         23    2    4    4    0    0 -0.14194276652E+03 -0.59737324596E+03 -0.12176654013E+04  0.13667506782E+04  0.91081518654E+02 0.  0.
         23    2    4    4    0    0  0.94560087867E+02  0.19276344369E+03 -0.45605621196E+02  0.23840750812E+03  0.93053274015E+02 0.  0.
          4    1    3    3  502    0  0.30020883986E+02  0.34670413689E+03 -0.10051550798E+04  0.10636925056E+04  0.00000000000E+00 0. -1.
         -3    1    3    3    0  502  0.17361794665E+02  0.57905665382E+02 -0.99617191296E+02  0.11652503078E+03  0.00000000000E+00 0.  1.
         11    1    5    5    0    0 -0.68264054381E+02 -0.33385631100E+03 -0.77084158503E+03  0.84280292283E+03  0.00000000000E+00 0. -1.
        -11    1    5    5    0    0 -0.73678712137E+02 -0.26351693496E+03 -0.44682381623E+03  0.52394775540E+03  0.00000000000E+00 0.  1.
          3    1    6    6  503    0  0.96865875064E+02  0.19841987789E+03 -0.31501725553E+02  0.22303767486E+03  0.00000000000E+00 0. -1.
         -3    1    6    6    0  503 -0.23057871969E+01 -0.56564341964E+01 -0.14103895642E+02  0.15369833269E+02  0.00000000000E+00 0.  1.
<mgrwt>
<rscale>  0 0.14665227E+04</rscale>
<asrwt>0</asrwt>
<pdfrwt beam="1">  1        2 0.39641681E+00 0.14665227E+04</pdfrwt>
<pdfrwt beam="2">  1       -1 0.32102498E-01 0.14665227E+04</pdfrwt>
<totfact> 0.31479337E+01</totfact>
</mgrwt>
</event>
<event>
12    6  0.1611689E-007  0.2247569E+04  0.7818608E-02  0.8498886E-01
          2   -1    0    0  501    0  0.00000000000E+00  0.00000000000E+00  0.12093660299E+04  0.12093660299E+04  0.00000000000E+00 0. -1.
         -1   -1    0    0    0  501 -0.00000000000E+00 -0.00000000000E+00 -0.10442587371E+04  0.10442587371E+04  0.00000000000E+00 0.  1.
         24    2    1    2    0    0 -0.51353138069E+03  0.55696351571E+03 -0.49194578055E+03  0.90653410730E+03  0.76619840237E+02 0.  0.
        254    2    1    2    0    0  0.51353138069E+03 -0.55696351571E+03  0.65705307340E+03  0.13470906597E+04  0.89945075877E+03 0.  0.
         23    2    4    4    0    0  0.10949713884E+03  0.19048706049E+03 -0.45101522571E+02  0.24100640532E+03  0.88175940244E+02 0.  0.
         23    2    4    4    0    0  0.40403424185E+03 -0.74745057620E+03  0.70215459597E+03  0.11060842544E+04  0.92061222738E+02 0.  0.
          4    1    3    3  502    0 -0.48690779760E+02  0.28378310537E+02 -0.23836108265E+02  0.61190527043E+02  0.00000000000E+00 0. -1.
         -3    1    3    3    0  502 -0.46484060093E+03  0.52858520517E+03 -0.46810967228E+03  0.84534358026E+03  0.00000000000E+00 0.  1.
         11    1    5    5    0    0  0.45248511826E+02  0.15866255646E+03 -0.33959289242E+02  0.16844722607E+03  0.00000000000E+00 0. -1.
        -11    1    5    5    0    0  0.64248627016E+02  0.31824504039E+02 -0.11142233329E+02  0.72559179256E+02  0.00000000000E+00 0.  1.
          1    1    6    6  503    0  0.30106796555E+03 -0.56301686603E+03  0.57702472432E+03  0.86057390374E+03  0.00000000000E+00 0. -1.
         -1    1    6    6    0  503  0.10296627630E+03 -0.18443371017E+03  0.12512987165E+03  0.24551035066E+03  0.00000000000E+00 0.  1.
<mgrwt>
<rscale>  0 0.22475685E+04</rscale>
<asrwt>0</asrwt>
<pdfrwt beam="1">  1        2 0.18605631E+00 0.22475685E+04</pdfrwt>
<pdfrwt beam="2">  1       -1 0.16065519E+00 0.22475685E+04</pdfrwt>
<totfact> 0.56072304E+00</totfact>
</mgrwt>
</event>
<event>
12    6  0.1611689E-007  0.2205550E+04  0.7818608E-02  0.8516122E-01
          2   -1    0    0  501    0  0.00000000000E+00  0.00000000000E+00  0.21107184511E+04  0.21107184511E+04  0.00000000000E+00 0. -1.
         -1   -1    0    0    0  501 -0.00000000000E+00 -0.00000000000E+00 -0.57616030501E+03  0.57616030501E+03  0.00000000000E+00 0.  1.
         24    2    1    2    0    0 -0.70847089806E+03  0.17701534193E+03  0.12991140834E+04  0.14926464410E+04  0.83848383587E+02 0.  0.
        254    2    1    2    0    0  0.70847089806E+03 -0.17701534193E+03  0.23544406269E+03  0.11942323151E+04  0.91514560106E+03 0.  0.
         23    2    4    4    0    0 -0.84028293215E+02 -0.48296616426E+02  0.35339659743E+03  0.37763096509E+03  0.91228687909E+02 0.  0.
         23    2    4    4    0    0  0.79249919127E+03 -0.12871872551E+03 -0.11795253475E+03  0.81660135003E+03  0.91112490655E+02 0.  0.
          4    1    3    3  502    0 -0.25916593968E+03  0.35792352433E+02  0.52348530598E+03  0.58522213079E+03  0.00000000000E+00 0. -1.
         -3    1    3    3    0  502 -0.44930495838E+03  0.14122298950E+03  0.77562877745E+03  0.90742431023E+03  0.00000000000E+00 0.  1.
         11    1    5    5    0    0 -0.25213220738E+02  0.16304236154E+02  0.18987766352E+03  0.19223699363E+03  0.00000000000E+00 0. -1.
        -11    1    5    5    0    0 -0.58815072477E+02 -0.64600852580E+02  0.16351893391E+03  0.18539397146E+03  0.00000000000E+00 0.  1.
          3    1    6    6  503    0  0.51000213191E+03 -0.43846705942E+02 -0.53507010661E+02  0.51467242822E+03  0.00000000000E+00 0. -1.
         -3    1    6    6    0  503  0.28249705936E+03 -0.84872019566E+02 -0.64445524085E+02  0.30192892182E+03  0.00000000000E+00 0.  1.
<mgrwt>
<rscale>  0 0.22055495E+04</rscale>
<asrwt>0</asrwt>
<pdfrwt beam="1">  1        2 0.32472591E+00 0.22055495E+04</pdfrwt>
<pdfrwt beam="2">  1       -1 0.88640048E-01 0.22055495E+04</pdfrwt>
<totfact> 0.75270377E+00</totfact>
</mgrwt>
</event>
<event>
12    6  0.1611689E-007  0.2190743E+04  0.7818608E-02  0.8522291E-01
         -1   -1    0    0    0  501 -0.00000000000E+00  0.00000000000E+00  0.92568256928E+03  0.92568256928E+03  0.00000000000E+00 0.  1.
          2   -1    0    0  501    0  0.00000000000E+00 -0.00000000000E+00 -0.12961670232E+04  0.12961670232E+04  0.00000000000E+00 0. -1.
         24    2    1    2    0    0  0.79710311057E+03  0.15363809696E+03 -0.56945717941E+03  0.99484567365E+03  0.80364180334E+02 0.  0.
        254    2    1    2    0    0 -0.79710311057E+03 -0.15363809696E+03  0.19897272546E+03  0.12270039189E+04  0.89831533311E+03 0.  0.
         23    2    4    4    0    0 -0.60121030527E+03  0.30998873251E+03  0.21394453339E+03  0.71537743325E+03  0.91900833483E+02 0.  0.
         23    2    4    4    0    0 -0.19589280530E+03 -0.46362682947E+03 -0.14971807931E+02  0.51162648561E+03  0.90629341671E+02 0.  0.
          4    1    3    3  502    0  0.19556700937E+03  0.55924316707E+02 -0.17996645981E+03  0.27159144135E+03  0.00000000000E+00 0. -1.
         -3    1    3    3    0  502  0.60153610120E+03  0.97713780253E+02 -0.38949071960E+03  0.72325423231E+03  0.00000000000E+00 0.  1.
         11    1    5    5    0    0 -0.52697382285E+03  0.26862837598E+03  0.15347609760E+03  0.61107898580E+03  0.00000000000E+00 0. -1.
        -11    1    5    5    0    0 -0.74236482417E+02  0.41360356526E+02  0.60468435790E+02  0.10429844745E+03  0.00000000000E+00 0.  1.
          3    1    6    6  503    0 -0.20156114702E+03 -0.41640331769E+03 -0.32156710776E+01  0.46263263991E+03  0.00000000000E+00 0. -1.
         -3    1    6    6    0  503  0.56683417170E+01 -0.47223511780E+02 -0.11756136853E+02  0.48993845699E+02  0.00000000000E+00 0.  1.
<mgrwt>
<rscale>  0 0.21907435E+04</rscale>
<asrwt>0</asrwt>
<pdfrwt beam="1">  1        2 0.19941031E+00 0.21907435E+04</pdfrwt>
<pdfrwt beam="2">  1       -1 0.14241270E+00 0.21907435E+04</pdfrwt>
<totfact> 0.69430817E+00</totfact>
</mgrwt>
</event>
<event>
12    6  0.1611689E-007  0.2320564E+04  0.7818608E-02  0.8469857E-01
         -1   -1    0    0    0  501 -0.00000000000E+00  0.00000000000E+00  0.10332160248E+04  0.10332160248E+04  0.00000000000E+00 0.  1.
          2   -1    0    0  501    0  0.00000000000E+00 -0.00000000000E+00 -0.13029745725E+04  0.13029745725E+04  0.00000000000E+00 0. -1.
         24    2    1    2    0    0 -0.89006615816E+02  0.77553274154E+03  0.48242473760E+03  0.92096886394E+03  0.77953896843E+02 0.  0.
        254    2    1    2    0    0  0.89006615816E+02 -0.77553274154E+03 -0.75218328528E+03  0.14152217334E+04  0.90978000038E+03 0.  0.
         23    2    4    4    0    0 -0.20644580506E+02 -0.84970096354E+03 -0.25380043334E+03  0.89171337618E+03  0.91214906467E+02 0.  0.
         23    2    4    4    0    0  0.10965119632E+03  0.74168221998E+02 -0.49838285194E+03  0.52350835719E+03  0.90284123316E+02 0.  0.
          2    1    3    3  502    0 -0.47246275388E+02  0.18307523831E+03  0.92547702368E+02  0.21050850489E+03  0.00000000000E+00 0. -1.
         -1    1    3    3    0  502 -0.41760340428E+02  0.59245750323E+03  0.38987703523E+03  0.71046035904E+03  0.00000000000E+00 0.  1.
         11    1    5    5    0    0 -0.19920317288E+02 -0.17802470546E+03 -0.18827886050E+02  0.18012246969E+03  0.00000000000E+00 0.  1.
        -11    1    5    5    0    0 -0.72426321800E+00 -0.67167625808E+03 -0.23497254729E+03  0.71159090649E+03  0.00000000000E+00 0. -1.
          4    1    6    6  503    0  0.82711419365E+02  0.91635695834E+02 -0.43870774245E+03  0.45574418584E+03  0.00000000000E+00 0. -1.
         -4    1    6    6    0  503  0.26939776957E+02 -0.17467473836E+02 -0.59675109493E+02  0.67764171343E+02  0.00000000000E+00 0.  1.
<mgrwt>
<rscale>  0 0.23205639E+04</rscale>
<asrwt>0</asrwt>
<pdfrwt beam="1">  1        2 0.20045763E+00 0.23205639E+04</pdfrwt>
<pdfrwt beam="2">  1       -1 0.15895631E+00 0.23205639E+04</pdfrwt>
<totfact> 0.50549739E+00</totfact>
</mgrwt>
</event>
<event>
12    6  0.1611689E-007  0.1218618E+04  0.7818608E-02  0.9096714E-01
         -1   -1    0    0    0  501 -0.00000000000E+00  0.00000000000E+00  0.52419064754E+03  0.52419064754E+03  0.00000000000E+00 0.  1.
          2   -1    0    0  501    0  0.00000000000E+00 -0.00000000000E+00 -0.70824908406E+03  0.70824908406E+03  0.00000000000E+00 0. -1.
         24    2    1    2    0    0 -0.45219242843E+02  0.45816124828E+02  0.22180973594E+03  0.24479374072E+03  0.81120400141E+02 0.  0.
        254    2    1    2    0    0  0.45219242843E+02 -0.45816124828E+02 -0.40586817246E+03  0.98764599088E+03  0.89809338750E+03 0.  0.
         23    2    4    4    0    0 -0.75903976266E+02 -0.39804046745E+03  0.18357560877E+02  0.41518583894E+03  0.88570048369E+02 0.  0.
         23    2    4    4    0    0  0.12112321911E+03  0.35222434263E+03 -0.42422573334E+03  0.57246015195E+03  0.94922763324E+02 0.  0.
          4    1    3    3  502    0  0.18086008269E+02  0.12650787607E+02  0.16958743640E+02  0.27834243443E+02  0.00000000000E+00 0. -1.
         -3    1    3    3    0  502 -0.63305251112E+02  0.33165337222E+02  0.20485099230E+03  0.21695949727E+03  0.00000000000E+00 0.  1.
         11    1    5    5    0    0  0.50740031731E+01 -0.17047773678E+03  0.30853319321E+02  0.17332146883E+03  0.00000000000E+00 0. -1.
        -11    1    5    5    0    0 -0.80977979439E+02 -0.22756273068E+03 -0.12495758444E+02  0.24186437011E+03  0.00000000000E+00 0.  1.
          1    1    6    6  503    0  0.94311668697E+02  0.13960465960E+03 -0.21278491635E+03  0.27140665515E+03  0.00000000000E+00 0. -1.
         -1    1    6    6    0  503  0.26811550413E+02  0.21261968302E+03 -0.21144081699E+03  0.30105349679E+03  0.00000000000E+00 0.  1.
<mgrwt>
<rscale>  0 0.12186181E+04</rscale>
<asrwt>0</asrwt>
<pdfrwt beam="1">  1        2 0.10896140E+00 0.12186181E+04</pdfrwt>
<pdfrwt beam="2">  1       -1 0.80644715E-01 0.12186181E+04</pdfrwt>
<totfact> 0.69709719E+01</totfact>
</mgrwt>
</event>
<event>
12    6  0.1611689E-007  0.1245523E+04  0.7818608E-02  0.9073917E-01
          2   -1    0    0  501    0  0.00000000000E+00  0.00000000000E+00  0.34496938300E+03  0.34496938300E+03  0.00000000000E+00 0. -1.
         -1   -1    0    0    0  501 -0.00000000000E+00 -0.00000000000E+00 -0.11242510335E+04  0.11242510335E+04  0.00000000000E+00 0.  1.
         24    2    1    2    0    0  0.18202616281E+03 -0.14382043283E+03  0.35832106689E+01  0.24471571663E+03  0.77814534112E+02 0.  0.
        254    2    1    2    0    0 -0.18202616281E+03  0.14382043283E+03 -0.78286486114E+03  0.12245046999E+04  0.91253302861E+03 0.  0.
         23    2    4    4    0    0  0.12416133806E+03  0.27112657384E+03 -0.82179597531E+03  0.87873962790E+03  0.88932849318E+02 0.  0.
         23    2    4    4    0    0 -0.30618750087E+03 -0.12730614102E+03  0.38931114173E+02  0.34576507195E+03  0.89890011134E+02 0.  0.
          2    1    3    3  502    0  0.78029889244E+02 -0.63563504079E+02  0.40152668433E+02  0.10835690771E+03  0.00000000000E+00 0. -1.
         -1    1    3    3    0  502  0.10399627357E+03 -0.80256928747E+02 -0.36569457764E+02  0.13635880892E+03  0.00000000000E+00 0.  1.
         11    1    5    5    0    0  0.49718844294E+02  0.39726224346E+02 -0.11678475090E+03  0.13299930233E+03  0.00000000000E+00 0. -1.
        -11    1    5    5    0    0  0.74442493767E+02  0.23140034950E+03 -0.70501122442E+03  0.74574032557E+03  0.00000000000E+00 0.  1.
          2    1    6    6  503    0 -0.31045785954E+03 -0.13179885861E+03  0.39287722161E+02  0.33955639707E+03  0.00000000000E+00 0.  1.
         -2    1    6    6    0  503  0.42703586697E+01  0.44927175897E+01 -0.35660798817E+00  0.62086748800E+01  0.00000000000E+00 0. -1.
<mgrwt>
<rscale>  0 0.12455235E+04</rscale>
<asrwt>0</asrwt>
<pdfrwt beam="1">  1        2 0.53072213E-01 0.12455235E+04</pdfrwt>
<pdfrwt beam="2">  1       -1 0.17296170E+00 0.12455235E+04</pdfrwt>
<totfact> 0.24764808E+01</totfact>
</mgrwt>
</event>
<event>
12    6  0.1611689E-007  0.1468274E+04  0.7818608E-02  0.8905829E-01
          2   -1    0    0  501    0  0.00000000000E+00  0.00000000000E+00  0.11335974546E+04  0.11335974546E+04  0.00000000000E+00 0. -1.
         -1   -1    0    0    0  501 -0.00000000000E+00 -0.00000000000E+00 -0.47543963369E+03  0.47543963369E+03  0.00000000000E+00 0.  1.
         24    2    1    2    0    0 -0.16418319555E+03  0.21094899584E+03 -0.20197384816E+03  0.34258652200E+03  0.71529638424E+02 0.  0.
        254    2    1    2    0    0  0.16418319555E+03 -0.21094899584E+03  0.86013166906E+03  0.12664505663E+04  0.89028924971E+03 0.  0.
         23    2    4    4    0    0  0.29739757176E+03 -0.45926145946E+03  0.78166040274E+03  0.95807309474E+03  0.86860035793E+02 0.  0.
         23    2    4    4    0    0 -0.13321437621E+03  0.24831246362E+03  0.78471266318E+02  0.30837747154E+03  0.97641055382E+02 0.  0.
          2    1    3    3  502    0  0.28393110465E+01  0.13471082667E+02  0.10131398332E+01  0.13804282226E+02  0.00000000000E+00 0. -1.
         -1    1    3    3    0  502 -0.16702250659E+03  0.19747791317E+03 -0.20298698799E+03  0.32878223978E+03  0.00000000000E+00 0.  1.
         11    1    5    5    0    0  0.72005249832E+02 -0.15804383469E+03  0.30323084847E+03  0.34944464104E+03  0.00000000000E+00 0.  1.
        -11    1    5    5    0    0  0.22539232192E+03 -0.30121762477E+03  0.47842955428E+03  0.60862845370E+03  0.00000000000E+00 0. -1.
          1    1    6    6  503    0 -0.99261749308E+02  0.22775528825E+03  0.94170674420E+02  0.26569433965E+03  0.00000000000E+00 0. -1.
         -1    1    6    6    0  503 -0.33952626901E+02  0.20557175365E+02 -0.15699408103E+02  0.42683131882E+02  0.00000000000E+00 0.  1.
<mgrwt>
<rscale>  0 0.14682740E+04</rscale>
<asrwt>0</asrwt>
<pdfrwt beam="1">  1        2 0.17439961E+00 0.14682740E+04</pdfrwt>
<pdfrwt beam="2">  1       -1 0.73144559E-01 0.14682740E+04</pdfrwt>
<totfact> 0.43233260E+01</totfact>
</mgrwt>
</event>
<event>
12    6  0.1611689E-007  0.2644488E+04  0.7818608E-02  0.8353245E-01
         -1   -1    0    0    0  501 -0.00000000000E+00  0.00000000000E+00  0.98036642181E+03  0.98036642181E+03  0.00000000000E+00 0.  1.
          2   -1    0    0  501    0  0.00000000000E+00 -0.00000000000E+00 -0.17833425007E+04  0.17833425007E+04  0.00000000000E+00 0. -1.
         24    2    1    2    0    0  0.86084492891E+03 -0.14026975974E+03 -0.11660814049E+04  0.14584075844E+04  0.80481317400E+02 0.  0.
        254    2    1    2    0    0 -0.86084492891E+03  0.14026975974E+03  0.36310532597E+03  0.13053013381E+04  0.90068668711E+03 0.  0.
         23    2    4    4    0    0 -0.10276203094E+03 -0.18020552122E+03 -0.20196997289E+03  0.30275068312E+03  0.88498820891E+02 0.  0.
         23    2    4    4    0    0 -0.75808289796E+03  0.32047528095E+03  0.56507529886E+03  0.10025506550E+04  0.91671350444E+02 0.  0.
          4    1    3    3  502    0  0.82390764671E+03 -0.11754870691E+03 -0.11160911639E+04  0.13922287869E+04  0.00000000000E+00 0. -1.
         -3    1    3    3    0  502  0.36937282191E+02 -0.22721052829E+02 -0.49990240911E+02  0.66178797538E+02  0.00000000000E+00 0.  1.
         11    1    5    5    0    0 -0.24760450449E+02  0.42758432501E+01 -0.25629016817E+02  0.35891631963E+02  0.00000000000E+00 0.  1.
        -11    1    5    5    0    0 -0.78001580495E+02 -0.18448136447E+03 -0.17634095608E+03  0.26685905116E+03  0.00000000000E+00 0. -1.
          4    1    6    6  503    0 -0.70309332040E+03  0.29324312895E+03  0.49081637409E+03  0.90621877212E+03  0.00000000000E+00 0. -1.
         -4    1    6    6    0  503 -0.54989577560E+02  0.27232152002E+02  0.74258924771E+02  0.96331882838E+02  0.00000000000E+00 0.  1.
<mgrwt>
<rscale>  0 0.26444879E+04</rscale>
<asrwt>0</asrwt>
<pdfrwt beam="1">  1        2 0.27436038E+00 0.26444879E+04</pdfrwt>
<pdfrwt beam="2">  1       -1 0.15082560E+00 0.26444879E+04</pdfrwt>
<totfact> 0.30396381E+00</totfact>
</mgrwt>
</event>
<event>
12    6  0.1611689E-007  0.1811545E+04  0.7818608E-02  0.8700184E-01
          2   -1    0    0  501    0  0.00000000000E+00  0.00000000000E+00  0.14536133891E+04  0.14536133891E+04  0.00000000000E+00 0. -1.
         -1   -1    0    0    0  501 -0.00000000000E+00 -0.00000000000E+00 -0.56440297879E+03  0.56440297879E+03  0.00000000000E+00 0.  1.
         24    2    1    2    0    0  0.36651721964E+02  0.66371741046E+03  0.20229723660E+03  0.69927544026E+03  0.78726232924E+02 0.  0.
        254    2    1    2    0    0 -0.36651721964E+02 -0.66371741046E+03  0.68691317367E+03  0.13187409276E+04  0.90849533638E+03 0.  0.
         23    2    4    4    0    0 -0.21089186717E+03 -0.48591820039E+03 -0.45431023610E+02  0.53942959800E+03  0.91260266159E+02 0.  0.
         23    2    4    4    0    0  0.17424014521E+03 -0.17779921007E+03  0.73234419728E+03  0.77931132958E+03  0.95004935689E+02 0.  0.
          2    1    3    3  502    0  0.50506657624E+02  0.45843440652E+03  0.16704476581E+03  0.49052724830E+03  0.00000000000E+00 0. -1.
         -1    1    3    3    0  502 -0.13854935660E+02  0.20528300394E+03  0.35252470783E+02  0.20874819196E+03  0.00000000000E+00 0.  1.
         11    1    5    5    0    0 -0.88857931692E+02 -0.10844601458E+03 -0.23119816896E+02  0.14209432091E+03  0.00000000000E+00 0.  1.
        -11    1    5    5    0    0 -0.12203393548E+03 -0.37747218582E+03 -0.22311206715E+02  0.39733527709E+03  0.00000000000E+00 0. -1.
          3    1    6    6  503    0  0.98239042145E+02 -0.86908382475E+02  0.51856589440E+03  0.53489677806E+03  0.00000000000E+00 0. -1.
         -3    1    6    6    0  503  0.76001103064E+02 -0.90890827592E+02  0.21377830288E+03  0.24441455151E+03  0.00000000000E+00 0.  1.
<mgrwt>
<rscale>  0 0.18115449E+04</rscale>
<asrwt>0</asrwt>
<pdfrwt beam="1">  1        2 0.22363283E+00 0.18115449E+04</pdfrwt>
<pdfrwt beam="2">  1       -1 0.86831228E-01 0.18115449E+04</pdfrwt>
<totfact> 0.18945305E+01</totfact>
</mgrwt>
</event>
<event>
12    6  0.1611689E-007  0.1682714E+04  0.7818608E-02  0.8771285E-01
          2   -1    0    0  501    0  0.00000000000E+00  0.00000000000E+00  0.31915674032E+03  0.31915674032E+03  0.00000000000E+00 0. -1.
         -1   -1    0    0    0  501 -0.00000000000E+00 -0.00000000000E+00 -0.22179750218E+04  0.22179750218E+04  0.00000000000E+00 0.  1.
         24    2    1    2    0    0 -0.37174184336E+03 -0.17162790228E+03 -0.23968985635E+02  0.41756942795E+03  0.78368232960E+02 0.  0.
        254    2    1    2    0    0  0.37174184336E+03  0.17162790228E+03 -0.18748492959E+04  0.21195623342E+04  0.89990914618E+03 0.  0.
         23    2    4    4    0    0  0.85993289644E+02  0.50253023441E+03 -0.12330477549E+04  0.13374199455E+04  0.91399465607E+02 0.  0.
         23    2    4    4    0    0  0.28574855372E+03 -0.33090233213E+03 -0.64180154094E+03  0.78214238870E+03  0.93214316981E+02 0.  0.
          4    1    3    3  502    0 -0.32537029363E+03 -0.16679826573E+03 -0.10871404980E+01  0.36563461448E+03  0.00000000000E+00 0. -1.
         -3    1    3    3    0  502 -0.46371549729E+02 -0.48296365523E+01 -0.22881845137E+02  0.51934813472E+02  0.00000000000E+00 0.  1.
         11    1    5    5    0    0 -0.90909012624E+01  0.14935436924E+03 -0.42114488680E+03  0.44693667088E+03  0.00000000000E+00 0.  1.
        -11    1    5    5    0    0  0.95084190906E+02  0.35317586517E+03 -0.81190286813E+03  0.89048327462E+03  0.00000000000E+00 0. -1.
          2    1    6    6  503    0  0.81849971817E+02 -0.86548450807E+02 -0.25343694178E+03  0.28003631136E+03  0.00000000000E+00 0. -1.
         -2    1    6    6    0  503  0.20389858190E+03 -0.24435388133E+03 -0.38836459916E+03  0.50210607734E+03  0.00000000000E+00 0.  1.
<mgrwt>
<rscale>  0 0.16827141E+04</rscale>
<asrwt>0</asrwt>
<pdfrwt beam="1">  1        2 0.49101039E-01 0.16827141E+04</pdfrwt>
<pdfrwt beam="2">  1       -1 0.34122691E+00 0.16827141E+04</pdfrwt>
<totfact> 0.19901007E+00</totfact>
</mgrwt>
</event>
<event>
12    6  0.1611689E-007  0.3383035E+04  0.7818608E-02  0.8142083E-01
         -1   -1    0    0    0  501 -0.00000000000E+00  0.00000000000E+00  0.22538707004E+04  0.22538707004E+04  0.00000000000E+00 0.  1.
          2   -1    0    0  501    0  0.00000000000E+00 -0.00000000000E+00 -0.12694745243E+04  0.12694745243E+04  0.00000000000E+00 0. -1.
         24    2    1    2    0    0  0.15307964887E+04  0.19108120017E+02  0.94812083121E+02  0.15357608869E+04  0.76610447582E+02 0.  0.
        254    2    1    2    0    0 -0.15307964887E+04 -0.19108120017E+02  0.88958409297E+03  0.19875843379E+04  0.90301087013E+03 0.  0.
         23    2    4    4    0    0 -0.80273975007E+03  0.40916012094E+03  0.30177764615E+03  0.95455061035E+03  0.91071450541E+02 0.  0.
         23    2    4    4    0    0 -0.72805673862E+03 -0.42826824096E+03  0.58780644682E+03  0.10330337275E+04  0.90343579507E+02 0.  0.
          2    1    3    3  502    0  0.19946061546E+03 -0.10282277914E+01 -0.13195394971E+02  0.19989925668E+03  0.00000000000E+00 0. -1.
         -1    1    3    3    0  502  0.13313358732E+04  0.20136347808E+02  0.10800747809E+03  0.13358616302E+04  0.00000000000E+00 0.  1.
         11    1    5    5    0    0 -0.79395351792E+03  0.41002982065E+03  0.28926039244E+03  0.93923278109E+03  0.00000000000E+00 0.  1.
        -11    1    5    5    0    0 -0.87862321457E+01 -0.86969971123E+00  0.12517253705E+02  0.15317829259E+02  0.00000000000E+00 0. -1.
          3    1    6    6  503    0 -0.13254367822E+03 -0.39556483383E+02  0.92738449692E+02  0.16653216525E+03  0.00000000000E+00 0. -1.
         -3    1    6    6    0  503 -0.59551306040E+03 -0.38871175758E+03  0.49506799713E+03  0.86650156224E+03  0.00000000000E+00 0.  1.
<mgrwt>
<rscale>  0 0.33830350E+04</rscale>
<asrwt>0</asrwt>
<pdfrwt beam="1">  1        2 0.19530377E+00 0.33830350E+04</pdfrwt>
<pdfrwt beam="2">  1       -1 0.34674934E+00 0.33830350E+04</pdfrwt>
<totfact> 0.26566532E-01</totfact>
</mgrwt>
</event>
<event>
12    6  0.1611689E-007  0.1821459E+04  0.7818608E-02  0.8694970E-01
         -1   -1    0    0    0  501 -0.00000000000E+00  0.00000000000E+00  0.14925276841E+04  0.14925276841E+04  0.00000000000E+00 0.  1.
          2   -1    0    0  501    0  0.00000000000E+00 -0.00000000000E+00 -0.55572045784E+03  0.55572045784E+03  0.00000000000E+00 0. -1.
         24    2    1    2    0    0  0.77765679569E+02  0.66956387586E+03  0.32052746722E+03  0.75054799150E+03  0.78874238631E+02 0.  0.
        254    2    1    2    0    0 -0.77765679569E+02 -0.66956387586E+03  0.61627975900E+03  0.12977001504E+04  0.92187941415E+03 0.  0.
         23    2    4    4    0    0 -0.10313484092E+03 -0.35373323702E+03 -0.19132890312E+03  0.42532620749E+03  0.92366851312E+02 0.  0.
         23    2    4    4    0    0  0.25369161352E+02 -0.31583063885E+03  0.80760866212E+03  0.87237394292E+03  0.91716728961E+02 0.  0.
          4    1    3    3  502    0  0.74579057958E+01  0.29253185468E+03  0.10695034837E+03  0.31155879602E+03  0.00000000000E+00 0. -1.
         -3    1    3    3    0  502  0.70307773773E+02  0.37703202119E+03  0.21357711884E+03  0.43898919548E+03  0.00000000000E+00 0.  1.
         11    1    5    5    0    0 -0.95237001387E+02 -0.33664674435E+03 -0.20169808288E+03  0.40383565166E+03  0.00000000000E+00 0. -1.
        -11    1    5    5    0    0 -0.78978395343E+01 -0.17086492665E+02  0.10369179754E+02  0.21490555825E+02  0.00000000000E+00 0.  1.
          3    1    6    6  503    0  0.26518560081E+02 -0.31011211167E+03  0.71777848860E+03  0.78235459641E+03  0.00000000000E+00 0. -1.
         -3    1    6    6    0  503 -0.11493987291E+01 -0.57185271768E+01  0.89830173527E+02  0.90019346512E+02  0.00000000000E+00 0.  1.
<mgrwt>
<rscale>  0 0.18214589E+04</rscale>
<asrwt>0</asrwt>
<pdfrwt beam="1">  1        2 0.85495456E-01 0.18214589E+04</pdfrwt>
<pdfrwt beam="2">  1       -1 0.22961964E+00 0.18214589E+04</pdfrwt>
<totfact> 0.55582490E+00</totfact>
</mgrwt>
</event>
<event>
12    6  0.1611689E-007  0.2740695E+04  0.7818608E-02  0.8321920E-01
          2   -1    0    0  501    0  0.00000000000E+00  0.00000000000E+00  0.14360034246E+04  0.14360034246E+04  0.00000000000E+00 0. -1.
         -1   -1    0    0    0  501 -0.00000000000E+00 -0.00000000000E+00 -0.13076935452E+04  0.13076935452E+04  0.00000000000E+00 0.  1.
         24    2    1    2    0    0 -0.31358725040E+03  0.10494725703E+04  0.55867469900E+03  0.12322097107E+04  0.80583573813E+02 0.  0.
        254    2    1    2    0    0  0.31358725040E+03 -0.10494725703E+04 -0.43036481964E+03  0.15114872592E+04  0.94849892849E+03 0.  0.
         23    2    4    4    0    0  0.33072778642E+03  0.27197514689E+01  0.59599934940E+02  0.34706964802E+03  0.86700187864E+02 0.  0.
         23    2    4    4    0    0 -0.17140536017E+02 -0.10521923218E+04 -0.48996475458E+03  0.11644176112E+04  0.91653873687E+02 0.  0.
          4    1    3    3  502    0 -0.20874856972E+03  0.74716449566E+03  0.43305298529E+03  0.88846251300E+03  0.00000000000E+00 0. -1.
         -3    1    3    3    0  502 -0.10483868068E+03  0.30230807463E+03  0.12562171371E+03  0.34374719767E+03  0.00000000000E+00 0.  1.
         11    1    5    5    0    0  0.15871575334E+03  0.47652209235E+01  0.72514020825E+02  0.17456139581E+03  0.00000000000E+00 0. -1.
        -11    1    5    5    0    0  0.17201203307E+03 -0.20454694546E+01 -0.12914085885E+02  0.17250825221E+03  0.00000000000E+00 0.  1.
          4    1    6    6  503    0  0.20117808879E+02 -0.85740691185E+03 -0.38603325778E+03  0.94051741868E+03  0.00000000000E+00 0. -1.
         -4    1    6    6    0  503 -0.37258344896E+02 -0.19478540990E+03 -0.10393149680E+03  0.22390019250E+03  0.00000000000E+00 0.  1.
<mgrwt>
<rscale>  0 0.27406951E+04</rscale>
<asrwt>0</asrwt>
<pdfrwt beam="1">  1        2 0.22092360E+00 0.27406951E+04</pdfrwt>
<pdfrwt beam="2">  1       -1 0.20118362E+00 0.27406951E+04</pdfrwt>
<totfact> 0.20301109E+00</totfact>
</mgrwt>
</event>
<event>
12    6  0.1611689E-007  0.1681079E+04  0.7818608E-02  0.8772230E-01
          2   -1    0    0  501    0  0.00000000000E+00  0.00000000000E+00  0.24050115776E+04  0.24050115776E+04  0.00000000000E+00 0. -1.
         -1   -1    0    0    0  501 -0.00000000000E+00 -0.00000000000E+00 -0.29376432975E+03  0.29376432975E+03  0.00000000000E+00 0.  1.
         24    2    1    2    0    0  0.48545328927E+03  0.11070873377E+03  0.29093880701E+03  0.58251798056E+03  0.82222189533E+02 0.  0.
        254    2    1    2    0    0 -0.48545328927E+03 -0.11070873377E+03  0.18203084409E+04  0.21162579268E+04  0.95765519530E+03 0.  0.
         23    2    4    4    0    0  0.15265753078E+03  0.18369380782E+03  0.13977011512E+03  0.29208936324E+03  0.93449314105E+02 0.  0.
         23    2    4    4    0    0 -0.63811082005E+03 -0.29440254159E+03  0.16805383257E+04  0.18241685636E+04  0.97588979066E+02 0.  0.
          2    1    3    3  502    0  0.91228020015E+02  0.53553743746E+02  0.50375281076E+02  0.11716750424E+03  0.00000000000E+00 0. -1.
         -1    1    3    3    0  502  0.39422526926E+03  0.57154990028E+02  0.24056352593E+03  0.46535047632E+03  0.00000000000E+00 0.  1.
         11    1    5    5    0    0  0.12503548168E+03  0.12029295084E+03  0.13998061697E+03  0.22293236380E+03  0.00000000000E+00 0.  1.
        -11    1    5    5    0    0  0.27622049100E+02  0.63400856973E+02 -0.21050185148E+00  0.69156999446E+02  0.00000000000E+00 0. -1.
          4    1    6    6  503    0 -0.55780057538E+03 -0.27825210456E+03  0.15419155744E+04  0.16631504304E+04  0.00000000000E+00 0. -1.
         -4    1    6    6    0  503 -0.80310244668E+02 -0.16150437030E+02  0.13862275137E+03  0.16101813318E+03  0.00000000000E+00 0.  1.
<mgrwt>
<rscale>  0 0.16810790E+04</rscale>
<asrwt>0</asrwt>
<pdfrwt beam="1">  1        2 0.37000177E+00 0.16810790E+04</pdfrwt>
<pdfrwt beam="2">  1       -1 0.45194514E-01 0.16810790E+04</pdfrwt>
<totfact> 0.20847091E+01</totfact>
</mgrwt>
</event>
<event>
12    6  0.1611689E-007  0.1170035E+04  0.7818608E-02  0.9139496E-01
          2   -1    0    0  501    0  0.00000000000E+00  0.00000000000E+00  0.20794612837E+04  0.20794612837E+04  0.00000000000E+00 0. -1.
         -1   -1    0    0    0  501 -0.00000000000E+00 -0.00000000000E+00 -0.16458385645E+03  0.16458385645E+03  0.00000000000E+00 0.  1.
         24    2    1    2    0    0 -0.92210958900E+02 -0.21169288661E+03  0.35412894531E+03  0.42930069780E+03  0.74666190792E+02 0.  0.
        254    2    1    2    0    0  0.92210958900E+02  0.21169288661E+03  0.15607484820E+04  0.18147444424E+04  0.89668546769E+03 0.  0.
         23    2    4    4    0    0  0.24572736856E+03 -0.24283712345E+03  0.31339574207E+03  0.47501551169E+03  0.89838950450E+02 0.  0.
         23    2    4    4    0    0 -0.15351640966E+03  0.45453001006E+03  0.12473527399E+04  0.13397289307E+04  0.93914492357E+02 0.  0.
          4    1    3    3  502    0 -0.90545374316E+02 -0.17259211469E+03  0.33019629470E+03  0.38342678036E+03  0.00000000000E+00 0. -1.
         -3    1    3    3    0  502 -0.16655845844E+01 -0.39100771915E+02  0.23932650608E+02  0.45873917442E+02  0.00000000000E+00 0.  1.
         11    1    5    5    0    0  0.21875622975E+03 -0.20800024716E+03  0.30691769525E+03  0.43048445097E+03  0.00000000000E+00 0.  1.
        -11    1    5    5    0    0  0.26971138809E+02 -0.34836876291E+02  0.64780468216E+01  0.44531060722E+02  0.00000000000E+00 0. -1.
          2    1    6    6  503    0 -0.52121121217E+02  0.12691126657E+03  0.48007141125E+03  0.49929113828E+03  0.00000000000E+00 0. -1.
         -2    1    6    6    0  503 -0.10139528844E+03  0.32761874348E+03  0.76728132866E+03  0.84043779241E+03  0.00000000000E+00 0.  1.
<mgrwt>
<rscale>  0 0.11700355E+04</rscale>
<asrwt>0</asrwt>
<pdfrwt beam="1">  1        2 0.31991710E+00 0.11700355E+04</pdfrwt>
<pdfrwt beam="2">  1       -1 0.25320595E-01 0.11700355E+04</pdfrwt>
<totfact> 0.93315110E+01</totfact>
</mgrwt>
</event>
<event>
12    6  0.1611689E-007  0.1328585E+04  0.7818608E-02  0.9007199E-01
          2   -1    0    0  501    0  0.00000000000E+00  0.00000000000E+00  0.30593554301E+04  0.30593554301E+04  0.00000000000E+00 0. -1.
         -1   -1    0    0    0  501 -0.00000000000E+00 -0.00000000000E+00 -0.14424106652E+03  0.14424106652E+03  0.00000000000E+00 0.  1.
         24    2    1    2    0    0  0.45332122851E+02 -0.16451406906E+03  0.48829136252E+02  0.19465701965E+03  0.79919900351E+02 0.  0.
        254    2    1    2    0    0 -0.45332122851E+02  0.16451406906E+03  0.28662852273E+04  0.30089394769E+04  0.89944754784E+03 0.  0.
         23    2    4    4    0    0 -0.80145830843E+02  0.14733565497E+03  0.58337425934E+02  0.19922471198E+03  0.90311024635E+02 0.  0.
         23    2    4    4    0    0  0.34813707992E+02  0.17178414093E+02  0.28079478013E+04  0.28097147649E+04  0.91755724832E+02 0.  0.
          2    1    3    3  502    0  0.47636004085E+02 -0.37201303653E+02  0.81776691100E+01  0.60991803964E+02  0.00000000000E+00 0. -1.
         -1    1    3    3    0  502 -0.23038812342E+01 -0.12731276541E+03  0.40651467142E+02  0.13366521569E+03  0.00000000000E+00 0.  1.
         11    1    5    5    0    0 -0.13604280885E+01  0.96318356957E+02  0.23929988097E+02  0.99255836008E+02  0.00000000000E+00 0. -1.
        -11    1    5    5    0    0 -0.78785402755E+02  0.51017298012E+02  0.34407437837E+02  0.99968875967E+02  0.00000000000E+00 0.  1.
          1    1    6    6  503    0  0.24975366945E+01  0.12830805547E+02  0.53492180700E+02  0.55066148009E+02  0.00000000000E+00 0. -1.
         -1    1    6    6    0  503  0.32316171297E+02  0.43476085462E+01  0.27544556206E+04  0.27546486169E+04  0.00000000000E+00 0.  1.
<mgrwt>
<rscale>  0 0.13285852E+04</rscale>
<asrwt>0</asrwt>
<pdfrwt beam="1">  1        2 0.47067002E+00 0.13285852E+04</pdfrwt>
<pdfrwt beam="2">  1       -1 0.22190935E-01 0.13285852E+04</pdfrwt>
<totfact> 0.30906970E+01</totfact>
</mgrwt>
</event>
<event>
12    6  0.1611689E-007  0.1379111E+04  0.7818608E-02  0.8969079E-01
          2   -1    0    0  501    0  0.00000000000E+00  0.00000000000E+00  0.11140266042E+04  0.11140266042E+04  0.00000000000E+00 0. -1.
         -1   -1    0    0    0  501 -0.00000000000E+00 -0.00000000000E+00 -0.42681843557E+03  0.42681843557E+03  0.00000000000E+00 0.  1.
         24    2    1    2    0    0 -0.24323231275E+02 -0.13751964481E+03 -0.20931562925E+03  0.26355812041E+03  0.78400114134E+02 0.  0.
        254    2    1    2    0    0  0.24323231275E+02  0.13751964481E+03  0.89652379789E+03  0.12772869194E+04  0.89900149161E+03 0.  0.
         23    2    4    4    0    0  0.26533627921E+03  0.41471643726E+03  0.66713667902E+03  0.83456103947E+03  0.95014292141E+02 0.  0.
         23    2    4    4    0    0 -0.24101304794E+03 -0.27719679245E+03  0.22938711887E+03  0.44272587989E+03  0.91991322440E+02 0.  0.
          4    1    3    3  502    0  0.66200402297E+01  0.69229182325E+01 -0.34577920252E+01  0.10183715196E+02  0.00000000000E+00 0. -1.
         -3    1    3    3    0  502 -0.30943271504E+02 -0.14444256304E+03 -0.20585783722E+03  0.25337440521E+03  0.00000000000E+00 0.  1.
         11    1    5    5    0    0  0.10229690320E+03  0.10343802310E+03  0.14669763795E+03  0.20660173767E+03  0.00000000000E+00 0.  1.
        -11    1    5    5    0    0  0.16303937601E+03  0.31127841416E+03  0.52043904107E+03  0.62795930180E+03  0.00000000000E+00 0. -1.
          3    1    6    6  503    0 -0.24742856762E+03 -0.27631211251E+03  0.21974751324E+03  0.43111280330E+03  0.00000000000E+00 0. -1.
         -3    1    6    6    0  503  0.64155196816E+01 -0.88467994374E+00  0.96396056245E+01  0.11613076594E+02  0.00000000000E+00 0.  1.
<mgrwt>
<rscale>  0 0.13791114E+04</rscale>
<asrwt>0</asrwt>
<pdfrwt beam="1">  1        2 0.17138871E+00 0.13791114E+04</pdfrwt>
<pdfrwt beam="2">  1       -1 0.65664375E-01 0.13791114E+04</pdfrwt>
<totfact> 0.55817413E+01</totfact>
</mgrwt>
</event>
<event>
12    6  0.1611689E-007  0.1935924E+04  0.7818608E-02  0.8637178E-01
         -1   -1    0    0    0  501 -0.00000000000E+00  0.00000000000E+00  0.91695919256E+03  0.91695919256E+03  0.00000000000E+00 0.  1.
          2   -1    0    0  501    0  0.00000000000E+00 -0.00000000000E+00 -0.10218021858E+04  0.10218021858E+04  0.00000000000E+00 0. -1.
         24    2    1    2    0    0  0.18499363823E+03  0.48200991729E+03  0.49306277856E+03  0.71830917992E+03  0.79378635659E+02 0.  0.
        254    2    1    2    0    0 -0.18499363823E+03 -0.48200991729E+03 -0.59790577182E+03  0.12204521985E+04  0.93029890369E+03 0.  0.
         23    2    4    4    0    0 -0.34894922435E+03 -0.31943585221E+03 -0.77739413494E+03  0.91427650481E+03  0.88062826197E+02 0.  0.
         23    2    4    4    0    0  0.16395558612E+03 -0.16257406508E+03  0.17948836311E+03  0.30617569365E+03  0.90640620226E+02 0.  0.
          4    1    3    3  502    0  0.54088167819E+02  0.14732818749E+03  0.20231221403E+03  0.25604951996E+03  0.00000000000E+00 0. -1.
         -3    1    3    3    0  502  0.13090547041E+03  0.33468172981E+03  0.29075056453E+03  0.46225965996E+03  0.00000000000E+00 0.  1.
         11    1    5    5    0    0 -0.50834097648E+02 -0.52784836212E+02 -0.18995476383E+03  0.20360048310E+03  0.00000000000E+00 0. -1.
        -11    1    5    5    0    0 -0.29811512670E+03 -0.26665101600E+03 -0.58743937111E+03  0.71067602171E+03  0.00000000000E+00 0.  1.
          1    1    6    6  503    0 -0.43466015033E+01  0.78996514385E+00 -0.57845357266E+01  0.72785879901E+01  0.00000000000E+00 0. -1.
         -1    1    6    6    0  503  0.16830218762E+03 -0.16336403022E+03  0.18527289884E+03  0.29889710566E+03  0.00000000000E+00 0.  1.
<mgrwt>
<rscale>  0 0.19359245E+04</rscale>
<asrwt>0</asrwt>
<pdfrwt beam="1">  1        2 0.15720034E+00 0.19359245E+04</pdfrwt>
<pdfrwt beam="2">  1       -1 0.14107064E+00 0.19359245E+04</pdfrwt>
<totfact> 0.10676519E+01</totfact>
</mgrwt>
</event>
<event>
12    6  0.1611689E-007  0.1555182E+04  0.7818608E-02  0.8848564E-01
         -1   -1    0    0    0  501 -0.00000000000E+00  0.00000000000E+00  0.60867200630E+03  0.60867200630E+03  0.00000000000E+00 0.  1.
          2   -1    0    0  501    0  0.00000000000E+00 -0.00000000000E+00 -0.99338868299E+03  0.99338868299E+03  0.00000000000E+00 0. -1.
         24    2    1    2    0    0 -0.11217053089E+03 -0.49549568488E+03 -0.19756560441E+03  0.55079101136E+03  0.78996002497E+02 0.  0.
        254    2    1    2    0    0  0.11217053089E+03  0.49549568488E+03 -0.18715107228E+03  0.10512696779E+04  0.90113495668E+03 0.  0.
         23    2    4    4    0    0 -0.26809301450E+02  0.69424687796E+03 -0.30635668204E+03  0.76475504328E+03  0.91095517968E+02 0.  0.
         23    2    4    4    0    0  0.13897983234E+03 -0.19875119308E+03  0.11920560976E+03  0.28651463465E+03  0.95200986982E+02 0.  0.
          4    1    3    3  502    0 -0.99304674451E+02 -0.26268252205E+03 -0.10145260895E+03  0.29859028387E+03  0.00000000000E+00 0. -1.
         -3    1    3    3    0  502 -0.12865856440E+02 -0.23281316283E+03 -0.96112995461E+02  0.25220072749E+03  0.00000000000E+00 0.  1.
         11    1    5    5    0    0 -0.32203366883E+02  0.57649090213E+03 -0.28875674806E+03  0.64556895575E+03  0.00000000000E+00 0.  1.
        -11    1    5    5    0    0  0.53940654325E+01  0.11775597583E+03 -0.17599933983E+02  0.11918608753E+03  0.00000000000E+00 0. -1.
          2    1    6    6  503    0  0.80711665009E+02 -0.12711043234E+03  0.21538320276E+02  0.15210303784E+03  0.00000000000E+00 0. -1.
         -2    1    6    6    0  503  0.58268167332E+02 -0.71640760740E+02  0.97667289481E+02  0.13441159681E+03  0.00000000000E+00 0.  1.
<mgrwt>
<rscale>  0 0.15551822E+04</rscale>
<asrwt>0</asrwt>
<pdfrwt beam="1">  1        2 0.15282903E+00 0.15551822E+04</pdfrwt>
<pdfrwt beam="2">  1       -1 0.93641847E-01 0.15551822E+04</pdfrwt>
<totfact> 0.30890429E+01</totfact>
</mgrwt>
</event>
<event>
12    6  0.1611689E-007  0.1401589E+04  0.7818608E-02  0.8952669E-01
          2   -1    0    0  501    0  0.00000000000E+00  0.00000000000E+00  0.71915707031E+03  0.71915707031E+03  0.00000000000E+00 0. -1.
         -1   -1    0    0    0  501 -0.00000000000E+00 -0.00000000000E+00 -0.68290066574E+03  0.68290066574E+03  0.00000000000E+00 0.  1.
         24    2    1    2    0    0  0.28853864803E+03  0.55317749011E+01  0.28833951092E+03  0.41569313987E+03  0.79849615108E+02 0.  0.
        254    2    1    2    0    0 -0.28853864803E+03 -0.55317749011E+01 -0.25208310635E+03  0.98636459618E+03  0.90889167239E+03 0.  0.
         23    2    4    4    0    0 -0.17362410206E+03 -0.86697220425E+02  0.32251502011E+03  0.38713264010E+03  0.90520748925E+02 0.  0.
         23    2    4    4    0    0 -0.11491454597E+03  0.81165445524E+02 -0.57459812646E+03  0.59923195608E+03  0.95513076751E+02 0.  0.
          4    1    3    3  502    0  0.28134604230E+03  0.18655888113E+02  0.28379139272E+03  0.40005148701E+03  0.00000000000E+00 0. -1.
         -3    1    3    3    0  502  0.71926057337E+01 -0.13124113212E+02  0.45481181977E+01  0.15641652854E+02  0.00000000000E+00 0.  1.
         11    1    5    5    0    0 -0.41958621529E+02  0.17348702021E+02  0.84198919055E+02  0.95660657287E+02  0.00000000000E+00 0.  1.
        -11    1    5    5    0    0 -0.13166548053E+03 -0.10404592245E+03  0.23831610106E+03  0.29147198281E+03  0.00000000000E+00 0. -1.
          3    1    6    6  503    0 -0.69628472430E+02  0.96747544391E+02 -0.35517563427E+03  0.37464375438E+03  0.00000000000E+00 0. -1.
         -3    1    6    6    0  503 -0.45286073545E+02 -0.15582098867E+02 -0.21942249219E+03  0.22458820170E+03  0.00000000000E+00 0.  1.
<mgrwt>
<rscale>  0 0.14015889E+04</rscale>
<asrwt>0</asrwt>
<pdfrwt beam="1">  1        2 0.11063955E+00 0.14015889E+04</pdfrwt>
<pdfrwt beam="2">  1       -1 0.10506164E+00 0.14015889E+04</pdfrwt>
<totfact> 0.37425737E+01</totfact>
</mgrwt>
</event>
<event>
12    6  0.1611689E-007  0.1390804E+04  0.7818608E-02  0.8960502E-01
         -1   -1    0    0    0  501 -0.00000000000E+00  0.00000000000E+00  0.28909014254E+03  0.28909014254E+03  0.00000000000E+00 0.  1.
          2   -1    0    0  501    0  0.00000000000E+00 -0.00000000000E+00 -0.16727801580E+04  0.16727801580E+04  0.00000000000E+00 0. -1.
         24    2    1    2    0    0  0.36824245803E+03  0.66438987908E+02 -0.61108490579E+03  0.72098450566E+03  0.79857675314E+02 0.  0.
        254    2    1    2    0    0 -0.36824245803E+03 -0.66438987908E+02 -0.77260510970E+03  0.12408857949E+04  0.89602581072E+03 0.  0.
         23    2    4    4    0    0 -0.44631520144E+03 -0.14993295744E+03 -0.91686850207E+03  0.10348884560E+04  0.93108085280E+02 0.  0.
         23    2    4    4    0    0  0.78072743410E+02  0.83493969536E+02  0.14426339238E+03  0.20599733889E+03  0.92500708320E+02 0.  0.
          2    1    3    3  502    0  0.30544907817E+03  0.34796503410E+02 -0.44745959357E+03  0.54289043451E+03  0.00000000000E+00 0. -1.
         -1    1    3    3    0  502  0.62793379862E+02  0.31642484498E+02 -0.16362531223E+03  0.17809407116E+03  0.00000000000E+00 0.  1.
         11    1    5    5    0    0 -0.33871481487E+02 -0.30118000209E+02 -0.50197705232E+02  0.67632690359E+02  0.00000000000E+00 0.  1.
        -11    1    5    5    0    0 -0.41244371996E+03 -0.11981495724E+03 -0.86667079684E+03  0.96725576566E+03  0.00000000000E+00 0. -1.
          4    1    6    6  503    0  0.57317417044E+02  0.93589387357E+02  0.14623177879E+03  0.18283323782E+03  0.00000000000E+00 0. -1.
         -4    1    6    6    0  503  0.20755326366E+02 -0.10095417821E+02 -0.19683864184E+01  0.23164101075E+02  0.00000000000E+00 0.  1.
<mgrwt>
<rscale>  0 0.13908044E+04</rscale>
<asrwt>0</asrwt>
<pdfrwt beam="1">  1        2 0.25735080E+00 0.13908044E+04</pdfrwt>
<pdfrwt beam="2">  1       -1 0.44475406E-01 0.13908044E+04</pdfrwt>
<totfact> 0.56404730E+01</totfact>
</mgrwt>
</event>
<event>
12    6  0.1611689E-007  0.1435106E+04  0.7818608E-02  0.8928792E-01
         -1   -1    0    0    0  501 -0.00000000000E+00  0.00000000000E+00  0.24872433905E+03  0.24872433905E+03  0.00000000000E+00 0.  1.
          2   -1    0    0  501    0  0.00000000000E+00 -0.00000000000E+00 -0.20700932289E+04  0.20700932289E+04  0.00000000000E+00 0. -1.
         24    2    1    2    0    0 -0.30595987514E+03 -0.41651887486E+02 -0.73057469082E+02  0.32714087563E+03  0.79608000810E+02 0.  0.
        254    2    1    2    0    0  0.30595987514E+03  0.41651887486E+02 -0.17483114207E+04  0.19916766923E+04  0.90268316578E+03 0.  0.
         23    2    4    4    0    0  0.51721501851E+03  0.17539009605E+03 -0.61666676074E+03  0.82896912020E+03  0.92945399476E+02 0.  0.
         23    2    4    4    0    0 -0.21125514337E+03 -0.13373820856E+03 -0.11316446600E+04  0.11627075721E+04  0.93566113793E+02 0.  0.
          2    1    3    3  502    0 -0.11489567796E+03 -0.41063148137E+02 -0.59082796475E+02  0.13556539303E+03  0.00000000000E+00 0. -1.
         -1    1    3    3    0  502 -0.19106419718E+03 -0.58873934847E+00 -0.13974672607E+02  0.19157548260E+03  0.00000000000E+00 0.  1.
         11    1    5    5    0    0  0.29375539003E+03  0.81134706627E+02 -0.40649077599E+03  0.50804509717E+03  0.00000000000E+00 0. -1.
        -11    1    5    5    0    0  0.22345962848E+03  0.94255389419E+02 -0.21017598475E+03  0.32092402303E+03  0.00000000000E+00 0.  1.
          1    1    6    6  503    0 -0.19720017482E+03 -0.97717096494E+02 -0.83351978223E+03  0.86208570761E+03  0.00000000000E+00 0. -1.
         -1    1    6    6    0  503 -0.14054968545E+02 -0.36021112067E+02 -0.29812487775E+03  0.30062186446E+03  0.00000000000E+00 0.  1.
<mgrwt>
<rscale>  0 0.14351064E+04</rscale>
<asrwt>0</asrwt>
<pdfrwt beam="1">  1        2 0.31847589E+00 0.14351064E+04</pdfrwt>
<pdfrwt beam="2">  1       -1 0.38265281E-01 0.14351064E+04</pdfrwt>
<totfact> 0.44633811E+01</totfact>
</mgrwt>
</event>
<event>
12    6  0.1611689E-007  0.1400237E+04  0.7818608E-02  0.8953647E-01
         -1   -1    0    0    0  501 -0.00000000000E+00  0.00000000000E+00  0.96419713957E+03  0.96419713957E+03  0.00000000000E+00 0.  1.
          2   -1    0    0  501    0  0.00000000000E+00 -0.00000000000E+00 -0.50836696767E+03  0.50836696767E+03  0.00000000000E+00 0. -1.
         24    2    1    2    0    0  0.16547615764E+03  0.26283109456E+03 -0.17592604411E+03  0.36529288531E+03  0.77629736862E+02 0.  0.
        254    2    1    2    0    0 -0.16547615764E+03 -0.26283109456E+03  0.63175621600E+03  0.11072712219E+04  0.85467602017E+03 0.  0.
         23    2    4    4    0    0 -0.61910373234E+02 -0.81205148243E+02  0.80766986063E+03  0.81923548760E+03  0.91591538713E+02 0.  0.
         23    2    4    4    0    0 -0.10356578441E+03 -0.18162594632E+03 -0.17591364463E+03  0.28803573433E+03  0.91132419089E+02 0.  0.
          2    1    3    3  502    0  0.90507739749E+02  0.82673357603E+02 -0.46335510579E+02  0.13104775676E+03  0.00000000000E+00 0. -1.
         -1    1    3    3    0  502  0.74968417894E+02  0.18015773696E+03 -0.12959053353E+03  0.23424512855E+03  0.00000000000E+00 0.  1.
         11    1    5    5    0    0 -0.28000534645E+02 -0.16753580671E+02  0.62406445050E+02  0.70422132810E+02  0.00000000000E+00 0. -1.
        -11    1    5    5    0    0 -0.33909838589E+02 -0.64451567571E+02  0.74526341558E+03  0.74881335479E+03  0.00000000000E+00 0.  1.
          1    1    6    6  503    0 -0.16746404106E+02 -0.12057640090E+03 -0.10009959560E+03  0.15760405941E+03  0.00000000000E+00 0. -1.
         -1    1    6    6    0  503 -0.86819380302E+02 -0.61049545424E+02 -0.75814049025E+02  0.13043167492E+03  0.00000000000E+00 0.  1.
<mgrwt>
<rscale>  0 0.14002371E+04</rscale>
<asrwt>0</asrwt>
<pdfrwt beam="1">  1        2 0.78210303E-01 0.14002371E+04</pdfrwt>
<pdfrwt beam="2">  1       -1 0.14833802E+00 0.14002371E+04</pdfrwt>
<totfact> 0.24167472E+01</totfact>
</mgrwt>
</event>
<event>
12    6  0.1647718E-007  0.1391650E+04  0.7818608E-02  0.8959885E-01
         -1   -1    0    0    0  501 -0.00000000000E+00  0.00000000000E+00  0.31161782818E+03  0.31161782818E+03  0.00000000000E+00 0.  1.
          2   -1    0    0  501    0  0.00000000000E+00 -0.00000000000E+00 -0.15537387642E+04  0.15537387642E+04  0.00000000000E+00 0. -1.
         24    2    1    2    0    0  0.18829663553E+03 -0.27598289606E+02 -0.83007400586E+03  0.85550441733E+03  0.81533209962E+02 0.  0.
        254    2    1    2    0    0 -0.18829663553E+03  0.27598289606E+02 -0.41204693020E+03  0.10098521751E+04  0.90210944697E+03 0.  0.
         23    2    4    4    0    0 -0.24098130115E+03 -0.20129450935E+03  0.17507993786E+03  0.37098906951E+03  0.91588416634E+02 0.  0.
         23    2    4    4    0    0  0.52684665620E+02  0.22889279896E+03 -0.58712686805E+03  0.63886310557E+03  0.90887408740E+02 0.  0.
          2    1    3    3  502    0  0.19463224038E+03 -0.34475959466E+02 -0.79526981342E+03  0.81946590955E+03  0.00000000000E+00 0. -1.
         -1    1    3    3    0  502 -0.63356048564E+01  0.68776698600E+01 -0.34804192440E+02  0.36038507780E+02  0.00000000000E+00 0.  1.
         11    1    5    5    0    0 -0.10698974570E+03 -0.94797954446E+02  0.28756196520E+02  0.14580938478E+03  0.00000000000E+00 0. -1.
        -11    1    5    5    0    0 -0.13399155545E+03 -0.10649655491E+03  0.14632374134E+03  0.22517968474E+03  0.00000000000E+00 0.  1.
          2    1    6    6  503    0  0.71874496159E+02  0.16328126526E+03 -0.36177081046E+03  0.40336687282E+03  0.00000000000E+00 0. -1.
         -2    1    6    6    0  503 -0.19189830538E+02  0.65611533698E+02 -0.22535605759E+03  0.23549623276E+03  0.00000000000E+00 0.  1.
<mgrwt>
<rscale>  0 0.13916504E+04</rscale>
<asrwt>0</asrwt>
<pdfrwt beam="1">  1        2 0.23903673E+00 0.13916504E+04</pdfrwt>
<pdfrwt beam="2">  1       -1 0.47941204E-01 0.13916504E+04</pdfrwt>
<totfact> 0.57106054E+01</totfact>
</mgrwt>
</event>
<event>
12    6  0.1611689E-007  0.1703652E+04  0.7818608E-02  0.8759284E-01
         -1   -1    0    0    0  501 -0.00000000000E+00  0.00000000000E+00  0.43853166319E+03  0.43853166319E+03  0.00000000000E+00 0.  1.
          2   -1    0    0  501    0  0.00000000000E+00 -0.00000000000E+00 -0.16546302991E+04  0.16546302991E+04  0.00000000000E+00 0. -1.
         24    2    1    2    0    0 -0.11459411326E+03  0.49928409974E+03 -0.28443967712E+02  0.51886875056E+03  0.77455135196E+02 0.  0.
        254    2    1    2    0    0  0.11459411326E+03 -0.49928409974E+03 -0.11876546682E+04  0.15742932117E+04  0.89747372248E+03 0.  0.
         23    2    4    4    0    0 -0.10589020460E+03  0.86752785598E+02 -0.83405285742E+03  0.85002500780E+03  0.90330303228E+02 0.  0.
         23    2    4    4    0    0  0.22048431786E+03 -0.58603688534E+03 -0.35360181078E+03  0.72426820392E+03  0.86473263119E+02 0.  0.
          2    1    3    3  502    0 -0.22064257706E+02  0.20506446667E+02  0.26692253440E+01  0.30240214731E+02  0.00000000000E+00 0. -1.
         -1    1    3    3    0  502 -0.92529855553E+02  0.47877765307E+03 -0.31113193056E+02  0.48862853583E+03  0.00000000000E+00 0.  1.
         11    1    5    5    0    0 -0.84468882193E+02  0.10284247027E+03 -0.60830392925E+03  0.62269192711E+03  0.00000000000E+00 0.  1.
        -11    1    5    5    0    0 -0.21421322403E+02 -0.16089684671E+02 -0.22574892817E+03  0.22733308069E+03  0.00000000000E+00 0. -1.
          3    1    6    6  503    0  0.85000921605E+02 -0.23902339402E+03 -0.95498885138E+02  0.27106710723E+03  0.00000000000E+00 0. -1.
         -3    1    6    6    0  503  0.13548339625E+03 -0.34701349132E+03 -0.25810292564E+03  0.45320109669E+03  0.00000000000E+00 0.  1.
<mgrwt>
<rscale>  0 0.17036523E+04</rscale>
<asrwt>0</asrwt>
<pdfrwt beam="1">  1        2 0.25455851E+00 0.17036523E+04</pdfrwt>
<pdfrwt beam="2">  1       -1 0.67466409E-01 0.17036523E+04</pdfrwt>
<totfact> 0.25064115E+01</totfact>
</mgrwt>
</event>
<event>
12    6  0.1611689E-007  0.1626396E+04  0.7818608E-02  0.8804494E-01
         -1   -1    0    0    0  501 -0.00000000000E+00  0.00000000000E+00  0.27371036089E+03  0.27371036089E+03  0.00000000000E+00 0.  1.
          2   -1    0    0  501    0  0.00000000000E+00 -0.00000000000E+00 -0.24160238457E+04  0.24160238457E+04  0.00000000000E+00 0. -1.
         24    2    1    2    0    0  0.23060054439E+03  0.50227208078E+03 -0.10264400935E+04  0.11685679739E+04  0.80734069487E+02 0.  0.
        254    2    1    2    0    0 -0.23060054439E+03 -0.50227208078E+03 -0.11158733914E+04  0.15211662327E+04  0.87368153681E+03 0.  0.
         23    2    4    4    0    0 -0.49939375228E+03 -0.40669274492E+03 -0.10161011018E+04  0.12063205243E+04  0.89188842682E+02 0.  0.
         23    2    4    4    0    0  0.26879320789E+03 -0.95579335862E+02 -0.99772289596E+02  0.31484570844E+03  0.88250282161E+02 0.  0.
          4    1    3    3  502    0  0.23296137328E+03  0.50424120500E+03 -0.10201238752E+04  0.11615433332E+04  0.00000000000E+00 0. -1.
         -3    1    3    3    0  502 -0.23608288895E+01 -0.19691242236E+01 -0.63162182911E+01  0.70246406850E+01  0.00000000000E+00 0.  1.
         11    1    5    5    0    0 -0.42362056313E+03 -0.37968268500E+03 -0.86851406858E+03  0.10382340825E+04  0.00000000000E+00 0. -1.
        -11    1    5    5    0    0 -0.75773189144E+02 -0.27010059915E+02 -0.14758703319E+03  0.16808644174E+03  0.00000000000E+00 0.  1.
          4    1    6    6  503    0  0.49060865003E+02  0.48744716565E+01  0.86019594513E+01  0.50047204269E+02  0.00000000000E+00 0. -1.
         -4    1    6    6    0  503  0.21973234289E+03 -0.10045380752E+03 -0.10837424905E+03  0.26479850417E+03  0.00000000000E+00 0.  1.
<mgrwt>
<rscale>  0 0.16263957E+04</rscale>
<asrwt>0</asrwt>
<pdfrwt beam="1">  1        2 0.37169596E+00 0.16263957E+04</pdfrwt>
<pdfrwt beam="2">  1       -1 0.42109288E-01 0.16263957E+04</pdfrwt>
<totfact> 0.23541065E+01</totfact>
</mgrwt>
</event>
<event>
12    6  0.1611689E-007  0.1885935E+04  0.7818608E-02  0.8661889E-01
         -1   -1    0    0    0  501 -0.00000000000E+00  0.00000000000E+00  0.33215818869E+03  0.33215818869E+03  0.00000000000E+00 0.  1.
          2   -1    0    0  501    0  0.00000000000E+00 -0.00000000000E+00 -0.26770010098E+04  0.26770010098E+04  0.00000000000E+00 0. -1.
         24    2    1    2    0    0 -0.26204728150E+03  0.50484248615E+03 -0.17011403938E+04  0.17954720973E+04  0.79414728827E+02 0.  0.
        254    2    1    2    0    0  0.26204728150E+03 -0.50484248615E+03 -0.64370242726E+03  0.12136871012E+04  0.85740821729E+03 0.  0.
         23    2    4    4    0    0 -0.23653925531E+03 -0.45079467147E+03 -0.28792612972E+03  0.59165322209E+03  0.89361199121E+02 0.  0.
         23    2    4    4    0    0  0.49858653681E+03 -0.54047814681E+02 -0.35577629755E+03  0.62203387906E+03  0.94019529060E+02 0.  0.
          4    1    3    3  502    0 -0.25333106444E+03  0.46441706792E+03 -0.15123507792E+04  0.16022062041E+04  0.00000000000E+00 0. -1.
         -3    1    3    3    0  502 -0.87162170578E+01  0.40425418227E+02 -0.18878961463E+03  0.19326589319E+03  0.00000000000E+00 0.  1.
         11    1    5    5    0    0 -0.15907653580E+02 -0.23016137712E+02 -0.43761892427E+02  0.51941305975E+02  0.00000000000E+00 0.  1.
        -11    1    5    5    0    0 -0.22063160173E+03 -0.42777853376E+03 -0.24416423729E+03  0.53971191612E+03  0.00000000000E+00 0. -1.
          4    1    6    6  503    0  0.20744654774E+02 -0.97127516455E+01 -0.44436642654E+02  0.49992934067E+02  0.00000000000E+00 0.  1.
         -4    1    6    6    0  503  0.47784188204E+03 -0.44335063036E+02 -0.31133965489E+03  0.57204094500E+03  0.00000000000E+00 0. -1.
<mgrwt>
<rscale>  0 0.18859351E+04</rscale>
<asrwt>0</asrwt>
<pdfrwt beam="1">  1        2 0.41184630E+00 0.18859351E+04</pdfrwt>
<pdfrwt beam="2">  1       -1 0.51101261E-01 0.18859351E+04</pdfrwt>
<totfact> 0.11280191E+01</totfact>
</mgrwt>
</event>
<event>
12    6  0.1611689E-007  0.2148413E+04  0.7818608E-02  0.8540212E-01
          2   -1    0    0  501    0  0.00000000000E+00  0.00000000000E+00  0.72135692241E+03  0.72135692241E+03  0.00000000000E+00 0. -1.
         -1   -1    0    0    0  501 -0.00000000000E+00 -0.00000000000E+00 -0.15996520760E+04  0.15996520760E+04  0.00000000000E+00 0.  1.
         24    2    1    2    0    0 -0.39817594131E+03  0.65005522572E+03 -0.84685864915E+03  0.11421457665E+04  0.78813092511E+02 0.  0.
        254    2    1    2    0    0  0.39817594131E+03 -0.65005522572E+03 -0.31436504427E+02  0.11788632319E+04  0.89867368327E+03 0.  0.
         23    2    4    4    0    0 -0.28245192994E+03 -0.20017045634E+03 -0.24558702660E+02  0.35793984839E+03  0.87581395680E+02 0.  0.
         23    2    4    4    0    0  0.68062787125E+03 -0.44988476938E+03 -0.68778017675E+01  0.82092338352E+03  0.90649283557E+02 0.  0.
          2    1    3    3  502    0 -0.19332985760E+03  0.30543556191E+03 -0.45987152840E+03  0.58493515790E+03  0.00000000000E+00 0. -1.
         -1    1    3    3    0  502 -0.20484608371E+03  0.34461966381E+03 -0.38698712074E+03  0.55721060858E+03  0.00000000000E+00 0.  1.
         11    1    5    5    0    0 -0.11867792430E+03 -0.10238101705E+03  0.29916080019E+02  0.15956595568E+03  0.00000000000E+00 0. -1.
        -11    1    5    5    0    0 -0.16377400564E+03 -0.97789439288E+02 -0.54474782679E+02  0.19837389271E+03  0.00000000000E+00 0.  1.
          3    1    6    6  503    0  0.31360474144E+02 -0.36111040830E+02 -0.17540051873E+02  0.50942516899E+02  0.00000000000E+00 0. -1.
         -3    1    6    6    0  503  0.64926739711E+03 -0.41377372855E+03  0.10662250106E+02  0.76998086662E+03  0.00000000000E+00 0.  1.
<mgrwt>
<rscale>  0 0.21484135E+04</rscale>
<asrwt>0</asrwt>
<pdfrwt beam="1">  1        2 0.11097799E+00 0.21484135E+04</pdfrwt>
<pdfrwt beam="2">  1       -1 0.24610032E+00 0.21484135E+04</pdfrwt>
<totfact> 0.30541678E+00</totfact>
</mgrwt>
</event>
<event>
12    6  0.1611689E-007  0.1406035E+04  0.7818608E-02  0.8949462E-01
         -1   -1    0    0    0  501 -0.00000000000E+00  0.00000000000E+00  0.18295525052E+03  0.18295525052E+03  0.00000000000E+00 0.  1.
          2   -1    0    0  501    0  0.00000000000E+00 -0.00000000000E+00 -0.27013907421E+04  0.27013907421E+04  0.00000000000E+00 0. -1.
         24    2    1    2    0    0 -0.69702238851E+02 -0.38189235373E+03 -0.41740732627E+03  0.57646604215E+03  0.85930493959E+02 0.  0.
        254    2    1    2    0    0  0.69702238851E+02  0.38189235373E+03 -0.21010281653E+04  0.23078799504E+04  0.87251953698E+03 0.  0.
         23    2    4    4    0    0 -0.37618334133E+03  0.95711101919E+02 -0.68205967136E+03  0.79009555496E+03  0.91493548133E+02 0.  0.
         23    2    4    4    0    0  0.44588558018E+03  0.28618125181E+03 -0.14189684939E+04  0.15177843955E+04  0.97386985366E+02 0.  0.
          2    1    3    3  502    0 -0.46450296417E+02 -0.24511126858E+03 -0.32523532805E+03  0.40989655113E+03  0.00000000000E+00 0. -1.
         -1    1    3    3    0  502 -0.23251942434E+02 -0.13678108515E+03 -0.92171998229E+02  0.16656949102E+03  0.00000000000E+00 0.  1.
         11    1    5    5    0    0 -0.93673527612E+02  0.65046248595E+02 -0.21524834523E+03  0.24359309176E+03  0.00000000000E+00 0. -1.
        -11    1    5    5    0    0 -0.28250981372E+03  0.30664853324E+02 -0.46681132613E+03  0.54650246320E+03  0.00000000000E+00 0.  1.
          3    1    6    6  503    0  0.38793038550E+03  0.21526649681E+03 -0.11051882645E+04  0.11909117300E+04  0.00000000000E+00 0. -1.
         -3    1    6    6    0  503  0.57955194682E+02  0.70914754999E+02 -0.31378022944E+03  0.32687266550E+03  0.00000000000E+00 0.  1.
<mgrwt>
<rscale>  0 0.14060350E+04</rscale>
<asrwt>0</asrwt>
<pdfrwt beam="1">  1        2 0.41559855E+00 0.14060350E+04</pdfrwt>
<pdfrwt beam="2">  1       -1 0.28146963E-01 0.14060350E+04</pdfrwt>
<totfact> 0.33689005E+01</totfact>
</mgrwt>
</event>
<event>
12    6  0.1611689E-007  0.1725875E+04  0.7818608E-02  0.8746743E-01
          2   -1    0    0  501    0  0.00000000000E+00  0.00000000000E+00  0.89515880183E+03  0.89515880183E+03  0.00000000000E+00 0. -1.
         -1   -1    0    0    0  501 -0.00000000000E+00 -0.00000000000E+00 -0.83187641087E+03  0.83187641087E+03  0.00000000000E+00 0.  1.
         24    2    1    2    0    0 -0.58449836313E+03  0.15704910706E+03  0.15405830508E+03  0.62963108800E+03  0.79991168768E+02 0.  0.
        254    2    1    2    0    0  0.58449836313E+03 -0.15704910706E+03 -0.90775914118E+02  0.10974041247E+04  0.91090767250E+03 0.  0.
         23    2    4    4    0    0  0.50124179682E+02  0.90413991719E+02 -0.40211747651E+03  0.42510206872E+03  0.91247907550E+02 0.  0.
         23    2    4    4    0    0  0.53437418345E+03 -0.24746309878E+03  0.31134156239E+03  0.67230205598E+03  0.90899575448E+02 0.  0.
          2    1    3    3  502    0 -0.22195203657E+03  0.86149559804E+02  0.90950723355E+02  0.25486562591E+03  0.00000000000E+00 0. -1.
         -1    1    3    3    0  502 -0.36254632656E+03  0.70899547256E+02  0.63107581720E+02  0.37476546208E+03  0.00000000000E+00 0.  1.
         11    1    5    5    0    0  0.42352713773E+02  0.32529628648E+02 -0.70832498958E+02  0.88708353680E+02  0.00000000000E+00 0. -1.
        -11    1    5    5    0    0  0.77714659089E+01  0.57884363072E+02 -0.33128497755E+03  0.33639371504E+03  0.00000000000E+00 0.  1.
          1    1    6    6  503    0  0.29193442131E+03 -0.15041275997E+03  0.22156643577E+03  0.39615828928E+03  0.00000000000E+00 0. -1.
         -1    1    6    6    0  503  0.24243976214E+03 -0.97050338812E+02  0.89775126620E+02  0.27614376671E+03  0.00000000000E+00 0.  1.
<mgrwt>
<rscale>  0 0.17258754E+04</rscale>
<asrwt>0</asrwt>
<pdfrwt beam="1">  1        2 0.13771674E+00 0.17258754E+04</pdfrwt>
<pdfrwt beam="2">  1       -1 0.12798099E+00 0.17258754E+04</pdfrwt>
<totfact> 0.16894578E+01</totfact>
</mgrwt>
</event>
<event>
12    6  0.1611689E-007  0.2803094E+04  0.7818608E-02  0.8302308E-01
         -1   -1    0    0    0  501 -0.00000000000E+00  0.00000000000E+00  0.90144770326E+03  0.90144770326E+03  0.00000000000E+00 0.  1.
          2   -1    0    0  501    0  0.00000000000E+00 -0.00000000000E+00 -0.21790888159E+04  0.21790888159E+04  0.00000000000E+00 0. -1.
         24    2    1    2    0    0  0.82262837487E+03 -0.37545366867E+03  0.38557239328E+03  0.98631427400E+03  0.80416889859E+02 0.  0.
        254    2    1    2    0    0 -0.82262837487E+03  0.37545366867E+03 -0.16632135059E+04  0.20942222452E+04  0.89543550598E+03 0.  0.
         23    2    4    4    0    0 -0.10011318015E+04  0.24804764582E+03 -0.13516684843E+04  0.17026447360E+04  0.90547706544E+02 0.  0.
         23    2    4    4    0    0  0.17850342658E+03  0.12740602285E+03 -0.31154502161E+03  0.39157750913E+03  0.90426086997E+02 0.  0.
          2    1    3    3  502    0  0.63409399299E+02 -0.39607433308E+02  0.11106881141E+02  0.75583486963E+02  0.00000000000E+00 0. -1.
         -1    1    3    3    0  502  0.75921897557E+03 -0.33584623536E+03  0.37446551214E+03  0.91073078704E+03  0.00000000000E+00 0.  1.
         11    1    5    5    0    0 -0.88579995900E+03  0.20737547750E+03 -0.12324635415E+04  0.15318657047E+04  0.00000000000E+00 0. -1.
        -11    1    5    5    0    0 -0.11533184245E+03  0.40672168316E+02 -0.11920494283E+03  0.17077903136E+03  0.00000000000E+00 0.  1.
          4    1    6    6  503    0  0.15208894079E+03  0.11778690240E+03 -0.20389533759E+03  0.28031787132E+03  0.00000000000E+00 0. -1.
         -4    1    6    6    0  503  0.26414485790E+02  0.96191204463E+01 -0.10764968402E+03  0.11125963781E+03  0.00000000000E+00 0.  1.
<mgrwt>
<rscale>  0 0.28030944E+04</rscale>
<asrwt>0</asrwt>
<pdfrwt beam="1">  1        2 0.33524443E+00 0.28030944E+04</pdfrwt>
<pdfrwt beam="2">  1       -1 0.13868426E+00 0.28030944E+04</pdfrwt>
<totfact> 0.22550379E+00</totfact>
</mgrwt>
</event>
<event>
12    6  0.1611689E-007  0.1711299E+04  0.7818608E-02  0.8754946E-01
          2   -1    0    0  501    0  0.00000000000E+00  0.00000000000E+00  0.31489747472E+04  0.31489747472E+04  0.00000000000E+00 0. -1.
         -1   -1    0    0    0  501 -0.00000000000E+00 -0.00000000000E+00 -0.23249986820E+03  0.23249986820E+03  0.00000000000E+00 0.  1.
         24    2    1    2    0    0  0.38060225359E+03  0.46552857876E+03  0.83317080601E+03  0.10321110883E+04  0.97492427794E+02 0.  0.
        254    2    1    2    0    0 -0.38060225359E+03 -0.46552857876E+03  0.20833040730E+04  0.23493635272E+04  0.90431089177E+03 0.  0.
         23    2    4    4    0    0 -0.64137635041E+03 -0.30553749404E+03  0.17368115152E+04  0.18787208790E+04  0.91439153317E+02 0.  0.
         23    2    4    4    0    0  0.26077409682E+03 -0.15999108471E+03  0.34649255779E+03  0.47064264812E+03  0.88584044057E+02 0.  0.
          4    1    3    3  502    0  0.24487183084E+02  0.13214933474E+02  0.76092957701E+02  0.81020952931E+02  0.00000000000E+00 0. -1.
         -3    1    3    3    0  502  0.35611507051E+03  0.45231364528E+03  0.75707784831E+03  0.95109013535E+03  0.00000000000E+00 0.  1.
         11    1    5    5    0    0 -0.64131929399E+03 -0.30088616484E+03  0.17010704152E+04  0.18426783437E+04  0.00000000000E+00 0.  1.
        -11    1    5    5    0    0 -0.57056418451E-01 -0.46513292072E+01  0.35741100046E+02  0.36042535307E+02  0.00000000000E+00 0. -1.
          1    1    6    6  503    0  0.41729990741E+02 -0.16123531244E+02  0.13168849395E+02  0.46634525638E+02  0.00000000000E+00 0. -1.
         -1    1    6    6    0  503  0.21904410608E+03 -0.14386755347E+03  0.33332370840E+03  0.42400812248E+03  0.00000000000E+00 0.  1.
<mgrwt>
<rscale>  0 0.17112992E+04</rscale>
<asrwt>0</asrwt>
<pdfrwt beam="1">  1        2 0.48445762E+00 0.17112992E+04</pdfrwt>
<pdfrwt beam="2">  1       -1 0.35769213E-01 0.17112992E+04</pdfrwt>
<totfact> 0.11373631E+01</totfact>
</mgrwt>
</event>
<event>
12    6  0.1611689E-007  0.2675927E+04  0.7818608E-02  0.8342858E-01
         -1   -1    0    0    0  501 -0.00000000000E+00  0.00000000000E+00  0.96109671862E+03  0.96109671862E+03  0.00000000000E+00 0.  1.
          2   -1    0    0  501    0  0.00000000000E+00 -0.00000000000E+00 -0.18626075397E+04  0.18626075397E+04  0.00000000000E+00 0. -1.
         24    2    1    2    0    0 -0.64807993071E+03 -0.15495384477E+03 -0.14320011162E+04  0.15813962680E+04  0.78540874788E+02 0.  0.
        254    2    1    2    0    0  0.64807993071E+03  0.15495384477E+03  0.53049029506E+03  0.12423079904E+04  0.90437320794E+03 0.  0.
         23    2    4    4    0    0  0.50333553693E+03  0.18873610879E+03 -0.12889588789E+03  0.56023399431E+03  0.90994488681E+02 0.  0.
         23    2    4    4    0    0  0.14474439378E+03 -0.33782264022E+02  0.65938618294E+03  0.68207399608E+03  0.91337927397E+02 0.  0.
          2    1    3    3  502    0 -0.19243330520E+03 -0.52188789268E+02 -0.51590922494E+03  0.55309725642E+03  0.00000000000E+00 0. -1.
         -1    1    3    3    0  502 -0.45564662551E+03 -0.10276505550E+03 -0.91609189124E+03  0.10282990116E+04  0.00000000000E+00 0.  1.
         11    1    5    5    0    0  0.22078676004E+03  0.11184578860E+03 -0.21871314986E+02  0.24846454124E+03  0.00000000000E+00 0. -1.
        -11    1    5    5    0    0  0.28254877689E+03  0.76890320187E+02 -0.10702457290E+03  0.31176945306E+03  0.00000000000E+00 0.  1.
          3    1    6    6  503    0  0.10047801454E+03 -0.56768034249E+02  0.34588570707E+03  0.36463044782E+03  0.00000000000E+00 0. -1.
         -3    1    6    6    0  503  0.44266379245E+02  0.22985770227E+02  0.31350047587E+03  0.31744354827E+03  0.00000000000E+00 0.  1.
<mgrwt>
<rscale>  0 0.26759268E+04</rscale>
<asrwt>0</asrwt>
<pdfrwt beam="1">  1        2 0.28655500E+00 0.26759268E+04</pdfrwt>
<pdfrwt beam="2">  1       -1 0.14786104E+00 0.26759268E+04</pdfrwt>
<totfact> 0.28895972E+00</totfact>
</mgrwt>
</event>
<event>
12    6  0.1611689E-007  0.1526180E+04  0.7818608E-02  0.8867228E-01
         -1   -1    0    0    0  501 -0.00000000000E+00  0.00000000000E+00  0.68128319292E+03  0.68128319292E+03  0.00000000000E+00 0.  1.
          2   -1    0    0  501    0  0.00000000000E+00 -0.00000000000E+00 -0.85472005660E+03  0.85472005660E+03  0.00000000000E+00 0. -1.
         24    2    1    2    0    0 -0.43082321708E+03  0.14268334706E+03 -0.23699913900E+03  0.51780475006E+03  0.77369150147E+02 0.  0.
        254    2    1    2    0    0  0.43082321708E+03 -0.14268334706E+03  0.63562275318E+02  0.10181984995E+04  0.90924190376E+03 0.  0.
         23    2    4    4    0    0  0.51043968447E+03 -0.31293152009E+03  0.32244896717E+03  0.68622863039E+03  0.91986895742E+02 0.  0.
         23    2    4    4    0    0 -0.79616467388E+02  0.17024817303E+03 -0.25888669185E+03  0.33196986907E+03  0.88647912873E+02 0.  0.
          4    1    3    3  502    0 -0.39968723539E+03  0.13217134592E+03 -0.19357402148E+03  0.46334657936E+03  0.00000000000E+00 0. -1.
         -3    1    3    3    0  502 -0.31135981686E+02  0.10512001145E+02 -0.43425117523E+02  0.54458170696E+02  0.00000000000E+00 0.  1.
         11    1    5    5    0    0  0.32370472190E+02 -0.34877952165E+02  0.33002285859E+01  0.47699166929E+02  0.00000000000E+00 0.  1.
        -11    1    5    5    0    0  0.47806921228E+03 -0.27805356792E+03  0.31914873858E+03  0.63852946346E+03  0.00000000000E+00 0. -1.
          3    1    6    6  503    0 -0.95963983405E+02  0.16291366916E+03 -0.22735441875E+03  0.29570252186E+03  0.00000000000E+00 0. -1.
         -3    1    6    6    0  503  0.16347516017E+02  0.73345038681E+01 -0.31532273103E+02  0.36267347214E+02  0.00000000000E+00 0.  1.
<mgrwt>
<rscale>  0 0.15261801E+04</rscale>
<asrwt>0</asrwt>
<pdfrwt beam="1">  1        2 0.13149539E+00 0.15261801E+04</pdfrwt>
<pdfrwt beam="2">  1       -1 0.10481280E+00 0.15261801E+04</pdfrwt>
<totfact> 0.29650410E+01</totfact>
</mgrwt>
</event>
<event>
12    6  0.1611689E-007  0.1679991E+04  0.7818608E-02  0.8772859E-01
          2   -1    0    0  501    0  0.00000000000E+00  0.00000000000E+00  0.21748188370E+04  0.21748188370E+04  0.00000000000E+00 0. -1.
         -1   -1    0    0    0  501 -0.00000000000E+00 -0.00000000000E+00 -0.32443751238E+03  0.32443751238E+03  0.00000000000E+00 0.  1.
         24    2    1    2    0    0 -0.48994151507E+03 -0.17118617147E+03  0.11062553133E+04  0.12245674523E+04  0.80107637185E+02 0.  0.
        254    2    1    2    0    0  0.48994151507E+03  0.17118617147E+03  0.74412601133E+03  0.12746888971E+04  0.89541100627E+03 0.  0.
         23    2    4    4    0    0  0.15148495052E+03  0.23862085890E+03  0.85154446116E+03  0.90184682243E+03  0.91170813651E+02 0.  0.
         23    2    4    4    0    0  0.33845656455E+03 -0.67434687430E+02 -0.10741844983E+03  0.37284207466E+03  0.91499760204E+02 0.  0.
          4    1    3    3  502    0 -0.31555208811E+03 -0.14635585779E+03  0.69540608039E+03  0.77754921006E+03  0.00000000000E+00 0. -1.
         -3    1    3    3    0  502 -0.17438942696E+03 -0.24830313672E+02  0.41084923287E+03  0.44701824221E+03  0.00000000000E+00 0.  1.
         11    1    5    5    0    0  0.10715296566E+03  0.88878918444E+02  0.35491419299E+03  0.38124179281E+03  0.00000000000E+00 0.  1.
        -11    1    5    5    0    0  0.44331984860E+02  0.14974194045E+03  0.49663026816E+03  0.52060502962E+03  0.00000000000E+00 0. -1.
          1    1    6    6  503    0  0.24201986504E+03 -0.33803212855E+02 -0.33252361749E+02  0.24662115042E+03  0.00000000000E+00 0. -1.
         -1    1    6    6    0  503  0.96436699513E+02 -0.33631474575E+02 -0.74166088083E+02  0.12622092424E+03  0.00000000000E+00 0.  1.
<mgrwt>
<rscale>  0 0.16799914E+04</rscale>
<asrwt>0</asrwt>
<pdfrwt beam="1">  1        2 0.33458750E+00 0.16799914E+04</pdfrwt>
<pdfrwt beam="2">  1       -1 0.49913465E-01 0.16799914E+04</pdfrwt>
<totfact> 0.23330824E+01</totfact>
</mgrwt>
</event>
<event>
12    6  0.1611689E-007  0.1668112E+04  0.7818608E-02  0.8779763E-01
          2   -1    0    0  501    0  0.00000000000E+00  0.00000000000E+00  0.76783254043E+03  0.76783254043E+03  0.00000000000E+00 0. -1.
         -1   -1    0    0    0  501 -0.00000000000E+00 -0.00000000000E+00 -0.90599087821E+03  0.90599087821E+03  0.00000000000E+00 0.  1.
         24    2    1    2    0    0 -0.49570423345E+03 -0.26041584727E+03  0.13644242137E+03  0.58114937812E+03  0.74692468014E+02 0.  0.
        254    2    1    2    0    0  0.49570423345E+03  0.26041584727E+03 -0.27460075916E+03  0.10926740405E+04  0.89721339787E+03 0.  0.
         23    2    4    4    0    0  0.84961942447E+02 -0.29704937995E+03 -0.22469945246E+03  0.39249548733E+03  0.90033315184E+02 0.  0.
         23    2    4    4    0    0  0.41074229100E+03  0.55746522722E+03 -0.49901306694E+02  0.70017855319E+03  0.91011849602E+02 0.  0.
          4    1    3    3  502    0 -0.46720190793E+03 -0.25816443828E+03  0.11666813369E+03  0.54638626757E+03  0.00000000000E+00 0. -1.
         -3    1    3    3    0  502 -0.28502325513E+02 -0.22514089869E+01  0.19774287681E+02  0.34763110554E+02  0.00000000000E+00 0.  1.
         11    1    5    5    0    0 -0.13682440575E+02 -0.74302988791E+02 -0.32735153070E+02  0.82339137534E+02  0.00000000000E+00 0. -1.
        -11    1    5    5    0    0  0.98644383022E+02 -0.22274639116E+03 -0.19196429939E+03  0.31015634979E+03  0.00000000000E+00 0.  1.
          2    1    6    6  503    0  0.37988228200E+03  0.47447181868E+03 -0.61337204600E+02  0.61089795184E+03  0.00000000000E+00 0. -1.
         -2    1    6    6    0  503  0.30860008999E+02  0.82993408537E+02  0.11435897905E+02  0.89280601347E+02  0.00000000000E+00 0.  1.
<mgrwt>
<rscale>  0 0.16681118E+04</rscale>
<asrwt>0</asrwt>
<pdfrwt beam="1">  1        2 0.11812808E+00 0.16681118E+04</pdfrwt>
<pdfrwt beam="2">  1       -1 0.13938321E+00 0.16681118E+04</pdfrwt>
<totfact> 0.16797435E+01</totfact>
</mgrwt>
</event>
<event>
12    6  0.1611689E-007  0.1343993E+04  0.7818608E-02  0.8995388E-01
         -1   -1    0    0    0  501 -0.00000000000E+00  0.00000000000E+00  0.27739243656E+03  0.27739243656E+03  0.00000000000E+00 0.  1.
          2   -1    0    0  501    0  0.00000000000E+00 -0.00000000000E+00 -0.16279439367E+04  0.16279439367E+04  0.00000000000E+00 0. -1.
         24    2    1    2    0    0  0.30110018660E+03 -0.19535770644E+03 -0.44592920359E+03  0.57786783497E+03  0.79072272268E+02 0.  0.
        254    2    1    2    0    0 -0.30110018660E+03  0.19535770644E+03 -0.90462229658E+03  0.13274685383E+04  0.90277642025E+03 0.  0.
         23    2    4    4    0    0  0.16010047720E+03  0.41299824476E+03 -0.46084060232E+03  0.64542765806E+03  0.89459980266E+02 0.  0.
         23    2    4    4    0    0 -0.46120066380E+03 -0.21764053832E+03 -0.44378169426E+03  0.68204088027E+03  0.90355486778E+02 0.  0.
          4    1    3    3  502    0  0.24860048516E+03 -0.13350383971E+03 -0.38007965135E+03  0.47337724682E+03  0.00000000000E+00 0. -1.
         -3    1    3    3    0  502  0.52499701434E+02 -0.61853866734E+02 -0.65849552240E+02  0.10449058815E+03  0.00000000000E+00 0.  1.
         11    1    5    5    0    0  0.14851179628E+03  0.39991223356E+03 -0.41005621537E+03  0.59171923068E+03  0.00000000000E+00 0. -1.
        -11    1    5    5    0    0  0.11588680916E+02  0.13086011200E+02 -0.50784386950E+02  0.53708427387E+02  0.00000000000E+00 0.  1.
          3    1    6    6  503    0 -0.29024385358E+03 -0.18127366953E+03 -0.31285385478E+03  0.46365846510E+03  0.00000000000E+00 0. -1.
         -3    1    6    6    0  503 -0.17095681022E+03 -0.36366868790E+02 -0.13092783948E+03  0.21838241517E+03  0.00000000000E+00 0.  1.
<mgrwt>
<rscale>  0 0.13439931E+04</rscale>
<asrwt>0</asrwt>
<pdfrwt beam="1">  1        2 0.25045292E+00 0.13439931E+04</pdfrwt>
<pdfrwt beam="2">  1       -1 0.42675759E-01 0.13439931E+04</pdfrwt>
<totfact> 0.64733085E+01</totfact>
</mgrwt>
</event>
<event>
12    6  0.1611689E-007  0.2169421E+04  0.7818608E-02  0.8531265E-01
         -1   -1    0    0    0  501 -0.00000000000E+00  0.00000000000E+00  0.68464835871E+03  0.68464835871E+03  0.00000000000E+00 0.  1.
          2   -1    0    0  501    0  0.00000000000E+00 -0.00000000000E+00 -0.17185413355E+04  0.17185413355E+04  0.00000000000E+00 0. -1.
         24    2    1    2    0    0 -0.15716955630E+03  0.48776043817E+02 -0.13542944949E+04  0.13665653000E+04  0.79408869212E+02 0.  0.
        254    2    1    2    0    0  0.15716955630E+03 -0.48776043817E+02  0.32040151807E+03  0.10366243942E+04  0.97203478846E+03 0.  0.
         23    2    4    4    0    0  0.38517240397E+03 -0.34928784113E+03 -0.89653495488E+01  0.52798594064E+03  0.91263351251E+02 0.  0.
         23    2    4    4    0    0 -0.22800284767E+03  0.30051179731E+03  0.32936686762E+03  0.50863845355E+03  0.89094916123E+02 0.  0.
          4    1    3    3  502    0 -0.12352047323E+03  0.16564326444E+01 -0.84304187424E+03  0.85204439603E+03  0.00000000000E+00 0. -1.
         -3    1    3    3    0  502 -0.33649083079E+02  0.47119611172E+02 -0.51125262065E+03  0.51452090402E+03  0.00000000000E+00 0.  1.
         11    1    5    5    0    0  0.71717578372E+02 -0.10400094721E+03 -0.28429527776E+02  0.12949071827E+03  0.00000000000E+00 0.  1.
        -11    1    5    5    0    0  0.31345482560E+03 -0.24528689391E+03  0.19464178227E+02  0.39849522237E+03  0.00000000000E+00 0. -1.
          2    1    6    6  503    0 -0.77628185099E+02  0.57298311789E+02  0.12135628517E+03  0.15503734907E+03  0.00000000000E+00 0. -1.
         -2    1    6    6    0  503 -0.15037466257E+03  0.24321348552E+03  0.20801058245E+03  0.35360110449E+03  0.00000000000E+00 0.  1.
<mgrwt>
<rscale>  0 0.21694207E+04</rscale>
<asrwt>0</asrwt>
<pdfrwt beam="1">  1        2 0.26439097E+00 0.21694207E+04</pdfrwt>
<pdfrwt beam="2">  1       -1 0.10533052E+00 0.21694207E+04</pdfrwt>
<totfact> 0.84452824E+00</totfact>
</mgrwt>
</event>
<event>
12    6  0.1611689E-007  0.1509127E+04  0.7818608E-02  0.8878406E-01
         -1   -1    0    0    0  501 -0.00000000000E+00  0.00000000000E+00  0.94985674009E+03  0.94985674009E+03  0.00000000000E+00 0.  1.
          2   -1    0    0  501    0  0.00000000000E+00 -0.00000000000E+00 -0.59942330611E+03  0.59942330611E+03  0.00000000000E+00 0. -1.
         24    2    1    2    0    0 -0.13216187049E+03  0.15829168431E+03 -0.33803956278E+03  0.40394825606E+03  0.79877595351E+02 0.  0.
        254    2    1    2    0    0  0.13216187049E+03 -0.15829168431E+03  0.68847299677E+03  0.11453317901E+04  0.89177734042E+03 0.  0.
         23    2    4    4    0    0  0.10207949443E+03 -0.38659153207E+03 -0.36103422743E+01  0.40999326711E+03  0.90599164731E+02 0.  0.
         23    2    4    4    0    0  0.30082376059E+02  0.22829984777E+03  0.69208333904E+03  0.73533852303E+03  0.93368224941E+02 0.  0.
          2    1    3    3  502    0 -0.12895262737E+03  0.10748576628E+03 -0.28243615204E+03  0.32856072504E+03  0.00000000000E+00 0. -1.
         -3    1    3    3    0  502 -0.32092431219E+01  0.50805918027E+02 -0.55603410737E+02  0.75387531022E+02  0.00000000000E+00 0.  1.
         11    1    5    5    0    0  0.10990400344E+03 -0.33261338181E+03  0.19306049468E+02  0.35083226089E+03  0.00000000000E+00 0. -1.
        -11    1    5    5    0    0 -0.78245090082E+01 -0.53978150258E+02 -0.22916391743E+02  0.59161006220E+02  0.00000000000E+00 0.  1.
          3    1    6    6  503    0  0.30723145821E+02  0.19931769913E+03  0.66759255245E+03  0.69738889650E+03  0.00000000000E+00 0. -1.
         -3    1    6    6    0  503 -0.64076976183E+00  0.28982148639E+02  0.24490786590E+02  0.37949626525E+02  0.00000000000E+00 0.  1.
<mgrwt>
<rscale>  0 0.15091273E+04</rscale>
<asrwt>0</asrwt>
<pdfrwt beam="1">  1        2 0.92218971E-01 0.15091273E+04</pdfrwt>
<pdfrwt beam="2">  1       -1 0.14613180E+00 0.15091273E+04</pdfrwt>
<totfact> 0.20504388E+01</totfact>
</mgrwt>
</event>
<event>
12    6  0.1611689E-007  0.2092491E+04  0.7818608E-02  0.8564558E-01
         -1   -1    0    0    0  501 -0.00000000000E+00  0.00000000000E+00  0.10876950044E+04  0.10876950044E+04  0.00000000000E+00 0.  1.
          2   -1    0    0  501    0  0.00000000000E+00 -0.00000000000E+00 -0.10063754253E+04  0.10063754253E+04  0.00000000000E+00 0. -1.
         24    2    1    2    0    0  0.39109009504E+03 -0.39185471195E+03 -0.58231858095E+03  0.80755547413E+03  0.80927970199E+02 0.  0.
        254    2    1    2    0    0 -0.39109009504E+03  0.39185471195E+03  0.66363816004E+03  0.12865149556E+04  0.95299713839E+03 0.  0.
         23    2    4    4    0    0 -0.68039909434E+03  0.20846203341E+03  0.57953384807E+03  0.92235313457E+03  0.92067783946E+02 0.  0.
         23    2    4    4    0    0  0.28930899930E+03  0.18339267853E+03  0.84104311977E+02  0.36416182102E+03  0.90596495406E+02 0.  0.
          2    1    3    3  502    0  0.32263020426E+03 -0.32962378611E+03 -0.52450039952E+03  0.69845741328E+03  0.00000000000E+00 0. -1.
         -1    1    3    3    0  502  0.68459890788E+02 -0.62230925840E+02 -0.57818181426E+02  0.10909806085E+03  0.00000000000E+00 0.  1.
         11    1    5    5    0    0 -0.66106683670E+03  0.21763286524E+03  0.55857055926E+03  0.89239817138E+03  0.00000000000E+00 0. -1.
        -11    1    5    5    0    0 -0.19332257648E+02 -0.91708318275E+01  0.20963288807E+02  0.29954963191E+02  0.00000000000E+00 0.  1.
          2    1    6    6  503    0  0.24352097046E+03  0.18860647311E+03  0.68848958694E+02  0.31561851002E+03  0.00000000000E+00 0. -1.
         -2    1    6    6    0  503  0.45788028842E+02 -0.52137945810E+01  0.15255353283E+02  0.48543311001E+02  0.00000000000E+00 0.  1.
<mgrwt>
<rscale>  0 0.20924909E+04</rscale>
<asrwt>0</asrwt>
<pdfrwt beam="1">  1        2 0.15482699E+00 0.20924909E+04</pdfrwt>
<pdfrwt beam="2">  1       -1 0.16733769E+00 0.20924909E+04</pdfrwt>
<totfact> 0.67567696E+00</totfact>
</mgrwt>
</event>
<event>
12    6  0.1611689E-007  0.1831166E+04  0.7818608E-02  0.8689899E-01
         -1   -1    0    0    0  501 -0.00000000000E+00  0.00000000000E+00  0.53152447972E+03  0.53152447972E+03  0.00000000000E+00 0.  1.
          2   -1    0    0  501    0  0.00000000000E+00 -0.00000000000E+00 -0.15771466501E+04  0.15771466501E+04  0.00000000000E+00 0. -1.
         24    2    1    2    0    0 -0.39156921269E+03 -0.28568572692E+03 -0.93323665050E+03  0.10542970822E+04  0.75292156003E+02 0.  0.
        254    2    1    2    0    0  0.39156921269E+03  0.28568572692E+03 -0.11238551984E+03  0.10543740476E+04  0.92958665239E+03 0.  0.
         23    2    4    4    0    0 -0.23105954194E+03  0.25560703404E+01  0.17871121383E+03  0.30562001968E+03  0.89837926651E+02 0.  0.
         23    2    4    4    0    0  0.62262875463E+03  0.28312965658E+03 -0.29109673367E+03  0.74875402792E+03  0.89812679765E+02 0.  0.
          2    1    3    3  502    0 -0.34336708670E+03 -0.26656543523E+03 -0.86971064259E+03  0.97229352015E+03  0.00000000000E+00 0. -1.
         -1    1    3    3    0  502 -0.48202125986E+02 -0.19120291694E+02 -0.63526007904E+02  0.82003562021E+02  0.00000000000E+00 0.  1.
         11    1    5    5    0    0 -0.68952257802E+02  0.42378652752E+02  0.61572493556E+02  0.10169334308E+03  0.00000000000E+00 0. -1.
        -11    1    5    5    0    0 -0.16210728414E+03 -0.39822582412E+02  0.11713872027E+03  0.20392667660E+03  0.00000000000E+00 0.  1.
          4    1    6    6  503    0  0.11985785344E+03  0.19514477684E+02 -0.38400828603E+02  0.12736303823E+03  0.00000000000E+00 0. -1.
         -4    1    6    6    0  503  0.50277090119E+03  0.26361517889E+03 -0.25269590507E+03  0.62139098969E+03  0.00000000000E+00 0.  1.
<mgrwt>
<rscale>  0 0.18311658E+04</rscale>
<asrwt>0</asrwt>
<pdfrwt beam="1">  1        2 0.24263794E+00 0.18311658E+04</pdfrwt>
<pdfrwt beam="2">  1       -1 0.81772998E-01 0.18311658E+04</pdfrwt>
<totfact> 0.18341325E+01</totfact>
</mgrwt>
</event>
<event>
12    6  0.1611689E-007  0.1177073E+04  0.7818608E-02  0.9133164E-01
          2   -1    0    0  501    0  0.00000000000E+00  0.00000000000E+00  0.15559762180E+04  0.15559762180E+04  0.00000000000E+00 0. -1.
         -1   -1    0    0    0  501 -0.00000000000E+00 -0.00000000000E+00 -0.22260966577E+03  0.22260966577E+03  0.00000000000E+00 0.  1.
         24    2    1    2    0    0  0.73823117569E+02 -0.67483307411E+02 -0.31988837413E+02  0.13248421318E+03  0.80777048442E+02 0.  0.
        254    2    1    2    0    0 -0.73823117569E+02  0.67483307411E+02  0.13653553896E+04  0.16461016706E+04  0.91403037172E+03 0.  0.
         23    2    4    4    0    0  0.29876149777E+03  0.17520054093E+03  0.11242574233E+04  0.11800891428E+04  0.93284344117E+02 0.  0.
         23    2    4    4    0    0 -0.37258461533E+03 -0.10771723352E+03  0.24109796629E+03  0.46601252781E+03  0.92828598752E+02 0.  0.
          4    1    3    3  502    0  0.70642999395E+01  0.11058309459E+01 -0.35983142461E+02  0.36686697004E+02  0.00000000000E+00 0. -1.
         -3    1    3    3    0  502  0.66758817630E+02 -0.68589138357E+02  0.39943050477E+01  0.95797516172E+02  0.00000000000E+00 0.  1.
         11    1    5    5    0    0  0.11611932516E+03  0.21070899505E+02  0.31966069959E+03  0.34075011863E+03  0.00000000000E+00 0. -1.
        -11    1    5    5    0    0  0.18264217261E+03  0.15412964143E+03  0.80459672374E+03  0.83933902413E+03  0.00000000000E+00 0.  1.
          4    1    6    6  503    0 -0.25001544767E+03 -0.47101517003E+02  0.19882193471E+03  0.32288765646E+03  0.00000000000E+00 0. -1.
         -4    1    6    6    0  503 -0.12256916767E+03 -0.60615716516E+02  0.42276031583E+02  0.14312487135E+03  0.00000000000E+00 0.  1.
<mgrwt>
<rscale>  0 0.11770732E+04</rscale>
<asrwt>0</asrwt>
<pdfrwt beam="1">  1        2 0.23938095E+00 0.11770732E+04</pdfrwt>
<pdfrwt beam="2">  1       -1 0.34247642E-01 0.11770732E+04</pdfrwt>
<totfact> 0.10718038E+02</totfact>
</mgrwt>
</event>
<event>
12    6  0.1611689E-007  0.1053205E+04  0.7818608E-02  0.9252041E-01
          2   -1    0    0  501    0  0.00000000000E+00  0.00000000000E+00  0.74605751645E+03  0.74605751645E+03  0.00000000000E+00 0. -1.
         -1   -1    0    0    0  501 -0.00000000000E+00 -0.00000000000E+00 -0.37170079565E+03  0.37170079565E+03  0.00000000000E+00 0.  1.
         24    2    1    2    0    0 -0.55963911627E+02  0.98872473631E+02 -0.38555434405E+02  0.14600669848E+03  0.83208827850E+02 0.  0.
        254    2    1    2    0    0  0.55963911627E+02 -0.98872473631E+02  0.41291215520E+03  0.97175161362E+03  0.87229411624E+03 0.  0.
         23    2    4    4    0    0 -0.85460463422E+02  0.35336638757E+03  0.29172378218E+03  0.47490946961E+03  0.90911740475E+02 0.  0.
         23    2    4    4    0    0  0.14142437505E+03 -0.45223886120E+03  0.12118837302E+03  0.49684214402E+03  0.87433705608E+02 0.  0.
          2    1    3    3  502    0 -0.55443424756E+02  0.35867379123E+02 -0.48883452113E+02  0.82158591300E+02  0.00000000000E+00 0. -1.
         -1    1    3    3    0  502 -0.52048687071E+00  0.63005094509E+02  0.10328017709E+02  0.63848107180E+02  0.00000000000E+00 0.  1.
         11    1    5    5    0    0  0.17446832298E+02  0.78882105582E+02  0.76317080051E+02  0.11113539151E+03  0.00000000000E+00 0.  1.
        -11    1    5    5    0    0 -0.10290729572E+03  0.27448428199E+03  0.21540670213E+03  0.36377407810E+03  0.00000000000E+00 0. -1.
          2    1    6    6  503    0  0.13281704780E+03 -0.43036801865E+03  0.13421655002E+03  0.46996923513E+03  0.00000000000E+00 0. -1.
         -2    1    6    6    0  503  0.86073272439E+01 -0.21870842552E+02 -0.13028177003E+02  0.26872908891E+02  0.00000000000E+00 0.  1.
<mgrwt>
<rscale>  0 0.10532050E+04</rscale>
<asrwt>0</asrwt>
<pdfrwt beam="1">  1        2 0.11477808E+00 0.10532050E+04</pdfrwt>
<pdfrwt beam="2">  1       -1 0.57184738E-01 0.10532050E+04</pdfrwt>
<totfact> 0.13288840E+02</totfact>
</mgrwt>
</event>
<event>
12    6  0.1611689E-007  0.2501880E+04  0.7818608E-02  0.8402316E-01
          2   -1    0    0  501    0  0.00000000000E+00  0.00000000000E+00  0.11388885575E+04  0.11388885575E+04  0.00000000000E+00 0. -1.
         -1   -1    0    0    0  501 -0.00000000000E+00 -0.00000000000E+00 -0.13740162158E+04  0.13740162158E+04  0.00000000000E+00 0.  1.
         24    2    1    2    0    0 -0.10068663680E+04  0.15669112898E+03  0.28238042712E+03  0.10605136962E+04  0.81354787359E+02 0.  0.
        254    2    1    2    0    0  0.10068663680E+04 -0.15669112898E+03 -0.51750808540E+03  0.14523910771E+04  0.89626627151E+03 0.  0.
         23    2    4    4    0    0  0.86117178989E+02  0.12885066153E+03  0.18404598469E+03  0.25681632155E+03  0.89794415427E+02 0.  0.
         23    2    4    4    0    0  0.92074918900E+03 -0.28554179051E+03 -0.70155407009E+03  0.11955747555E+04  0.88925247404E+02 0.  0.
          2    1    3    3  502    0 -0.46779900449E+03  0.74975311346E+02  0.17339039554E+03  0.50450117461E+03  0.00000000000E+00 0. -1.
         -1    1    3    3    0  502 -0.53906736349E+03  0.81715817635E+02  0.10899003158E+03  0.55601252164E+03  0.00000000000E+00 0.  1.
         11    1    5    5    0    0  0.55233304094E+01  0.88913811197E+02  0.95471499126E+02  0.13057940169E+03  0.00000000000E+00 0.  1.
        -11    1    5    5    0    0  0.80593848580E+02  0.39936850329E+02  0.88574485566E+02  0.12623691986E+03  0.00000000000E+00 0. -1.
          1    1    6    6  503    0  0.28956038909E+03 -0.11881099018E+03 -0.26627989968E+03  0.41093339520E+03  0.00000000000E+00 0. -1.
         -1    1    6    6    0  503  0.63118879991E+03 -0.16673080033E+03 -0.43527417041E+03  0.78464136033E+03  0.00000000000E+00 0.  1.
<mgrwt>
<rscale>  0 0.25018804E+04</rscale>
<asrwt>0</asrwt>
<pdfrwt beam="1">  1        2 0.17521362E+00 0.25018804E+04</pdfrwt>
<pdfrwt beam="2">  1       -1 0.21138711E+00 0.25018804E+04</pdfrwt>
<totfact> 0.26367160E+00</totfact>
</mgrwt>
</event>
<event>
12    6  0.1611689E-007  0.1592254E+04  0.7818608E-02  0.8825321E-01
         -1   -1    0    0    0  501 -0.00000000000E+00  0.00000000000E+00  0.24377278858E+03  0.24377278858E+03  0.00000000000E+00 0.  1.
          2   -1    0    0  501    0  0.00000000000E+00 -0.00000000000E+00 -0.26000357767E+04  0.26000357767E+04  0.00000000000E+00 0. -1.
         24    2    1    2    0    0 -0.17259855330E+03 -0.33283633458E+03 -0.10744346255E+03  0.39800398629E+03  0.79327102804E+02 0.  0.
        254    2    1    2    0    0  0.17259855330E+03  0.33283633458E+03 -0.22488195256E+04  0.24458045790E+04  0.88555095498E+03 0.  0.
         23    2    4    4    0    0  0.11119547468E+03  0.32403556317E+03 -0.22755101437E+03  0.42150030295E+03  0.92301470492E+02 0.  0.
         23    2    4    4    0    0  0.61403078623E+02  0.88007714044E+01 -0.20212685112E+04  0.20243042761E+04  0.91834721259E+02 0.  0.
          2    1    3    3  502    0 -0.53285072940E+01  0.13000058512E+01 -0.10689875761E+02  0.12014842861E+02  0.00000000000E+00 0. -1.
         -1    1    3    3    0  502 -0.16727004601E+03 -0.33413634043E+03 -0.96753586793E+02  0.38598914343E+03  0.00000000000E+00 0.  1.
         11    1    5    5    0    0  0.51056915944E+02  0.13202358968E+03 -0.41636500496E+02  0.14754875490E+03  0.00000000000E+00 0. -1.
        -11    1    5    5    0    0  0.60138558733E+02  0.19201197349E+03 -0.18591451387E+03  0.27395154805E+03  0.00000000000E+00 0.  1.
          1    1    6    6  503    0  0.57882981079E+02 -0.69927532744E+01 -0.57562330165E+03  0.57856851237E+03  0.00000000000E+00 0. -1.
         -1    1    6    6    0  503  0.35200975446E+01  0.15793524679E+02 -0.14456452096E+04  0.14457357637E+04  0.00000000000E+00 0.  1.
<mgrwt>
<rscale>  0 0.15922537E+04</rscale>
<asrwt>0</asrwt>
<pdfrwt beam="1">  1        2 0.40000552E+00 0.15922537E+04</pdfrwt>
<pdfrwt beam="2">  1       -1 0.37503504E-01 0.15922537E+04</pdfrwt>
<totfact> 0.22841618E+01</totfact>
</mgrwt>
</event>
<event>
12    6  0.1611689E-007  0.2603020E+04  0.7818608E-02  0.8367176E-01
         -1   -1    0    0    0  501 -0.00000000000E+00  0.00000000000E+00  0.13926356064E+04  0.13926356064E+04  0.00000000000E+00 0.  1.
          2   -1    0    0  501    0  0.00000000000E+00 -0.00000000000E+00 -0.12163470122E+04  0.12163470122E+04  0.00000000000E+00 0. -1.
         24    2    1    2    0    0  0.10914289241E+04 -0.91711949647E+02  0.42834732320E+03  0.11787505342E+04  0.79644300542E+02 0.  0.
        254    2    1    2    0    0 -0.10914289241E+04  0.91711949647E+02 -0.25205872898E+03  0.14302320844E+04  0.88453492547E+03 0.  0.
         23    2    4    4    0    0 -0.70942567208E+02  0.98132617198E+02 -0.37009483795E+03  0.39862495807E+03  0.85257314728E+02 0.  0.
         23    2    4    4    0    0 -0.10204863569E+04 -0.64206675513E+01  0.11803610897E+03  0.10316071263E+04  0.94059080119E+02 0.  0.
          4    1    3    3  502    0  0.35053754841E+03 -0.40459643354E+02  0.10014814269E+03  0.36680131689E+03  0.00000000000E+00 0. -1.
         -3    1    3    3    0  502  0.74089137566E+03 -0.51252306293E+02  0.32819918051E+03  0.81194921732E+03  0.00000000000E+00 0.  1.
         11    1    5    5    0    0 -0.60124293866E+02  0.49079171835E+02 -0.31344902222E+03  0.32291482678E+03  0.00000000000E+00 0. -1.
        -11    1    5    5    0    0 -0.10818273341E+02  0.49053445363E+02 -0.56645815731E+02  0.75710131290E+02  0.00000000000E+00 0.  1.
          1    1    6    6  503    0 -0.49724272243E+03 -0.49453845718E+02  0.65642697414E+02  0.50398905900E+03  0.00000000000E+00 0. -1.
         -1    1    6    6    0  503 -0.52324363443E+03  0.43033178167E+02  0.52393411561E+02  0.52761806733E+03  0.00000000000E+00 0.  1.
<mgrwt>
<rscale>  0 0.26030199E+04</rscale>
<asrwt>0</asrwt>
<pdfrwt beam="1">  1        2 0.18713031E+00 0.26030199E+04</pdfrwt>
<pdfrwt beam="2">  1       -1 0.21425163E+00 0.26030199E+04</pdfrwt>
<totfact> 0.22453002E+00</totfact>
</mgrwt>
</event>
<event>
12    6  0.1611689E-007  0.1134334E+04  0.7818608E-02  0.9172359E-01
          2   -1    0    0  501    0  0.00000000000E+00  0.00000000000E+00  0.22020550263E+04  0.22020550263E+04  0.00000000000E+00 0. -1.
         -1   -1    0    0    0  501 -0.00000000000E+00 -0.00000000000E+00 -0.14608093040E+03  0.14608093040E+03  0.00000000000E+00 0.  1.
         24    2    1    2    0    0  0.61495893637E+02  0.10288051650E+03  0.55862041531E+02  0.15500904224E+03  0.80877004664E+02 0.  0.
        254    2    1    2    0    0 -0.61495893637E+02 -0.10288051650E+03  0.20001120543E+04  0.21931269144E+04  0.89162283914E+03 0.  0.
         23    2    4    4    0    0  0.26682831335E+03 -0.28533004541E+03  0.48648958358E+03  0.63089463576E+03  0.93516537973E+02 0.  0.
         23    2    4    4    0    0 -0.32832420699E+03  0.18244952891E+03  0.15136224707E+04  0.15622322787E+04  0.91826428938E+02 0.  0.
          4    1    3    3  502    0  0.67096063478E+02  0.57298503741E+02  0.63158826075E+02  0.10850823737E+03  0.00000000000E+00 0. -1.
         -3    1    3    3    0  502 -0.56001698413E+01  0.45582012760E+02 -0.72967845442E+01  0.46500804877E+02  0.00000000000E+00 0.  1.
         11    1    5    5    0    0  0.38397444473E+02 -0.10101954776E+03  0.12456495713E+03  0.16491131349E+03  0.00000000000E+00 0. -1.
        -11    1    5    5    0    0  0.22843086888E+03 -0.18431049765E+03  0.36192462646E+03  0.46598332227E+03  0.00000000000E+00 0.  1.
          2    1    6    6  503    0 -0.18804910144E+03  0.15353181194E+03  0.90638470915E+03  0.93833241594E+03  0.00000000000E+00 0. -1.
         -2    1    6    6    0  503 -0.14027510555E+03  0.28917716972E+02  0.60723776160E+03  0.62389986272E+03  0.00000000000E+00 0.  1.
<mgrwt>
<rscale>  0 0.11343337E+04</rscale>
<asrwt>0</asrwt>
<pdfrwt beam="1">  1        2 0.33877767E+00 0.11343337E+04</pdfrwt>
<pdfrwt beam="2">  1       -1 0.22473991E-01 0.11343337E+04</pdfrwt>
<totfact> 0.98039206E+01</totfact>
</mgrwt>
</event>
<event>
12    6  0.1611689E-007  0.1375675E+04  0.7818608E-02  0.8971617E-01
          2   -1    0    0  501    0  0.00000000000E+00  0.00000000000E+00  0.73914300177E+03  0.73914300177E+03  0.00000000000E+00 0. -1.
         -1   -1    0    0    0  501 -0.00000000000E+00 -0.00000000000E+00 -0.64009281183E+03  0.64009281183E+03  0.00000000000E+00 0.  1.
         24    2    1    2    0    0 -0.17419092856E+03 -0.23332802053E+03 -0.22588551150E+03  0.37714224012E+03  0.80172066334E+02 0.  0.
        254    2    1    2    0    0  0.17419092856E+03  0.23332802053E+03  0.32493570144E+03  0.10020935735E+04  0.90212187379E+03 0.  0.
         23    2    4    4    0    0 -0.26480529082E+03  0.38025974938E+03  0.11887076378E+03  0.48699034510E+03  0.91159303944E+02 0.  0.
         23    2    4    4    0    0  0.43899621938E+03 -0.14693172886E+03  0.20606493766E+03  0.51510322837E+03  0.92530880104E+02 0.  0.
          2    1    3    3  502    0  0.17250395603E+01  0.42224300721E+01  0.80305301662E+00  0.46313681937E+01  0.00000000000E+00 0. -1.
         -1    1    3    3    0  502 -0.17591596812E+03 -0.23755045060E+03 -0.22668856452E+03  0.37251087193E+03  0.00000000000E+00 0.  1.
         11    1    5    5    0    0 -0.52423690890E+02  0.14942182723E+03  0.32668299513E+02  0.16168594129E+03  0.00000000000E+00 0. -1.
        -11    1    5    5    0    0 -0.21238159993E+03  0.23083792216E+03  0.86202464268E+02  0.32530440381E+03  0.00000000000E+00 0.  1.
          2    1    6    6  503    0  0.38415716987E+01  0.35498010827E+01 -0.61831583526E+01  0.80987781830E+01  0.00000000000E+00 0. -1.
         -2    1    6    6    0  503  0.43515464768E+03 -0.15048152994E+03  0.21224809601E+03  0.50700445019E+03  0.00000000000E+00 0.  1.
<mgrwt>
<rscale>  0 0.13756746E+04</rscale>
<asrwt>0</asrwt>
<pdfrwt beam="1">  1        2 0.11371431E+00 0.13756746E+04</pdfrwt>
<pdfrwt beam="2">  1       -1 0.98475817E-01 0.13756746E+04</pdfrwt>
<totfact> 0.42023346E+01</totfact>
</mgrwt>
</event>
<event>
12    6  0.1611689E-007  0.1091475E+04  0.7818608E-02  0.9213541E-01
          2   -1    0    0  501    0  0.00000000000E+00  0.00000000000E+00  0.26929321157E+04  0.26929321157E+04  0.00000000000E+00 0. -1.
         -1   -1    0    0    0  501 -0.00000000000E+00 -0.00000000000E+00 -0.11059666720E+03  0.11059666720E+03  0.00000000000E+00 0.  1.
         24    2    1    2    0    0  0.77273384439E+02  0.33117785327E+02  0.77078932350E+03  0.77899092872E+03  0.75118054801E+02 0.  0.
        254    2    1    2    0    0 -0.77273384439E+02 -0.33117785327E+02  0.18115461250E+04  0.20245378542E+04  0.89999233128E+03 0.  0.
         23    2    4    4    0    0 -0.48010913205E+03  0.34293688131E+01  0.96182499300E+03  0.10791230852E+04  0.94248482935E+02 0.  0.
         23    2    4    4    0    0  0.40283574761E+03 -0.36547154140E+02  0.84972113197E+03  0.94541476898E+03  0.90392196977E+02 0.  0.
          4    1    3    3  502    0  0.68357717856E+02  0.52047829672E+02  0.69754589724E+03  0.70281721159E+03  0.00000000000E+00 0. -1.
         -3    1    3    3    0  502  0.89156665831E+01 -0.18930044345E+02  0.73243426269E+02  0.76173717128E+02  0.00000000000E+00 0.  1.
         11    1    5    5    0    0 -0.42373562661E+03  0.33491353613E+02  0.82210317711E+03  0.92548753954E+03  0.00000000000E+00 0.  1.
        -11    1    5    5    0    0 -0.56373505443E+02 -0.30061984800E+02  0.13972181589E+03  0.15363554563E+03  0.00000000000E+00 0. -1.
          2    1    6    6  503    0 -0.17539839793E+01  0.23208004582E+01 -0.57686708016E+00  0.29656955668E+01  0.00000000000E+00 0. -1.
         -2    1    6    6    0  503  0.40458973159E+03 -0.38867954598E+02  0.85029799905E+03  0.94244907342E+03  0.00000000000E+00 0.  1.
<mgrwt>
<rscale>  0 0.10914748E+04</rscale>
<asrwt>0</asrwt>
<pdfrwt beam="1">  1        2 0.41429720E+00 0.10914748E+04</pdfrwt>
<pdfrwt beam="2">  1       -1 0.17014874E-01 0.10914748E+04</pdfrwt>
<totfact> 0.82219751E+01</totfact>
</mgrwt>
</event>
<event>
12    6  0.1611689E-007  0.1381158E+04  0.7818608E-02  0.8967571E-01
         -1   -1    0    0    0  501 -0.00000000000E+00  0.00000000000E+00  0.10473471922E+04  0.10473471922E+04  0.00000000000E+00 0.  1.
          2   -1    0    0  501    0  0.00000000000E+00 -0.00000000000E+00 -0.45534037002E+03  0.45534037002E+03  0.00000000000E+00 0. -1.
         24    2    1    2    0    0 -0.22210560495E+03 -0.23657940759E+03 -0.63953158082E+02  0.34011556180E+03  0.79296110259E+02 0.  0.
        254    2    1    2    0    0  0.22210560495E+03  0.23657940759E+03  0.65595998031E+03  0.11625720005E+04  0.90332134074E+03 0.  0.
         23    2    4    4    0    0  0.37718839274E+03  0.49643692387E+03  0.34277215566E+03  0.71686018322E+03  0.87607468815E+02 0.  0.
         23    2    4    4    0    0 -0.15508278779E+03 -0.25985751628E+03  0.31318782465E+03  0.44571181723E+03  0.94846247581E+02 0.  0.
          2    1    3    3  502    0 -0.20306897756E+03 -0.24014114309E+03 -0.62901345529E+02  0.32072006099E+03  0.00000000000E+00 0. -1.
         -1    1    3    3    0  502 -0.19036627394E+02  0.35617354920E+01 -0.10518125526E+01  0.19395500816E+02  0.00000000000E+00 0.  1.
         11    1    5    5    0    0  0.27141073427E+03  0.29431497272E+03  0.19766889278E+03  0.44649533146E+03  0.00000000000E+00 0. -1.
        -11    1    5    5    0    0  0.10577765847E+03  0.20212195115E+03  0.14510326288E+03  0.27036485176E+03  0.00000000000E+00 0.  1.
          4    1    6    6  503    0 -0.72259100493E+02 -0.50529818292E+02  0.12097888085E+03  0.14970146877E+03  0.00000000000E+00 0. -1.
         -4    1    6    6    0  503 -0.82823687297E+02 -0.20932769798E+03  0.19220894380E+03  0.29601034846E+03  0.00000000000E+00 0.  1.
<mgrwt>
<rscale>  0 0.13811581E+04</rscale>
<asrwt>0</asrwt>
<pdfrwt beam="1">  1        2 0.70052365E-01 0.13811581E+04</pdfrwt>
<pdfrwt beam="2">  1       -1 0.16113034E+00 0.13811581E+04</pdfrwt>
<totfact> 0.21916388E+01</totfact>
</mgrwt>
</event>
<event>
12    6  0.1611689E-007  0.1535290E+04  0.7818608E-02  0.8861319E-01
          2   -1    0    0  501    0  0.00000000000E+00  0.00000000000E+00  0.28573365451E+04  0.28573365451E+04  0.00000000000E+00 0. -1.
         -1   -1    0    0    0  501 -0.00000000000E+00 -0.00000000000E+00 -0.20623368832E+03  0.20623368832E+03  0.00000000000E+00 0.  1.
         24    2    1    2    0    0  0.21369339227E+02  0.43318362745E+03  0.38028830381E+03  0.58244214279E+03  0.80715252163E+02 0.  0.
        254    2    1    2    0    0 -0.21369339227E+02 -0.43318362745E+03  0.22708145529E+04  0.24811280906E+04  0.90071813814E+03 0.  0.
         23    2    4    4    0    0 -0.11584595911E+03  0.22860712025E+03  0.10657551880E+04  0.11001153634E+04  0.93478287802E+02 0.  0.
         23    2    4    4    0    0  0.94476619879E+02 -0.66179074770E+03  0.12050593649E+04  0.13810127272E+04  0.90195644578E+02 0.  0.
          4    1    3    3  502    0  0.20122244480E+02  0.24064691528E+03  0.26272283149E+03  0.35684608551E+03  0.00000000000E+00 0. -1.
         -3    1    3    3    0  502  0.12470947468E+01  0.19253671217E+03  0.11756547232E+03  0.22559605728E+03  0.00000000000E+00 0.  1.
         11    1    5    5    0    0 -0.30735747960E+02  0.15065205819E+03  0.51824094765E+03  0.54056859755E+03  0.00000000000E+00 0.  1.
        -11    1    5    5    0    0 -0.85110211145E+02  0.77955062056E+02  0.54751424040E+03  0.55954676585E+03  0.00000000000E+00 0. -1.
          2    1    6    6  503    0 -0.45337810312E+01 -0.10207775649E+03  0.13443665935E+03  0.16885982031E+03  0.00000000000E+00 0. -1.
         -2    1    6    6    0  503  0.99010400910E+02 -0.55971299122E+03  0.10706227055E+04  0.12121529069E+04  0.00000000000E+00 0.  1.
<mgrwt>
<rscale>  0 0.15352903E+04</rscale>
<asrwt>0</asrwt>
<pdfrwt beam="1">  1        2 0.43959021E+00 0.15352903E+04</pdfrwt>
<pdfrwt beam="2">  1       -1 0.31728262E-01 0.15352903E+04</pdfrwt>
<totfact> 0.21761815E+01</totfact>
</mgrwt>
</event>
<event>
12    6  0.1611689E-007  0.1985496E+04  0.7818608E-02  0.8613432E-01
         -1   -1    0    0    0  501 -0.00000000000E+00  0.00000000000E+00  0.45555106919E+03  0.45555106919E+03  0.00000000000E+00 0.  1.
          2   -1    0    0  501    0  0.00000000000E+00 -0.00000000000E+00 -0.21634216221E+04  0.21634216221E+04  0.00000000000E+00 0. -1.
         24    2    1    2    0    0 -0.29889833020E+03  0.10892752189E+03  0.25923004924E+03  0.41765324681E+03  0.77644055297E+02 0.  0.
        254    2    1    2    0    0  0.29889833020E+03 -0.10892752189E+03 -0.19671006021E+04  0.22013194445E+04  0.93547693764E+03 0.  0.
         23    2    4    4    0    0  0.17181099170E+03  0.96673331006E+02 -0.37000497864E+01  0.22080415053E+03  0.99378230644E+02 0.  0.
         23    2    4    4    0    0  0.12708733850E+03 -0.20560085289E+03 -0.19634005523E+04  0.19805152939E+04  0.95269083419E+02 0.  0.
          2    1    3    3  502    0 -0.14707306549E+03  0.24982567939E+02  0.15565862171E+03  0.21560199861E+03  0.00000000000E+00 0. -1.
         -1    1    3    3    0  502 -0.15182526471E+03  0.83944953948E+02  0.10357142752E+03  0.20205124820E+03  0.00000000000E+00 0.  1.
         11    1    5    5    0    0  0.17656432698E+03  0.64531313074E+02 -0.71958363619E+01  0.18812504349E+03  0.00000000000E+00 0.  1.
        -11    1    5    5    0    0 -0.47533352770E+01  0.32142017931E+02  0.34957865755E+01  0.32679107037E+02  0.00000000000E+00 0. -1.
          3    1    6    6  503    0  0.36292740962E+02 -0.10913035358E+03 -0.61815573061E+03  0.62876315446E+03  0.00000000000E+00 0. -1.
         -3    1    6    6    0  503  0.90794597535E+02 -0.96470499308E+02 -0.13452448217E+04  0.13517521395E+04  0.00000000000E+00 0.  1.
<mgrwt>
<rscale>  0 0.19854964E+04</rscale>
<asrwt>0</asrwt>
<pdfrwt beam="1">  1        2 0.33283409E+00 0.19854964E+04</pdfrwt>
<pdfrwt beam="2">  1       -1 0.70084781E-01 0.19854964E+04</pdfrwt>
<totfact> 0.11800298E+01</totfact>
</mgrwt>
</event>
<event>
12    6  0.1611689E-007  0.2122685E+04  0.7818608E-02  0.8551316E-01
         -1   -1    0    0    0  501 -0.00000000000E+00  0.00000000000E+00  0.63082985346E+03  0.63082985346E+03  0.00000000000E+00 0.  1.
          2   -1    0    0  501    0  0.00000000000E+00 -0.00000000000E+00 -0.17856603121E+04  0.17856603121E+04  0.00000000000E+00 0. -1.
         24    2    1    2    0    0 -0.40525540116E+03 -0.18656000502E+03 -0.13015183590E+04  0.13782083743E+04  0.80446929997E+02 0.  0.
        254    2    1    2    0    0  0.40525540116E+03  0.18656000502E+03  0.14668790034E+03  0.10382817913E+04  0.92599954770E+03 0.  0.
         23    2    4    4    0    0  0.33678940059E+03  0.34869418716E+03  0.45497530777E+03  0.67094968789E+03  0.90311773891E+02 0.  0.
         23    2    4    4    0    0  0.68466000569E+02 -0.16213418213E+03 -0.30828740742E+03  0.36733210338E+03  0.94428080286E+02 0.  0.
          2    1    3    3  502    0 -0.31513612799E+03 -0.14317950256E+03 -0.89591506857E+03  0.96045559981E+03  0.00000000000E+00 0. -1.
         -1    1    3    3    0  502 -0.90119273170E+02 -0.43380502465E+02 -0.40560329038E+03  0.41775277445E+03  0.00000000000E+00 0.  1.
         11    1    5    5    0    0  0.36992853259E+02  0.55383164860E+01  0.32026580247E+02  0.49242725189E+02  0.00000000000E+00 0. -1.
        -11    1    5    5    0    0  0.29979654733E+03  0.34315587067E+03  0.42294872752E+03  0.62170696270E+03  0.00000000000E+00 0.  1.
          4    1    6    6  503    0  0.55704309730E+02 -0.15813571398E+03 -0.31134114716E+03  0.35361445682E+03  0.00000000000E+00 0.  1.
         -4    1    6    6    0  503  0.12761690839E+02 -0.39984681579E+01  0.30537397379E+01  0.13717646557E+02  0.00000000000E+00 0. -1.
<mgrwt>
<rscale>  0 0.21226849E+04</rscale>
<asrwt>0</asrwt>
<pdfrwt beam="1">  1        2 0.27471697E+00 0.21226849E+04</pdfrwt>
<pdfrwt beam="2">  1       -1 0.97050747E-01 0.21226849E+04</pdfrwt>
<totfact> 0.93921381E+00</totfact>
</mgrwt>
</event>
<event>
12    6  0.1611689E-007  0.2306269E+04  0.7818608E-02  0.8475453E-01
          2   -1    0    0  501    0  0.00000000000E+00  0.00000000000E+00  0.18062619326E+04  0.18062619326E+04  0.00000000000E+00 0. -1.
         -1   -1    0    0    0  501 -0.00000000000E+00 -0.00000000000E+00 -0.73617182713E+03  0.73617182713E+03  0.00000000000E+00 0.  1.
         24    2    1    2    0    0  0.80680393978E+03 -0.37820004972E+02 -0.15721732532E+03  0.82665132416E+03  0.79197060155E+02 0.  0.
        254    2    1    2    0    0 -0.80680393978E+03  0.37820004972E+02  0.12273074308E+04  0.17157824355E+04  0.88615060033E+03 0.  0.
         23    2    4    4    0    0 -0.58531750533E+03  0.12718553742E+03  0.13120217164E+04  0.14451319197E+04  0.90733334319E+02 0.  0.
         23    2    4    4    0    0 -0.22148643445E+03 -0.89365532448E+02 -0.84714285676E+02  0.27065051584E+03  0.95040793823E+02 0.  0.
          2    1    3    3  502    0  0.12303582239E+03 -0.35572366486E+01  0.45571791460E+01  0.12317156898E+03  0.00000000000E+00 0. -1.
         -1    1    3    3    0  502  0.68376811739E+03 -0.34262768323E+02 -0.16177450447E+03  0.70347975518E+03  0.00000000000E+00 0.  1.
         11    1    5    5    0    0 -0.31955493964E+03  0.48657698290E+02  0.60907788567E+03  0.68953520712E+03  0.00000000000E+00 0. -1.
        -11    1    5    5    0    0 -0.26576256569E+03  0.78527839130E+02  0.70294383077E+03  0.75559671258E+03  0.00000000000E+00 0.  1.
          1    1    6    6  503    0 -0.80984086729E+02 -0.22492726389E+02  0.15638711999E+02  0.85492188864E+02  0.00000000000E+00 0. -1.
         -1    1    6    6    0  503 -0.14050234772E+03 -0.66872806058E+02 -0.10035299767E+03  0.18515832697E+03  0.00000000000E+00 0.  1.
<mgrwt>
<rscale>  0 0.23062690E+04</rscale>
<asrwt>0</asrwt>
<pdfrwt beam="1">  1        2 0.27788645E+00 0.23062690E+04</pdfrwt>
<pdfrwt beam="2">  1       -1 0.11325721E+00 0.23062690E+04</pdfrwt>
<totfact> 0.62870428E+00</totfact>
</mgrwt>
</event>
<event>
12    6  0.1611689E-007  0.1428478E+04  0.7818608E-02  0.8933459E-01
         -1   -1    0    0    0  501 -0.00000000000E+00  0.00000000000E+00  0.23127833734E+03  0.23127833734E+03  0.00000000000E+00 0.  1.
          2   -1    0    0  501    0  0.00000000000E+00 -0.00000000000E+00 -0.22057301772E+04  0.22057301772E+04  0.00000000000E+00 0. -1.
         24    2    1    2    0    0  0.19525785548E+03 -0.12227778083E+03  0.12706182555E+02  0.24326046134E+03  0.77050108157E+02 0.  0.
        254    2    1    2    0    0 -0.19525785548E+03  0.12227778083E+03 -0.19871580224E+04  0.21937480532E+04  0.90036438680E+03 0.  0.
         23    2    4    4    0    0  0.13040000129E+03  0.21102902592E+03 -0.11315370725E+03  0.28730723561E+03  0.90577458848E+02 0.  0.
         23    2    4    4    0    0 -0.32565785677E+03 -0.88751245088E+02 -0.18740043151E+04  0.19064408176E+04  0.93244809489E+02 0.  0.
          2    1    3    3  502    0  0.63519310903E+02 -0.23971424695E+02 -0.28765246082E+02  0.73734465765E+02  0.00000000000E+00 0. -1.
         -1    1    3    3    0  502  0.13173854457E+03 -0.98306356140E+02  0.41471428637E+02  0.16952599558E+03  0.00000000000E+00 0.  1.
         11    1    5    5    0    0  0.10643602050E+02  0.25984983718E+02 -0.51127101974E+02  0.58330834039E+02  0.00000000000E+00 0.  1.
        -11    1    5    5    0    0  0.11975639924E+03  0.18504404220E+03 -0.62026605273E+02  0.22897640157E+03  0.00000000000E+00 0. -1.
          1    1    6    6  503    0 -0.24581954881E+03 -0.36602902482E+02 -0.15012015106E+04  0.15216349755E+04  0.00000000000E+00 0. -1.
         -1    1    6    6    0  503 -0.79838307960E+02 -0.52148342606E+02 -0.37280280451E+03  0.38480584208E+03  0.00000000000E+00 0.  1.
<mgrwt>
<rscale>  0 0.14284784E+04</rscale>
<asrwt>0</asrwt>
<pdfrwt beam="1">  1        2 0.33934312E+00 0.14284784E+04</pdfrwt>
<pdfrwt beam="2">  1       -1 0.35581281E-01 0.14284784E+04</pdfrwt>
<totfact> 0.42779848E+01</totfact>
</mgrwt>
</event>
<event>
12    6  0.1611689E-007  0.1285572E+04  0.7818608E-02  0.9041085E-01
         -1   -1    0    0    0  501 -0.00000000000E+00  0.00000000000E+00  0.28017857974E+03  0.28017857974E+03  0.00000000000E+00 0.  1.
          2   -1    0    0  501    0  0.00000000000E+00 -0.00000000000E+00 -0.14746813373E+04  0.14746813373E+04  0.00000000000E+00 0. -1.
         24    2    1    2    0    0 -0.18272283360E+03  0.18056302552E+03 -0.59819758934E+03  0.65590181215E+03  0.79851056241E+02 0.  0.
        254    2    1    2    0    0  0.18272283360E+03 -0.18056302552E+03 -0.59630516818E+03  0.10989581048E+04  0.88664447356E+03 0.  0.
         23    2    4    4    0    0  0.36109839325E+03  0.31399570582E+02  0.60082817661E+02  0.38051920295E+03  0.99029976260E+02 0.  0.
         23    2    4    4    0    0 -0.17837555965E+03 -0.21196259610E+03 -0.65638798584E+03  0.71843890189E+03  0.92538021197E+02 0.  0.
          4    1    3    3  502    0 -0.16947907749E+03  0.16512993139E+03 -0.58651525822E+03  0.63244857504E+03  0.00000000000E+00 0. -1.
         -3    1    3    3    0  502 -0.13243756116E+02  0.15433094129E+02 -0.11682331122E+02  0.23453237109E+02  0.00000000000E+00 0.  1.
         11    1    5    5    0    0  0.11606971765E+03 -0.35854547178E+01  0.64758765294E+02  0.13296139486E+03  0.00000000000E+00 0. -1.
        -11    1    5    5    0    0  0.24502867560E+03  0.34985025300E+02 -0.46759476329E+01  0.24755780809E+03  0.00000000000E+00 0.  1.
          3    1    6    6  503    0 -0.83433505542E+02 -0.39138590342E+02 -0.25704387850E+03  0.27306507388E+03  0.00000000000E+00 0. -1.
         -3    1    6    6    0  503 -0.94942054104E+02 -0.17282400576E+03 -0.39934410734E+03  0.44537382800E+03  0.00000000000E+00 0.  1.
<mgrwt>
<rscale>  0 0.12855724E+04</rscale>
<asrwt>0</asrwt>
<pdfrwt beam="1">  1        2 0.22687405E+00 0.12855724E+04</pdfrwt>
<pdfrwt beam="2">  1       -1 0.43104397E-01 0.12855724E+04</pdfrwt>
<totfact> 0.77808177E+01</totfact>
</mgrwt>
</event>
<event>
12    6  0.1611689E-007  0.1683393E+04  0.7818608E-02  0.8770893E-01
          2   -1    0    0  501    0  0.00000000000E+00  0.00000000000E+00  0.99195661600E+03  0.99195661600E+03  0.00000000000E+00 0. -1.
         -1   -1    0    0    0  501 -0.00000000000E+00 -0.00000000000E+00 -0.71419784640E+03  0.71419784640E+03  0.00000000000E+00 0.  1.
         24    2    1    2    0    0  0.47252368430E+03 -0.36866532560E+03  0.98157258689E+02  0.61250905312E+03  0.79622472935E+02 0.  0.
        254    2    1    2    0    0 -0.47252368430E+03  0.36866532560E+03  0.17960151091E+03  0.10936454093E+04  0.89700101670E+03 0.  0.
         23    2    4    4    0    0 -0.21396518662E+03 -0.19124378182E+03 -0.20175392808E+03  0.36300852481E+03  0.93355537676E+02 0.  0.
         23    2    4    4    0    0 -0.25855849768E+03  0.55990910743E+03  0.38135543899E+03  0.73063688446E+03  0.89708309456E+02 0.  0.
          2    1    3    3  502    0  0.30272189139E+03 -0.25957300084E+03  0.98192564438E+02  0.41068292636E+03  0.00000000000E+00 0. -1.
         -1    1    3    3    0  502  0.16980179291E+03 -0.10909232477E+03 -0.35305748886E-01  0.20182612677E+03  0.00000000000E+00 0.  1.
         11    1    5    5    0    0 -0.73899868219E+01 -0.42964849999E+01 -0.39885465097E+02  0.40791200210E+02  0.00000000000E+00 0. -1.
        -11    1    5    5    0    0 -0.20657519980E+03 -0.18694729682E+03 -0.16186846298E+03  0.32221732459E+03  0.00000000000E+00 0.  1.
          1    1    6    6  503    0  0.21631431320E+01  0.43835388267E+02  0.38838284561E+02  0.58605740336E+02  0.00000000000E+00 0. -1.
         -1    1    6    6    0  503 -0.26072164082E+03  0.51607371916E+03  0.34251715443E+03  0.67203114413E+03  0.00000000000E+00 0.  1.
<mgrwt>
<rscale>  0 0.16833933E+04</rscale>
<asrwt>0</asrwt>
<pdfrwt beam="1">  1        2 0.15260871E+00 0.16833933E+04</pdfrwt>
<pdfrwt beam="2">  1       -1 0.10987659E+00 0.16833933E+04</pdfrwt>
<totfact> 0.21208497E+01</totfact>
</mgrwt>
</event>
<event>
12    6  0.1611689E-007  0.1675934E+04  0.7818608E-02  0.8775210E-01
          2   -1    0    0  501    0  0.00000000000E+00  0.00000000000E+00  0.22625897663E+04  0.22625897663E+04  0.00000000000E+00 0. -1.
         -1   -1    0    0    0  501 -0.00000000000E+00 -0.00000000000E+00 -0.31034733401E+03  0.31034733401E+03  0.00000000000E+00 0.  1.
         24    2    1    2    0    0 -0.88691617864E+00 -0.55109146593E+03  0.38030010106E+03  0.67438326658E+03  0.80386770877E+02 0.  0.
        254    2    1    2    0    0  0.88691617864E+00  0.55109146593E+03  0.15719423313E+04  0.18985538338E+04  0.91093434255E+03 0.  0.
         23    2    4    4    0    0  0.15333283816E+03 -0.16500237177E+03  0.11434547884E+03  0.26501046730E+03  0.80118145892E+02 0.  0.
         23    2    4    4    0    0 -0.15244592198E+03  0.71609383769E+03  0.14575968524E+04  0.16335433665E+04  0.88573147152E+02 0.  0.
          2    1    3    3  502    0  0.50075536179E+01 -0.14537518894E+03  0.59633311737E+02  0.15721053724E+03  0.00000000000E+00 0. -1.
         -1    1    3    3    0  502 -0.58944697965E+01 -0.40571627699E+03  0.32066678933E+03  0.51717272933E+03  0.00000000000E+00 0.  1.
         11    1    5    5    0    0  0.11576079889E+03 -0.69121049133E+02  0.78243305157E+02  0.15588552465E+03  0.00000000000E+00 0. -1.
        -11    1    5    5    0    0  0.37572039276E+02 -0.95881322632E+02  0.36102173681E+02  0.10912494266E+03  0.00000000000E+00 0.  1.
          1    1    6    6  503    0 -0.15666282269E+03  0.56593924232E+03  0.11677083165E+04  0.13070475042E+04  0.00000000000E+00 0. -1.
         -1    1    6    6    0  503  0.42169007053E+01  0.15015459537E+03  0.28988853599E+03  0.32649586224E+03  0.00000000000E+00 0.  1.
<mgrwt>
<rscale>  0 0.16759340E+04</rscale>
<asrwt>0</asrwt>
<pdfrwt beam="1">  1        2 0.34809072E+00 0.16759340E+04</pdfrwt>
<pdfrwt beam="2">  1       -1 0.47745745E-01 0.16759340E+04</pdfrwt>
<totfact> 0.22661473E+01</totfact>
</mgrwt>
</event>
<event>
12    6  0.1611689E-007  0.1976875E+04  0.7818608E-02  0.8617509E-01
         -1   -1    0    0    0  501 -0.00000000000E+00  0.00000000000E+00  0.51207737043E+03  0.51207737043E+03  0.00000000000E+00 0.  1.
          2   -1    0    0  501    0  0.00000000000E+00 -0.00000000000E+00 -0.19079310970E+04  0.19079310970E+04  0.00000000000E+00 0. -1.
         24    2    1    2    0    0 -0.43061710275E+03  0.60090916918E+03 -0.85232933063E+03  0.11312692097E+04  0.82351795417E+02 0.  0.
        254    2    1    2    0    0  0.43061710275E+03 -0.60090916918E+03 -0.54352439594E+03  0.12887392577E+04  0.90493490739E+03 0.  0.
         23    2    4    4    0    0  0.92351404888E+01 -0.26515392653E+03  0.21523017037E+03  0.35362802718E+03  0.91306422543E+02 0.  0.
         23    2    4    4    0    0  0.42138196226E+03 -0.33575524265E+03 -0.75875456631E+03  0.93511123053E+03  0.91816014305E+02 0.  0.
          4    1    3    3  502    0 -0.17367202281E+03  0.22493471267E+03 -0.26968630562E+03  0.39177582864E+03  0.00000000000E+00 0. -1.
         -3    1    3    3    0  502 -0.25694507994E+03  0.37597445651E+03 -0.58264302501E+03  0.73949338107E+03  0.00000000000E+00 0.  1.
         11    1    5    5    0    0  0.25069582045E+02 -0.24227723909E+03  0.15895101109E+03  0.29084732842E+03  0.00000000000E+00 0. -1.
        -11    1    5    5    0    0 -0.15834441556E+02 -0.22876687443E+02  0.56279159278E+02  0.62780698760E+02  0.00000000000E+00 0.  1.
          2    1    6    6  503    0  0.16717344420E+03 -0.10050056864E+03 -0.33679777675E+03  0.38920440281E+03  0.00000000000E+00 0. -1.
         -2    1    6    6    0  503  0.25420851806E+03 -0.23525467400E+03 -0.42195678957E+03  0.54590682772E+03  0.00000000000E+00 0.  1.
<mgrwt>
<rscale>  0 0.19768746E+04</rscale>
<asrwt>0</asrwt>
<pdfrwt beam="1">  1        2 0.29352787E+00 0.19768746E+04</pdfrwt>
<pdfrwt beam="2">  1       -1 0.78781132E-01 0.19768746E+04</pdfrwt>
<totfact> 0.12839692E+01</totfact>
</mgrwt>
</event>
<event>
12    6  0.1611689E-007  0.2042421E+04  0.7818608E-02  0.8587040E-01
          2   -1    0    0  501    0  0.00000000000E+00  0.00000000000E+00  0.30236366016E+04  0.30236366016E+04  0.00000000000E+00 0. -1.
         -1   -1    0    0    0  501 -0.00000000000E+00 -0.00000000000E+00 -0.34490611731E+03  0.34490611731E+03  0.00000000000E+00 0.  1.
         24    2    1    2    0    0 -0.68340093659E+02 -0.19399619640E+03  0.24049446821E+04  0.24150393124E+04  0.79693563566E+02 0.  0.
        254    2    1    2    0    0  0.68340093659E+02  0.19399619640E+03  0.27378580220E+03  0.95350340648E+03  0.88989054836E+03 0.  0.
         23    2    4    4    0    0 -0.26181208622E+03  0.25107267487E+03  0.43247006012E+03  0.57175139497E+03  0.91028831688E+02 0.  0.
         23    2    4    4    0    0  0.33015217988E+03 -0.57076478468E+02 -0.15868425792E+03  0.38175201151E+03  0.91080833925E+02 0.  0.
          4    1    3    3  502    0 -0.54735289570E+02 -0.18412663618E+03  0.23428042238E+04  0.23506659059E+04  0.00000000000E+00 0. -1.
         -3    1    3    3    0  502 -0.13604804090E+02 -0.98695602217E+01  0.62140458297E+02  0.64373406548E+02  0.00000000000E+00 0.  1.
         11    1    5    5    0    0 -0.19693053997E+03  0.14397023578E+03  0.24059135784E+03  0.34262700978E+03  0.00000000000E+00 0.  1.
        -11    1    5    5    0    0 -0.64881546252E+02  0.10710243908E+03  0.19187870228E+03  0.22912438519E+03  0.00000000000E+00 0. -1.
          3    1    6    6  503    0  0.62310591536E+02 -0.44405067512E+02 -0.55143126344E+02  0.94314284291E+02  0.00000000000E+00 0. -1.
         -3    1    6    6    0  503  0.26784158834E+03 -0.12671410956E+02 -0.10354113157E+03  0.28743772722E+03  0.00000000000E+00 0.  1.
<mgrwt>
<rscale>  0 0.20424209E+04</rscale>
<asrwt>0</asrwt>
<pdfrwt beam="1">  1        2 0.46517484E+00 0.20424209E+04</pdfrwt>
<pdfrwt beam="2">  1       -1 0.53062482E-01 0.20424209E+04</pdfrwt>
<totfact> 0.63642376E+00</totfact>
</mgrwt>
</event>
<event>
12    6  0.1611689E-007  0.1669951E+04  0.7818608E-02  0.8778691E-01
          2   -1    0    0  501    0  0.00000000000E+00  0.00000000000E+00  0.11625291579E+04  0.11625291579E+04  0.00000000000E+00 0. -1.
         -1   -1    0    0    0  501 -0.00000000000E+00 -0.00000000000E+00 -0.59971299032E+03  0.59971299032E+03  0.00000000000E+00 0.  1.
         24    2    1    2    0    0  0.20634133308E+03  0.10044370601E+02 -0.38532930584E+03  0.44458685351E+03  0.80629778972E+02 0.  0.
        254    2    1    2    0    0 -0.20634133308E+03 -0.10044370601E+02  0.94814547338E+03  0.13176552947E+04  0.89137983024E+03 0.  0.
         23    2    4    4    0    0  0.23496818570E+03 -0.53768472727E+02  0.80135295733E+03  0.84177406355E+03  0.91191638319E+02 0.  0.
         23    2    4    4    0    0 -0.44130951877E+03  0.43724102126E+02  0.14679251605E+03  0.47588123112E+03  0.90824087618E+02 0.  0.
          4    1    3    3  502    0  0.15262801901E+02  0.66802224884E+01 -0.26883662656E+01  0.16876190551E+02  0.00000000000E+00 0. -1.
         -3    1    3    3    0  502  0.19107853118E+03  0.33641481130E+01 -0.38264093958E+03  0.42771066296E+03  0.00000000000E+00 0.  1.
         11    1    5    5    0    0 -0.38485853940E+01  0.73648123718E+01  0.10498545318E+02  0.13389231666E+02  0.00000000000E+00 0. -1.
        -11    1    5    5    0    0  0.23881677109E+03 -0.61133285099E+02  0.79085441201E+03  0.82838483189E+03  0.00000000000E+00 0.  1.
          4    1    6    6  503    0 -0.41694344711E+03  0.53679217833E+02  0.15540049837E+03  0.44818814287E+03  0.00000000000E+00 0.  1.
         -4    1    6    6    0  503 -0.24366071660E+02 -0.99551157076E+01 -0.86079823152E+01  0.27693088243E+02  0.00000000000E+00 0. -1.
<mgrwt>
<rscale>  0 0.16699507E+04</rscale>
<asrwt>0</asrwt>
<pdfrwt beam="1">  1        2 0.17885064E+00 0.16699507E+04</pdfrwt>
<pdfrwt beam="2">  1       -1 0.92263537E-01 0.16699507E+04</pdfrwt>
<totfact> 0.24809605E+01</totfact>
</mgrwt>
</event>
<event>
12    6  0.1611689E-007  0.1246212E+04  0.7818608E-02  0.9073342E-01
          2   -1    0    0  501    0  0.00000000000E+00  0.00000000000E+00  0.16409582552E+04  0.16409582552E+04  0.00000000000E+00 0. -1.
         -1   -1    0    0    0  501 -0.00000000000E+00 -0.00000000000E+00 -0.23660619290E+03  0.23660619290E+03  0.00000000000E+00 0.  1.
         24    2    1    2    0    0  0.21803611869E+03  0.93491922320E+02  0.60358296124E+03  0.65286167293E+03  0.75069862706E+02 0.  0.
        254    2    1    2    0    0 -0.21803611869E+03 -0.93491922320E+02  0.80076910108E+03  0.12247027752E+04  0.89575959147E+03 0.  0.
         23    2    4    4    0    0 -0.10272768285E+03 -0.30140317940E+03 -0.51793145189E+02  0.33503183593E+03  0.90371166997E+02 0.  0.
         23    2    4    4    0    0 -0.11530843584E+03  0.20791125708E+03  0.85256224627E+03  0.88967093926E+03  0.90160247346E+02 0.  0.
          2    1    3    3  502    0  0.20705514740E+03  0.65598966213E+02  0.50259939879E+03  0.54752279779E+03  0.00000000000E+00 0. -1.
         -1    1    3    3    0  502  0.10980971291E+02  0.27892956107E+02  0.10098356245E+03  0.10533887514E+03  0.00000000000E+00 0.  1.
         11    1    5    5    0    0 -0.20051462753E+01 -0.13632034755E+03 -0.35977049639E+02  0.14100214845E+03  0.00000000000E+00 0. -1.
        -11    1    5    5    0    0 -0.10072253657E+03 -0.16508283185E+03 -0.15816095550E+02  0.19402968748E+03  0.00000000000E+00 0.  1.
          3    1    6    6  503    0 -0.36625840558E+02  0.74251251980E+02  0.16229574021E+03  0.18219387450E+03  0.00000000000E+00 0. -1.
         -3    1    6    6    0  503 -0.78682595284E+02  0.13366000510E+03  0.69026650606E+03  0.70747706475E+03  0.00000000000E+00 0.  1.
<mgrwt>
<rscale>  0 0.12462117E+04</rscale>
<asrwt>0</asrwt>
<pdfrwt beam="1">  1        2 0.25245511E+00 0.12462117E+04</pdfrwt>
<pdfrwt beam="2">  1       -1 0.36400954E-01 0.12462117E+04</pdfrwt>
<totfact> 0.85710360E+01</totfact>
</mgrwt>
</event>
<event>
12    6  0.1611689E-007  0.2380579E+04  0.7818608E-02  0.8446810E-01
          2   -1    0    0  501    0  0.00000000000E+00  0.00000000000E+00  0.16571811082E+04  0.16571811082E+04  0.00000000000E+00 0. -1.
         -1   -1    0    0    0  501 -0.00000000000E+00 -0.00000000000E+00 -0.85493954708E+03  0.85493954708E+03  0.00000000000E+00 0.  1.
         24    2    1    2    0    0  0.41156830452E+03  0.23563400655E+03  0.13054607798E+04  0.13913915493E+04  0.82648300068E+02 0.  0.
        254    2    1    2    0    0 -0.41156830452E+03 -0.23563400655E+03 -0.50321921867E+03  0.11207291060E+04  0.88198202514E+03 0.  0.
         23    2    4    4    0    0  0.86711672163E+02 -0.32716948168E+03 -0.49557781906E+03  0.60620711379E+03  0.85620711479E+02 0.  0.
         23    2    4    4    0    0 -0.49827997668E+03  0.91535475126E+02 -0.76413996150E+01  0.51452199222E+03  0.89514306777E+02 0.  0.
          4    1    3    3  502    0  0.29903129316E+03  0.14920610149E+03  0.81609970612E+03  0.88187352004E+03  0.00000000000E+00 0. -1.
         -3    1    3    3    0  502  0.11253701136E+03  0.86427905055E+02  0.48936107372E+03  0.50951802928E+03  0.00000000000E+00 0.  1.
         11    1    5    5    0    0  0.10174066737E+03 -0.24050008660E+03 -0.37409524756E+03  0.45622221482E+03  0.00000000000E+00 0. -1.
        -11    1    5    5    0    0 -0.15028995202E+02 -0.86669395073E+02 -0.12148257150E+03  0.14998489896E+03  0.00000000000E+00 0.  1.
          4    1    6    6  503    0 -0.32345172818E+03  0.78423568927E+02  0.33302615754E+02  0.33448518778E+03  0.00000000000E+00 0.  1.
         -4    1    6    6    0  503 -0.17482824850E+03  0.13111906199E+02 -0.40944015369E+02  0.18003680444E+03  0.00000000000E+00 0. -1.
<mgrwt>
<rscale>  0 0.23805795E+04</rscale>
<asrwt>0</asrwt>
<pdfrwt beam="1">  1        2 0.25495094E+00 0.23805795E+04</pdfrwt>
<pdfrwt beam="2">  1       -1 0.13152916E+00 0.23805795E+04</pdfrwt>
<totfact> 0.52315405E+00</totfact>
</mgrwt>
</event>
<event>
12    6  0.1611689E-007  0.1756676E+04  0.7818608E-02  0.8729684E-01
          2   -1    0    0  501    0  0.00000000000E+00  0.00000000000E+00  0.26473383889E+04  0.26473383889E+04  0.00000000000E+00 0. -1.
         -1   -1    0    0    0  501 -0.00000000000E+00 -0.00000000000E+00 -0.29141626553E+03  0.29141626553E+03  0.00000000000E+00 0.  1.
         24    2    1    2    0    0 -0.49294286720E+03 -0.19278155877E+03  0.10812320691E+04  0.12064527399E+04  0.79423085092E+02 0.  0.
        254    2    1    2    0    0  0.49294286720E+03  0.19278155877E+03  0.12746900543E+04  0.17323019146E+04  0.10468418167E+04 0.  0.
         23    2    4    4    0    0  0.15681608519E+02  0.47008703435E+03  0.19762799428E+03  0.51862386447E+03  0.93199549216E+02 0.  0.
         23    2    4    4    0    0  0.47726125868E+03 -0.27730547558E+03  0.10770620600E+04  0.12136780501E+04  0.90967535249E+02 0.  0.
          2    1    3    3  502    0 -0.72751278430E+02 -0.17201406680E+02  0.21799472221E+03  0.23045679816E+03  0.00000000000E+00 0. -1.
         -1    1    3    3    0  502 -0.42019158877E+03 -0.17558015209E+03  0.86323734694E+03  0.97599594170E+03  0.00000000000E+00 0.  1.
         11    1    5    5    0    0 -0.18093787011E+00  0.40640182678E+03  0.20000289479E+03  0.45294992602E+03  0.00000000000E+00 0.  1.
        -11    1    5    5    0    0  0.15862546389E+02  0.63685207563E+02 -0.23749005165E+01  0.65673938459E+02  0.00000000000E+00 0. -1.
          4    1    6    6  503    0  0.46650889457E+03 -0.27069670503E+03  0.10720797056E+04  0.12001092242E+04  0.00000000000E+00 0. -1.
         -4    1    6    6    0  503  0.10752364107E+02 -0.66087705416E+01  0.49823543888E+01  0.13568825934E+02  0.00000000000E+00 0.  1.
<mgrwt>
<rscale>  0 0.17566758E+04</rscale>
<asrwt>0</asrwt>
<pdfrwt beam="1">  1        2 0.40728281E+00 0.17566758E+04</pdfrwt>
<pdfrwt beam="2">  1       -1 0.44833273E-01 0.17566758E+04</pdfrwt>
<totfact> 0.15211384E+01</totfact>
</mgrwt>
</event>
<event>
12    6  0.1611689E-007  0.2683101E+04  0.7818608E-02  0.8340509E-01
         -1   -1    0    0    0  501 -0.00000000000E+00  0.00000000000E+00  0.96813457614E+03  0.96813457614E+03  0.00000000000E+00 0.  1.
          2   -1    0    0  501    0  0.00000000000E+00 -0.00000000000E+00 -0.18589959038E+04  0.18589959038E+04  0.00000000000E+00 0. -1.
         24    2    1    2    0    0 -0.64567753731E+03  0.99678098650E+03 -0.30654601239E+03  0.12291181385E+04  0.79303993552E+02 0.  0.
        254    2    1    2    0    0  0.64567753731E+03 -0.99678098650E+03 -0.58431531532E+03  0.15980123415E+04  0.89540339435E+03 0.  0.
         23    2    4    4    0    0  0.17995746253E+03  0.81648499588E+02 -0.32934085879E+03  0.39255064401E+03  0.81113753708E+02 0.  0.
         23    2    4    4    0    0  0.46572007479E+03 -0.10784294861E+04 -0.25497445653E+03  0.12054616975E+04  0.90667447794E+02 0.  0.
          4    1    3    3  502    0 -0.13918991326E+03  0.21325387856E+03 -0.99753431447E+02  0.27349916958E+03  0.00000000000E+00 0. -1.
         -3    1    3    3    0  502 -0.50648762405E+03  0.78352710794E+03 -0.20679258094E+03  0.95561896890E+03  0.00000000000E+00 0.  1.
         11    1    5    5    0    0  0.24409203199E+02  0.22940569771E+02 -0.14486617536E+02  0.36495767287E+02  0.00000000000E+00 0.  1.
        -11    1    5    5    0    0  0.15554825933E+03  0.58707929818E+02 -0.31485424125E+03  0.35605487672E+03  0.00000000000E+00 0. -1.
          4    1    6    6  503    0  0.30001161204E+03 -0.64301044421E+03 -0.11355035480E+03  0.71858408123E+03  0.00000000000E+00 0. -1.
         -4    1    6    6    0  503  0.16570846274E+03 -0.43541904188E+03 -0.14142410174E+03  0.48687761626E+03  0.00000000000E+00 0.  1.
<mgrwt>
<rscale>  0 0.26831013E+04</rscale>
<asrwt>0</asrwt>
<pdfrwt beam="1">  1        2 0.28599937E+00 0.26831013E+04</pdfrwt>
<pdfrwt beam="2">  1       -1 0.14894378E+00 0.26831013E+04</pdfrwt>
<totfact> 0.28449336E+00</totfact>
</mgrwt>
</event>
<event>
12    6  0.1611689E-007  0.1444229E+04  0.7818608E-02  0.8922411E-01
          2   -1    0    0  501    0  0.00000000000E+00  0.00000000000E+00  0.49777687145E+03  0.49777687145E+03  0.00000000000E+00 0. -1.
         -1   -1    0    0    0  501 -0.00000000000E+00 -0.00000000000E+00 -0.10475565901E+04  0.10475565901E+04  0.00000000000E+00 0.  1.
         24    2    1    2    0    0 -0.28584492564E+03  0.27096902761E+03 -0.37945969035E+03  0.55264153025E+03  0.79318780398E+02 0.  0.
        254    2    1    2    0    0  0.28584492564E+03 -0.27096902761E+03 -0.17032002833E+03  0.99269193133E+03  0.89515184356E+03 0.  0.
         23    2    4    4    0    0  0.58594962466E+03 -0.14490966774E+03  0.87998286503E+01  0.61037506274E+03  0.90246915604E+02 0.  0.
         23    2    4    4    0    0 -0.30010469902E+03 -0.12605935987E+03 -0.17911985698E+03  0.38231686859E+03  0.90158040451E+02 0.  0.
          2    1    3    3  502    0 -0.39162608454E+02  0.66808058167E+02 -0.44794612447E+02  0.89462751138E+02  0.00000000000E+00 0. -1.
         -1    1    3    3    0  502 -0.24668231719E+03  0.20416096944E+03 -0.33466507790E+03  0.46317877911E+03  0.00000000000E+00 0.  1.
         11    1    5    5    0    0  0.68935557963E+02  0.12084089480E+02  0.78089549687E+00  0.69991043484E+02  0.00000000000E+00 0. -1.
        -11    1    5    5    0    0  0.51701406670E+03 -0.15699375722E+03  0.80189331535E+01  0.54038401925E+03  0.00000000000E+00 0.  1.
          4    1    6    6  503    0 -0.97437104854E+02 -0.65525103016E+02 -0.23567828453E+02  0.11976214371E+03  0.00000000000E+00 0.  1.
         -4    1    6    6    0  503 -0.20266759417E+03 -0.60534256851E+02 -0.15555202853E+03  0.26255472488E+03  0.00000000000E+00 0. -1.
<mgrwt>
<rscale>  0 0.14442291E+04</rscale>
<asrwt>0</asrwt>
<pdfrwt beam="1">  1        2 0.76581058E-01 0.14442291E+04</pdfrwt>
<pdfrwt beam="2">  1       -1 0.16116255E+00 0.14442291E+04</pdfrwt>
<totfact> 0.19663875E+01</totfact>
</mgrwt>
</event>
<event>
12    6  0.1611689E-007  0.1383795E+04  0.7818608E-02  0.8965633E-01
          2   -1    0    0  501    0  0.00000000000E+00  0.00000000000E+00  0.14740020150E+04  0.14740020150E+04  0.00000000000E+00 0. -1.
         -1   -1    0    0    0  501 -0.00000000000E+00 -0.00000000000E+00 -0.32477715630E+03  0.32477715630E+03  0.00000000000E+00 0.  1.
         24    2    1    2    0    0 -0.47685232137E+02  0.39107071143E+03  0.24341811546E+03  0.47122706689E+03  0.87134304010E+02 0.  0.
        254    2    1    2    0    0  0.47685232137E+02 -0.39107071143E+03  0.90580674319E+03  0.13275521044E+04  0.88696028722E+03 0.  0.
         23    2    4    4    0    0  0.14069281029E+03  0.97115648077E+02  0.78412917757E+03  0.80776135634E+03  0.91618370002E+02 0.  0.
         23    2    4    4    0    0 -0.93007578148E+02 -0.48818635950E+03  0.12167756562E+03  0.51979074802E+03  0.91655117468E+02 0.  0.
          4    1    3    3  502    0  0.10827704468E+01  0.44348245306E+02  0.63802027999E+02  0.77708674100E+02  0.00000000000E+00 0. -1.
         -3    1    3    3    0  502 -0.48768002584E+02  0.34672246612E+03  0.17961608746E+03  0.39351839279E+03  0.00000000000E+00 0.  1.
         11    1    5    5    0    0  0.20124976860E+02 -0.55663834601E+01  0.24405785151E+03  0.24494945234E+03  0.00000000000E+00 0. -1.
        -11    1    5    5    0    0  0.12056783343E+03  0.10268203154E+03  0.54007132606E+03  0.56281190400E+03  0.00000000000E+00 0.  1.
          1    1    6    6  503    0  0.13567978047E+02 -0.88081028914E+02  0.34524650721E+01  0.89186754610E+02  0.00000000000E+00 0. -1.
         -1    1    6    6    0  503 -0.10657555620E+03 -0.40010533059E+03  0.11822510055E+03  0.43060399341E+03  0.00000000000E+00 0.  1.
<mgrwt>
<rscale>  0 0.13837950E+04</rscale>
<asrwt>0</asrwt>
<pdfrwt beam="1">  1        2 0.22676954E+00 0.13837950E+04</pdfrwt>
<pdfrwt beam="2">  1       -1 0.49965717E-01 0.13837950E+04</pdfrwt>
<totfact> 0.58594652E+01</totfact>
</mgrwt>
</event>
<event>
12    6  0.1611689E-007  0.4251456E+04  0.7818608E-02  0.7955656E-01
         -1   -1    0    0    0  501 -0.00000000000E+00  0.00000000000E+00  0.11491884653E+04  0.11491884653E+04  0.00000000000E+00 0.  1.
          2   -1    0    0  501    0  0.00000000000E+00 -0.00000000000E+00 -0.39320960167E+04  0.39320960167E+04  0.00000000000E+00 0. -1.
         24    2    1    2    0    0  0.81888691117E+03  0.13443077333E+04  0.20101075028E+03  0.15888873504E+04  0.80116387028E+02 0.  0.
        254    2    1    2    0    0 -0.81888691117E+03 -0.13443077333E+04 -0.29839183017E+04  0.34923971316E+04  0.90295638811E+03 0.  0.
         23    2    4    4    0    0 -0.32638057023E+03 -0.69127420744E+03 -0.22878910845E+04  0.24140048848E+04  0.92680433878E+02 0.  0.
         23    2    4    4    0    0 -0.49250634094E+03 -0.65303352586E+03 -0.69602721719E+03  0.10783922468E+04  0.97265971476E+02 0.  0.
          4    1    3    3  502    0  0.14322745588E+03  0.26492049839E+03  0.66238314642E+02  0.30835772880E+03  0.00000000000E+00 0. -1.
         -3    1    3    3    0  502  0.67565945529E+03  0.10793872349E+04  0.13477243563E+03  0.12805296216E+04  0.00000000000E+00 0.  1.
         11    1    5    5    0    0 -0.12210318080E+03 -0.31014880999E+03 -0.87107913791E+03  0.93267375626E+03  0.00000000000E+00 0. -1.
        -11    1    5    5    0    0 -0.20427738943E+03 -0.38112539745E+03 -0.14168119466E+04  0.14813311285E+04  0.00000000000E+00 0.  1.
          2    1    6    6  503    0 -0.29069354836E+02 -0.50900084764E+02 -0.21741328476E+02  0.62518248404E+02  0.00000000000E+00 0. -1.
         -2    1    6    6    0  503 -0.46343698610E+03 -0.60213344110E+03 -0.67428588872E+03  0.10158739984E+04  0.00000000000E+00 0.  1.
<mgrwt>
<rscale>  0 0.42514559E+04</rscale>
<asrwt>0</asrwt>
<pdfrwt beam="1">  1        2 0.60493785E+00 0.42514559E+04</pdfrwt>
<pdfrwt beam="2">  1       -1 0.17679823E+00 0.42514559E+04</pdfrwt>
<totfact> 0.74372029E-02</totfact>
</mgrwt>
</event>
<event>
12    6  0.1611689E-007  0.1138792E+04  0.7818608E-02  0.9168186E-01
          2   -1    0    0  501    0  0.00000000000E+00  0.00000000000E+00  0.55352272970E+03  0.55352272970E+03  0.00000000000E+00 0. -1.
         -1   -1    0    0    0  501 -0.00000000000E+00 -0.00000000000E+00 -0.58572464865E+03  0.58572464865E+03  0.00000000000E+00 0.  1.
         24    2    1    2    0    0  0.82282858550E+02  0.14878170001E+03 -0.33779834693E+02  0.19230256829E+03  0.83263061858E+02 0.  0.
        254    2    1    2    0    0 -0.82282858550E+02 -0.14878170001E+03  0.15779157453E+01  0.94694481005E+03  0.93155543066E+03 0.  0.
         23    2    4    4    0    0  0.44049751049E+02 -0.48649360353E+03  0.18600839602E+03  0.53171125969E+03  0.97474783612E+02 0.  0.
         23    2    4    4    0    0 -0.12633260960E+03  0.33771190352E+03 -0.18443048028E+03  0.41523355037E+03  0.91624457800E+02 0.  0.
          2    1    3    3  502    0  0.66186807895E+02  0.13272559616E+03  0.38215356236E+01  0.14836233198E+03  0.00000000000E+00 0. -1.
         -1    1    3    3    0  502  0.16096050655E+02  0.16056103852E+02 -0.37601370316E+02  0.43940236313E+02  0.00000000000E+00 0.  1.
         11    1    5    5    0    0 -0.10491868832E+02 -0.25632278537E+03  0.13436280004E+03  0.28959421894E+03  0.00000000000E+00 0.  1.
        -11    1    5    5    0    0  0.54541619880E+02 -0.23017081817E+03  0.51645595981E+02  0.24211704074E+03  0.00000000000E+00 0. -1.
          4    1    6    6  503    0 -0.56992508753E+01  0.21844395692E+02 -0.43320969056E+02  0.48850439544E+02  0.00000000000E+00 0. -1.
         -4    1    6    6    0  503 -0.12063335872E+03  0.31586750783E+03 -0.14110951122E+03  0.36638311082E+03  0.00000000000E+00 0.  1.
<mgrwt>
<rscale>  0 0.11387922E+04</rscale>
<asrwt>0</asrwt>
<pdfrwt beam="1">  1        2 0.85157343E-01 0.11387922E+04</pdfrwt>
<pdfrwt beam="2">  1       -1 0.90111484E-01 0.11387922E+04</pdfrwt>
<totfact> 0.74572703E+01</totfact>
</mgrwt>
</event>
<event>
12    6  0.1611689E-007  0.2799880E+04  0.7818608E-02  0.8303306E-01
          2   -1    0    0  501    0  0.00000000000E+00  0.00000000000E+00  0.32274728829E+04  0.32274728829E+04  0.00000000000E+00 0. -1.
         -1   -1    0    0    0  501 -0.00000000000E+00 -0.00000000000E+00 -0.60723413866E+03  0.60723413866E+03  0.00000000000E+00 0.  1.
         24    2    1    2    0    0 -0.11674722664E+04  0.40246797694E+03  0.86594996091E+03  0.15103395355E+04  0.79273024832E+02 0.  0.
        254    2    1    2    0    0  0.11674722664E+04 -0.40246797694E+03  0.17542887833E+04  0.23243674860E+04  0.89452954637E+03 0.  0.
         23    2    4    4    0    0 -0.69509478877E+02  0.12922795933E+03  0.15459998352E+03  0.23147693655E+03  0.90271723831E+02 0.  0.
         23    2    4    4    0    0  0.12369817453E+04 -0.53169593627E+03  0.15996887998E+04  0.20928905494E+04  0.91445004720E+02 0.  0.
          4    1    3    3  502    0 -0.10052086513E+03  0.51983505654E+02  0.60521474648E+02  0.12833385399E+03  0.00000000000E+00 0. -1.
         -3    1    3    3    0  502 -0.10669514013E+04  0.35048447129E+03  0.80542848626E+03  0.13820056816E+04  0.00000000000E+00 0.  1.
         11    1    5    5    0    0 -0.71366904986E+02  0.97299405761E+02  0.66557412289E+02  0.13780529242E+03  0.00000000000E+00 0.  1.
        -11    1    5    5    0    0  0.18574261089E+01  0.31928553567E+02  0.88042571228E+02  0.93671644125E+02  0.00000000000E+00 0. -1.
          1    1    6    6  503    0  0.11017987100E+03 -0.47992566557E+02  0.18641738397E+03  0.22179795189E+03  0.00000000000E+00 0. -1.
         -1    1    6    6    0  503  0.11268018743E+04 -0.48370336971E+03  0.14132714158E+04  0.18710925975E+04  0.00000000000E+00 0.  1.
<mgrwt>
<rscale>  0 0.27998798E+04</rscale>
<asrwt>0</asrwt>
<pdfrwt beam="1">  1        2 0.49653428E+00 0.27998798E+04</pdfrwt>
<pdfrwt beam="2">  1       -1 0.93420639E-01 0.27998798E+04</pdfrwt>
<totfact> 0.13674326E+00</totfact>
</mgrwt>
</event>
<event>
12    6  0.1611689E-007  0.1922240E+04  0.7818608E-02  0.8643865E-01
         -1   -1    0    0    0  501 -0.00000000000E+00  0.00000000000E+00  0.15660495444E+04  0.15660495444E+04  0.00000000000E+00 0.  1.
          2   -1    0    0  501    0  0.00000000000E+00 -0.00000000000E+00 -0.58986094928E+03  0.58986094928E+03  0.00000000000E+00 0. -1.
         24    2    1    2    0    0 -0.66131453636E+03 -0.27692113137E+03  0.14040777038E+03  0.73516106339E+03  0.82007427386E+02 0.  0.
        254    2    1    2    0    0  0.66131453636E+03  0.27692113137E+03  0.83578082470E+03  0.14207494303E+04  0.89776228904E+03 0.  0.
         23    2    4    4    0    0  0.11500912023E+03  0.37937481497E+03  0.74523726313E+03  0.85021021782E+03  0.10161932964E+03 0.  0.
         23    2    4    4    0    0  0.54630541613E+03 -0.10245368361E+03  0.90543561569E+02  0.57053921243E+03  0.91490389665E+02 0.  0.
          2    1    3    3  502    0 -0.64469264500E+02 -0.16741933540E+02 -0.88203507543E+01  0.67189113636E+02  0.00000000000E+00 0. -1.
         -3    1    3    3    0  502 -0.59684527186E+03 -0.26017919783E+03  0.14922812113E+03  0.66797194976E+03  0.00000000000E+00 0.  1.
         11    1    5    5    0    0  0.58667964401E+01  0.17227270020E+03  0.36558974226E+03  0.40418827565E+03  0.00000000000E+00 0. -1.
        -11    1    5    5    0    0  0.10914232379E+03  0.20710211478E+03  0.37964752088E+03  0.44602194217E+03  0.00000000000E+00 0.  1.
          2    1    6    6  503    0  0.31258494553E+03 -0.13909239688E+02  0.38580639323E+02  0.31526382738E+03  0.00000000000E+00 0. -1.
         -2    1    6    6    0  503  0.23372047060E+03 -0.88544443918E+02  0.51962922246E+02  0.25527538505E+03  0.00000000000E+00 0.  1.
<mgrwt>
<rscale>  0 0.19222398E+04</rscale>
<asrwt>0</asrwt>
<pdfrwt beam="1">  1        2 0.90747839E-01 0.19222398E+04</pdfrwt>
<pdfrwt beam="2">  1       -1 0.24093070E+00 0.19222398E+04</pdfrwt>
<totfact> 0.43213639E+00</totfact>
</mgrwt>
</event>
<event>
12    6  0.1611689E-007  0.1994738E+04  0.7818608E-02  0.8609085E-01
          2   -1    0    0  501    0  0.00000000000E+00  0.00000000000E+00  0.22214058929E+04  0.22214058929E+04  0.00000000000E+00 0. -1.
         -1   -1    0    0    0  501 -0.00000000000E+00 -0.00000000000E+00 -0.44779982540E+03  0.44779982540E+03  0.00000000000E+00 0.  1.
         24    2    1    2    0    0 -0.19681754160E+03  0.51057985266E+03 -0.51075949857E+02  0.55530789090E+03  0.79556083467E+02 0.  0.
        254    2    1    2    0    0  0.19681754160E+03 -0.51057985266E+03  0.18246820173E+04  0.21138978274E+04  0.91633543508E+03 0.  0.
         23    2    4    4    0    0  0.54393508953E+03 -0.19333644982E+03  0.90799603748E+03  0.10798762657E+04  0.91823638633E+02 0.  0.
         23    2    4    4    0    0 -0.34711754792E+03 -0.31724340284E+03  0.91668597983E+03  0.10340215617E+04  0.88053595675E+02 0.  0.
          4    1    3    3  502    0 -0.78267971171E+02  0.12027836788E+03 -0.31569909368E+02  0.14693338718E+03  0.00000000000E+00 0. -1.
         -3    1    3    3    0  502 -0.11854957043E+03  0.39030148478E+03 -0.19506040489E+02  0.40837450372E+03  0.00000000000E+00 0.  1.
         11    1    5    5    0    0  0.23443148982E+03 -0.52181470419E+02  0.31330547722E+03  0.39476746489E+03  0.00000000000E+00 0. -1.
        -11    1    5    5    0    0  0.30950359970E+03 -0.14115497940E+03  0.59469056025E+03  0.68510880077E+03  0.00000000000E+00 0.  1.
          1    1    6    6  503    0 -0.63382505774E+01 -0.33504597495E+02  0.50647065170E+02  0.61056176461E+02  0.00000000000E+00 0. -1.
         -1    1    6    6    0  503 -0.34077929735E+03 -0.28373880534E+03  0.86603891466E+03  0.97296538523E+03  0.00000000000E+00 0.  1.
<mgrwt>
<rscale>  0 0.19947382E+04</rscale>
<asrwt>0</asrwt>
<pdfrwt beam="1">  1        2 0.34175475E+00 0.19947382E+04</pdfrwt>
<pdfrwt beam="2">  1       -1 0.68892282E-01 0.19947382E+04</pdfrwt>
<totfact> 0.11330572E+01</totfact>
</mgrwt>
</event>
<event>
12    6  0.1611689E-007  0.1760591E+04  0.7818608E-02  0.8727542E-01
          2   -1    0    0  501    0  0.00000000000E+00  0.00000000000E+00  0.45965347440E+03  0.45965347440E+03  0.00000000000E+00 0. -1.
         -1   -1    0    0    0  501 -0.00000000000E+00 -0.00000000000E+00 -0.16858794760E+04  0.16858794760E+04  0.00000000000E+00 0.  1.
         24    2    1    2    0    0 -0.10087366208E+03 -0.85417145188E+02  0.31759097206E+03  0.35302602325E+03  0.79320635173E+02 0.  0.
        254    2    1    2    0    0  0.10087366208E+03  0.85417145188E+02 -0.15438169737E+04  0.17925069272E+04  0.90124283705E+03 0.  0.
         23    2    4    4    0    0  0.53003729780E+02 -0.31369079559E+03 -0.12317007119E+04  0.12755379512E+04  0.93269022351E+02 0.  0.
         23    2    4    4    0    0  0.47869932304E+02  0.39910794078E+03 -0.31211626177E+03  0.51696897600E+03  0.90893797768E+02 0.  0.
          2    1    3    3  502    0 -0.11368169475E+03 -0.83705472903E+02  0.28818282560E+03  0.32090415218E+03  0.00000000000E+00 0. -1.
         -1    1    3    3    0  502  0.12808032669E+02 -0.17116722849E+01  0.29408146462E+02  0.32121871073E+02  0.00000000000E+00 0.  1.
         11    1    5    5    0    0  0.70074022222E+02 -0.27342022886E+03 -0.97095508496E+03  0.10111492309E+04  0.00000000000E+00 0.  1.
        -11    1    5    5    0    0 -0.17070292442E+02 -0.40270566733E+02 -0.26074562698E+03  0.26438872029E+03  0.00000000000E+00 0. -1.
          4    1    6    6  503    0  0.22233209526E+02  0.90465167078E+02 -0.29554215584E+02  0.97732869185E+02  0.00000000000E+00 0. -1.
         -4    1    6    6    0  503  0.25636722778E+02  0.30864277370E+03 -0.28256204618E+03  0.41923610681E+03  0.00000000000E+00 0.  1.
<mgrwt>
<rscale>  0 0.17605912E+04</rscale>
<asrwt>0</asrwt>
<pdfrwt beam="1">  1        2 0.70715921E-01 0.17605912E+04</pdfrwt>
<pdfrwt beam="2">  1       -1 0.25936607E+00 0.17605912E+04</pdfrwt>
<totfact> 0.44521373E+00</totfact>
</mgrwt>
</event>
<event>
12    6  0.1611689E-007  0.1991920E+04  0.7818608E-02  0.8610407E-01
          2   -1    0    0  501    0  0.00000000000E+00  0.00000000000E+00  0.18665307046E+04  0.18665307046E+04  0.00000000000E+00 0. -1.
         -1   -1    0    0    0  501 -0.00000000000E+00 -0.00000000000E+00 -0.53143342066E+03  0.53143342066E+03  0.00000000000E+00 0.  1.
         24    2    1    2    0    0 -0.64622472812E+03 -0.33961896328E+03  0.42617611599E+03  0.84923217276E+03  0.81374209386E+02 0.  0.
        254    2    1    2    0    0  0.64622472812E+03  0.33961896328E+03  0.90892116796E+03  0.15487319525E+04  0.10195516327E+04 0.  0.
         23    2    4    4    0    0  0.54882479576E+03 -0.22957782962E+03  0.71050873793E+03  0.93125460556E+03  0.92183715489E+02 0.  0.
         23    2    4    4    0    0  0.97399932355E+02  0.56919679290E+03  0.19841243003E+03  0.61747734696E+03  0.91864278954E+02 0.  0.
          4    1    3    3  502    0 -0.15036595033E+03 -0.47365976442E+02  0.71082665411E+02  0.17293409168E+03  0.00000000000E+00 0. -1.
         -3    1    3    3    0  502 -0.49585877779E+03 -0.29225298684E+03  0.35509345058E+03  0.67629808108E+03  0.00000000000E+00 0.  1.
         11    1    5    5    0    0  0.53687404734E+03 -0.23614957290E+03  0.70349648668E+03  0.91591903040E+03  0.00000000000E+00 0.  1.
        -11    1    5    5    0    0  0.11950748426E+02  0.65717432839E+01  0.70122512539E+01  0.15335575156E+02  0.00000000000E+00 0. -1.
          3    1    6    6  503    0  0.18070652606E+02  0.22661119650E+02 -0.40633925197E+01  0.29267490295E+02  0.00000000000E+00 0. -1.
         -3    1    6    6    0  503  0.79329279749E+02  0.54653567325E+03  0.20247582255E+03  0.58820985667E+03  0.00000000000E+00 0.  1.
<mgrwt>
<rscale>  0 0.19919205E+04</rscale>
<asrwt>0</asrwt>
<pdfrwt beam="1">  1        2 0.28715857E+00 0.19919205E+04</pdfrwt>
<pdfrwt beam="2">  1       -1 0.81758988E-01 0.19919205E+04</pdfrwt>
<totfact> 0.12491648E+01</totfact>
</mgrwt>
</event>
<event>
12    6  0.1611689E-007  0.2293281E+04  0.7818608E-02  0.8480575E-01
          2   -1    0    0  501    0  0.00000000000E+00  0.00000000000E+00  0.12154256880E+04  0.12154256880E+04  0.00000000000E+00 0. -1.
         -1   -1    0    0    0  501 -0.00000000000E+00 -0.00000000000E+00 -0.10817476620E+04  0.10817476620E+04  0.00000000000E+00 0.  1.
         24    2    1    2    0    0  0.19452848340E+03 -0.75927268072E+02  0.10466849891E+04  0.10702755276E+04  0.79586165069E+02 0.  0.
        254    2    1    2    0    0 -0.19452848340E+03  0.75927268072E+02 -0.91300696307E+03  0.12268978224E+04  0.79252146408E+03 0.  0.
         23    2    4    4    0    0 -0.21874074095E+03  0.40757147629E+03 -0.46991953293E+03  0.66571756348E+03  0.91615974938E+02 0.  0.
         23    2    4    4    0    0  0.24212257546E+02 -0.33164420822E+03 -0.44308743014E+03  0.56118025889E+03  0.89569514689E+02 0.  0.
          4    1    3    3  502    0  0.49245826643E+02 -0.43480436651E+02  0.19743643324E+03  0.20807893931E+03  0.00000000000E+00 0. -1.
         -3    1    3    3    0  502  0.14528265676E+03 -0.32446831421E+02  0.84924855581E+03  0.86219658824E+03  0.00000000000E+00 0.  1.
         11    1    5    5    0    0 -0.20808444437E+03  0.31100016576E+03 -0.36518471174E+03  0.52285764103E+03  0.00000000000E+00 0.  1.
        -11    1    5    5    0    0 -0.10656296579E+02  0.96571310532E+02 -0.10473482119E+03  0.14285992245E+03  0.00000000000E+00 0. -1.
          4    1    6    6  503    0 -0.22127315911E+02 -0.10051135356E+03 -0.90501632443E+02  0.13704997548E+03  0.00000000000E+00 0. -1.
         -4    1    6    6    0  503  0.46339573456E+02 -0.23113285466E+03 -0.35258579769E+03  0.42413028341E+03  0.00000000000E+00 0.  1.
<mgrwt>
<rscale>  0 0.22932805E+04</rscale>
<asrwt>0</asrwt>
<pdfrwt beam="1">  1        2 0.18698857E+00 0.22932805E+04</pdfrwt>
<pdfrwt beam="2">  1       -1 0.16642272E+00 0.22932805E+04</pdfrwt>
<totfact> 0.50144816E+00</totfact>
</mgrwt>
</event>
<event>
12    6  0.1611689E-007  0.1720744E+04  0.7818608E-02  0.8749621E-01
         -1   -1    0    0    0  501 -0.00000000000E+00  0.00000000000E+00  0.68045475157E+03  0.68045475157E+03  0.00000000000E+00 0.  1.
          2   -1    0    0  501    0  0.00000000000E+00 -0.00000000000E+00 -0.10878608006E+04  0.10878608006E+04  0.00000000000E+00 0. -1.
         24    2    1    2    0    0 -0.20821888596E+03  0.44021517379E+03 -0.53234453962E+03  0.72663453693E+03  0.86385980841E+02 0.  0.
        254    2    1    2    0    0  0.20821888596E+03 -0.44021517379E+03  0.12493849062E+03  0.10416810152E+04  0.91232954973E+03 0.  0.
         23    2    4    4    0    0  0.52428273311E+03 -0.27921511809E+03  0.25537011570E+03  0.65278733067E+03  0.89910715068E+02 0.  0.
         23    2    4    4    0    0 -0.31606384716E+03 -0.16100005570E+03 -0.13043162508E+03  0.38889368455E+03  0.91697958781E+02 0.  0.
          4    1    3    3  502    0 -0.17797716309E+03  0.28502504204E+03 -0.34754548566E+03  0.48342839157E+03  0.00000000000E+00 0. -1.
         -3    1    3    3    0  502 -0.30241722862E+02  0.15519013175E+03 -0.18479905397E+03  0.24320614536E+03  0.00000000000E+00 0.  1.
         11    1    5    5    0    0  0.69842742155E+01 -0.41324306231E+01  0.19642606391E+02  0.21252977556E+02  0.00000000000E+00 0.  1.
        -11    1    5    5    0    0  0.51729845890E+03 -0.27508268746E+03  0.23572750931E+03  0.63153435311E+03  0.00000000000E+00 0. -1.
          1    1    6    6  503    0 -0.25041557806E+03 -0.12601810973E+03 -0.60487585526E+02  0.28678785490E+03  0.00000000000E+00 0. -1.
         -1    1    6    6    0  503 -0.65648269095E+02 -0.34981945975E+02 -0.69944039549E+02  0.10210582965E+03  0.00000000000E+00 0.  1.
<mgrwt>
<rscale>  0 0.17207441E+04</rscale>
<asrwt>0</asrwt>
<pdfrwt beam="1">  1        2 0.16736320E+00 0.17207441E+04</pdfrwt>
<pdfrwt beam="2">  1       -1 0.10468535E+00 0.17207441E+04</pdfrwt>
<totfact> 0.20596161E+01</totfact>
</mgrwt>
</event>
<event>
12    6  0.1611689E-007  0.1113938E+04  0.7818608E-02  0.9191713E-01
          2   -1    0    0  501    0  0.00000000000E+00  0.00000000000E+00  0.50942182866E+03  0.50942182866E+03  0.00000000000E+00 0. -1.
         -1   -1    0    0    0  501 -0.00000000000E+00 -0.00000000000E+00 -0.60895360133E+03  0.60895360133E+03  0.00000000000E+00 0.  1.
         24    2    1    2    0    0 -0.30068281645E+02  0.11573971611E+03 -0.10455449839E+03  0.17755387062E+03  0.79334421226E+02 0.  0.
        254    2    1    2    0    0  0.30068281645E+02 -0.11573971611E+03  0.50227257220E+01  0.94082155937E+03  0.93317747259E+03 0.  0.
         23    2    4    4    0    0 -0.43596947317E+03 -0.12903801696E+03  0.27251862126E+02  0.46462976942E+03  0.91749481118E+02 0.  0.
         23    2    4    4    0    0  0.46603775482E+03  0.13298300845E+02 -0.22229136404E+02  0.47619178994E+03  0.94321008162E+02 0.  0.
          2    1    3    3  502    0 -0.40151744564E+02  0.50206251542E+02 -0.14807204417E+02  0.65970323541E+02  0.00000000000E+00 0. -1.
         -1    1    3    3    0  502  0.10083462919E+02  0.65533464571E+02 -0.89747293973E+02  0.11158354708E+03  0.00000000000E+00 0.  1.
         11    1    5    5    0    0 -0.19208272075E+03 -0.11119096939E+02  0.40285413030E+00  0.19240469906E+03  0.00000000000E+00 0.  1.
        -11    1    5    5    0    0 -0.24388675242E+03 -0.11791892002E+03  0.26849007996E+02  0.27222507037E+03  0.00000000000E+00 0. -1.
          3    1    6    6  503    0  0.71595320611E+02  0.21904420759E+02  0.24778687983E+02  0.78864928583E+02  0.00000000000E+00 0.  1.
         -3    1    6    6    0  503  0.39444243421E+03 -0.86061199146E+01 -0.47007824387E+02  0.39732686136E+03  0.00000000000E+00 0. -1.
<mgrwt>
<rscale>  0 0.11139376E+04</rscale>
<asrwt>0</asrwt>
<pdfrwt beam="1">  1        2 0.78372589E-01 0.11139376E+04</pdfrwt>
<pdfrwt beam="2">  1       -1 0.93685169E-01 0.11139376E+04</pdfrwt>
<totfact> 0.75560114E+01</totfact>
</mgrwt>
</event>
<event>
12    6  0.1611689E-007  0.2458868E+04  0.7818608E-02  0.8417787E-01
         -1   -1    0    0    0  501 -0.00000000000E+00  0.00000000000E+00  0.59357755872E+03  0.59357755872E+03  0.00000000000E+00 0.  1.
          2   -1    0    0  501    0  0.00000000000E+00 -0.00000000000E+00 -0.25464373416E+04  0.25464373416E+04  0.00000000000E+00 0. -1.
         24    2    1    2    0    0  0.72381492786E+03  0.30999547709E+03  0.72274003185E+02  0.79471065523E+03  0.79600555237E+02 0.  0.
        254    2    1    2    0    0 -0.72381492786E+03 -0.30999547709E+03 -0.20251337860E+04  0.23453042451E+04  0.88276831892E+03 0.  0.
         23    2    4    4    0    0 -0.76911364485E+03 -0.47651566309E+03 -0.19188450518E+04  0.21233909023E+04  0.90662094337E+02 0.  0.
         23    2    4    4    0    0  0.45298716981E+02  0.16652018600E+03 -0.10628873423E+03  0.22191334273E+03  0.90373063196E+02 0.  0.
          2    1    3    3  502    0  0.27144868926E+02  0.27413456347E+02  0.12436726078E+02  0.40534104818E+02  0.00000000000E+00 0. -1.
         -1    1    3    3    0  502  0.69667005894E+03  0.28258202074E+03  0.59837277107E+02  0.75417655042E+03  0.00000000000E+00 0.  1.
         11    1    5    5    0    0 -0.76629046808E+03 -0.47949975181E+03 -0.19155495873E+04  0.21181244805E+04  0.00000000000E+00 0. -1.
        -11    1    5    5    0    0 -0.28231767617E+01  0.29840887250E+01 -0.32954645185E+01  0.52664218345E+01  0.00000000000E+00 0.  1.
          2    1    6    6  503    0  0.28349634739E+01 -0.10909397218E+02 -0.12308235291E+02  0.16689656124E+02  0.00000000000E+00 0.  1.
         -2    1    6    6    0  503  0.42463753507E+02  0.17742958322E+03 -0.93980498939E+02  0.20522368661E+03  0.00000000000E+00 0. -1.
<mgrwt>
<rscale>  0 0.24588681E+04</rscale>
<asrwt>0</asrwt>
<pdfrwt beam="1">  1        2 0.39175959E+00 0.24588681E+04</pdfrwt>
<pdfrwt beam="2">  1       -1 0.91319624E-01 0.24588681E+04</pdfrwt>
<totfact> 0.38938620E+00</totfact>
</mgrwt>
</event>
<event>
12    6  0.1611689E-007  0.1251379E+04  0.7818608E-02  0.9069036E-01
          2   -1    0    0  501    0  0.00000000000E+00  0.00000000000E+00  0.62524348423E+03  0.62524348423E+03  0.00000000000E+00 0. -1.
         -1   -1    0    0    0  501 -0.00000000000E+00 -0.00000000000E+00 -0.62613606049E+03  0.62613606049E+03  0.00000000000E+00 0.  1.
         24    2    1    2    0    0 -0.53929371398E+02  0.19202634514E+03  0.21057981049E+03  0.30049804486E+03  0.78566685386E+02 0.  0.
        254    2    1    2    0    0  0.53929371398E+02 -0.19202634514E+03 -0.21147238676E+03  0.95088149986E+03  0.90535769843E+03 0.  0.
         23    2    4    4    0    0 -0.36968463207E+03 -0.26477302853E+03 -0.87081768527E+00  0.46369702465E+03  0.90789253359E+02 0.  0.
         23    2    4    4    0    0  0.42361400346E+03  0.72746683394E+02 -0.21060156907E+03  0.48718447521E+03  0.90855864511E+02 0.  0.
          4    1    3    3  502    0 -0.83482819216E+01  0.13301321466E+03  0.16864136674E+03  0.21494678332E+03  0.00000000000E+00 0. -1.
         -3    1    3    3    0  502 -0.45581089476E+02  0.59013130477E+02  0.41938443756E+02  0.85551261541E+02  0.00000000000E+00 0.  1.
         11    1    5    5    0    0 -0.70626473841E+02 -0.98473038370E+02 -0.78936539103E+01  0.12143865886E+03  0.00000000000E+00 0.  1.
        -11    1    5    5    0    0 -0.29905815823E+03 -0.16629999016E+03  0.70228362251E+01  0.34225836580E+03  0.00000000000E+00 0. -1.
          4    1    6    6  503    0  0.41028650880E+03  0.51298423982E+02 -0.20409062387E+03  0.46110685352E+03  0.00000000000E+00 0. -1.
         -4    1    6    6    0  503  0.13327494661E+02  0.21448259412E+02 -0.65109451959E+01  0.26077621692E+02  0.00000000000E+00 0.  1.
<mgrwt>
<rscale>  0 0.12513792E+04</rscale>
<asrwt>0</asrwt>
<pdfrwt beam="1">  1        2 0.96191306E-01 0.12513792E+04</pdfrwt>
<pdfrwt beam="2">  1       -1 0.96328624E-01 0.12513792E+04</pdfrwt>
<totfact> 0.55032220E+01</totfact>
</mgrwt>
</event>
<event>
12    6  0.1611689E-007  0.1805939E+04  0.7818608E-02  0.8703148E-01
          4   -1    0    0  501    0  0.00000000000E+00  0.00000000000E+00  0.55534375920E+03  0.55534375920E+03  0.00000000000E+00 0. -1.
         -3   -1    0    0    0  501 -0.00000000000E+00 -0.00000000000E+00 -0.14681961484E+04  0.14681961484E+04  0.00000000000E+00 0.  1.
         24    2    1    2    0    0  0.68098881668E+03 -0.69871332909E+02 -0.44248856383E+03  0.81892083891E+03  0.78787306522E+02 0.  0.
        254    2    1    2    0    0 -0.68098881668E+03  0.69871332909E+02 -0.47036382537E+03  0.12046190687E+04  0.87248908353E+03 0.  0.
         23    2    4    4    0    0 -0.35614535138E+03 -0.31526414341E+03 -0.49532975025E+03  0.69204803884E+03  0.85720097752E+02 0.  0.
         23    2    4    4    0    0 -0.32484346530E+03  0.38513547632E+03  0.24965924879E+02  0.51257102986E+03  0.90846855675E+02 0.  0.
          2    1    3    3  502    0  0.12175391101E+03 -0.11680685246E+02 -0.11693776794E+03  0.16921848251E+03  0.00000000000E+00 0. -1.
         -1    1    3    3    0  502  0.55923490567E+03 -0.58190647663E+02 -0.32555079589E+03  0.64970235639E+03  0.00000000000E+00 0.  1.
         11    1    5    5    0    0 -0.74383703179E+02 -0.77139789855E+02 -0.16567211516E+03  0.19730872312E+03  0.00000000000E+00 0. -1.
        -11    1    5    5    0    0 -0.28176164820E+03 -0.23812435355E+03 -0.32965763509E+03  0.49473931573E+03  0.00000000000E+00 0.  1.
          4    1    6    6  503    0 -0.27255145166E+03  0.28085648830E+03  0.45923299609E+02  0.39404772588E+03  0.00000000000E+00 0. -1.
         -4    1    6    6    0  503 -0.52292013636E+02  0.10427898802E+03 -0.20957374730E+02  0.11852330399E+03  0.00000000000E+00 0.  1.
<mgrwt>
<rscale>  0 0.18059386E+04</rscale>
<asrwt>0</asrwt>
<pdfrwt beam="1">  1        4 0.85437503E-01 0.18059386E+04</pdfrwt>
<pdfrwt beam="2">  1       -3 0.22587633E+00 0.18059386E+04</pdfrwt>
<totfact> 0.26176584E-01</totfact>
</mgrwt>
</event>
<event>
12    6  0.1611689E-007  0.2586998E+04  0.7818608E-02  0.8372631E-01
         -1   -1    0    0    0  501 -0.00000000000E+00  0.00000000000E+00  0.81599010518E+03  0.81599010518E+03  0.00000000000E+00 0.  1.
          2   -1    0    0  501    0  0.00000000000E+00 -0.00000000000E+00 -0.20504418847E+04  0.20504418847E+04  0.00000000000E+00 0. -1.
         24    2    1    2    0    0 -0.87140749556E+03 -0.55507625457E+02  0.26048322485E+03  0.91462124642E+03  0.79046784683E+02 0.  0.
        254    2    1    2    0    0  0.87140749556E+03  0.55507625457E+02 -0.14949350044E+04  0.19518107435E+04  0.90127819858E+03 0.  0.
         23    2    4    4    0    0  0.22324328848E+03 -0.34609676532E+03 -0.84612016473E+03  0.94539106234E+03  0.90688426806E+02 0.  0.
         23    2    4    4    0    0  0.64816420708E+03  0.40160439078E+03 -0.64881483967E+03  0.10064196812E+04  0.10255219362E+03 0.  0.
          2    1    3    3  502    0 -0.30097175001E+03  0.12050431399E+02  0.11155685257E+03  0.32120731398E+03  0.00000000000E+00 0. -1.
         -1    1    3    3    0  502 -0.57043574555E+03 -0.67558056856E+02  0.14892637228E+03  0.59341393243E+03  0.00000000000E+00 0.  1.
         11    1    5    5    0    0  0.22021908754E+03 -0.28865222088E+03 -0.75255960438E+03  0.83556119421E+03  0.00000000000E+00 0. -1.
        -11    1    5    5    0    0  0.30242009426E+01 -0.57444544441E+02 -0.93560560358E+02  0.10982986812E+03  0.00000000000E+00 0.  1.
          3    1    6    6  503    0  0.46052623447E+03  0.32897390291E+03 -0.44427747961E+03  0.71950727607E+03  0.00000000000E+00 0. -1.
         -3    1    6    6    0  503  0.18763797261E+03  0.72630487871E+02 -0.20453736006E+03  0.28691240509E+03  0.00000000000E+00 0.  1.
<mgrwt>
<rscale>  0 0.25869985E+04</rscale>
<asrwt>0</asrwt>
<pdfrwt beam="1">  1        2 0.31545260E+00 0.25869985E+04</pdfrwt>
<pdfrwt beam="2">  1       -1 0.12553694E+00 0.25869985E+04</pdfrwt>
<totfact> 0.34930346E+00</totfact>
</mgrwt>
</event>
<event>
12    6  0.1611689E-007  0.2335985E+04  0.7818608E-02  0.8463867E-01
          2   -1    0    0  501    0  0.00000000000E+00  0.00000000000E+00  0.12986290258E+04  0.12986290258E+04  0.00000000000E+00 0. -1.
         -1   -1    0    0    0  501 -0.00000000000E+00 -0.00000000000E+00 -0.10504970708E+04  0.10504970708E+04  0.00000000000E+00 0.  1.
         24    2    1    2    0    0 -0.61150338667E+03 -0.18814182713E+03  0.86585896133E+03  0.10795114870E+04  0.79369834401E+02 0.  0.
        254    2    1    2    0    0  0.61150338667E+03  0.18814182713E+03 -0.61772700638E+03  0.12696146096E+04  0.90609097970E+03 0.  0.
         23    2    4    4    0    0 -0.13243053946E+03 -0.20499260340E+03 -0.10311974240E+03  0.27970407310E+03  0.89670909479E+02 0.  0.
         23    2    4    4    0    0  0.74393392613E+03  0.39313443053E+03 -0.51460726398E+03  0.98991053650E+03  0.84320028574E+02 0.  0.
          4    1    3    3  502    0 -0.33537142476E+03 -0.68148717322E+02  0.49590703239E+03  0.60252968806E+03  0.00000000000E+00 0. -1.
         -3    1    3    3    0  502 -0.27613196191E+03 -0.11999310981E+03  0.36995192894E+03  0.47698179893E+03  0.00000000000E+00 0.  1.
         11    1    5    5    0    0 -0.17364732961E+02 -0.40598775555E+02  0.15267261054E+02  0.46721341885E+02  0.00000000000E+00 0. -1.
        -11    1    5    5    0    0 -0.11506580650E+03 -0.16439382784E+03 -0.11838700345E+03  0.23298273122E+03  0.00000000000E+00 0.  1.
          2    1    6    6  503    0  0.15784777962E+03  0.65315366546E+02 -0.14059733541E+03  0.22124563128E+03  0.00000000000E+00 0. -1.
         -2    1    6    6    0  503  0.58608614651E+03  0.32781906398E+03 -0.37400992857E+03  0.76866490522E+03  0.00000000000E+00 0.  1.
<mgrwt>
<rscale>  0 0.23359846E+04</rscale>
<asrwt>0</asrwt>
<pdfrwt beam="1">  1        2 0.19978908E+00 0.23359846E+04</pdfrwt>
<pdfrwt beam="2">  1       -1 0.16161493E+00 0.23359846E+04</pdfrwt>
<totfact> 0.48479844E+00</totfact>
</mgrwt>
</event>
<event>
12    6  0.1611689E-007  0.2738377E+04  0.7818608E-02  0.8322659E-01
         -1   -1    0    0    0  501 -0.00000000000E+00  0.00000000000E+00  0.61103179049E+03  0.61103179049E+03  0.00000000000E+00 0.  1.
          2   -1    0    0  501    0  0.00000000000E+00 -0.00000000000E+00 -0.30680508854E+04  0.30680508854E+04  0.00000000000E+00 0. -1.
         24    2    1    2    0    0  0.89727999263E+03  0.47601551979E+03 -0.19754793823E+04  0.22227062296E+04  0.78752986830E+02 0.  0.
        254    2    1    2    0    0 -0.89727999263E+03 -0.47601551979E+03 -0.48153971259E+03  0.14563764463E+04  0.92598579803E+03 0.  0.
         23    2    4    4    0    0  0.13243235974E+03 -0.21745226352E+03 -0.24600999599E+03  0.36538715583E+03  0.90349536239E+02 0.  0.
         23    2    4    4    0    0 -0.10297123524E+04 -0.25856325627E+03 -0.23552971660E+03  0.10909892904E+04  0.87297756618E+02 0.  0.
          4    1    3    3  502    0  0.83402410184E+03  0.44784204687E+03 -0.17936360349E+04  0.20281244851E+04  0.00000000000E+00 0. -1.
         -3    1    3    3    0  502  0.63255890795E+02  0.28173472921E+02 -0.18184334735E+03  0.19458174445E+03  0.00000000000E+00 0.  1.
         11    1    5    5    0    0  0.12070645567E+02 -0.21812801344E+01 -0.46706394238E+02  0.48290223961E+02  0.00000000000E+00 0.  1.
        -11    1    5    5    0    0  0.12036171418E+03 -0.21527098339E+03 -0.19930360175E+03  0.31709693186E+03  0.00000000000E+00 0. -1.
          1    1    6    6  503    0 -0.91456619462E+03 -0.23822993539E+03 -0.23581879631E+03  0.97406125637E+03  0.00000000000E+00 0. -1.
         -1    1    6    6    0  503 -0.11514615775E+03 -0.20333320885E+02  0.28907971490E+00  0.11692803407E+03  0.00000000000E+00 0.  1.
<mgrwt>
<rscale>  0 0.27383766E+04</rscale>
<asrwt>0</asrwt>
<pdfrwt beam="1">  1        2 0.47200783E+00 0.27383766E+04</pdfrwt>
<pdfrwt beam="2">  1       -1 0.94004891E-01 0.27383766E+04</pdfrwt>
<totfact> 0.17183464E+00</totfact>
</mgrwt>
</event>
<event>
12    6  0.1611689E-007  0.1147335E+04  0.7818608E-02  0.9160245E-01
          2   -1    0    0  501    0  0.00000000000E+00  0.00000000000E+00  0.25080262258E+04  0.25080262258E+04  0.00000000000E+00 0. -1.
         -1   -1    0    0    0  501 -0.00000000000E+00 -0.00000000000E+00 -0.13121656969E+03  0.13121656969E+03  0.00000000000E+00 0.  1.
         24    2    1    2    0    0 -0.10185014037E+03 -0.16026114515E+02  0.25656934988E+02  0.13215689683E+03  0.78593127096E+02 0.  0.
        254    2    1    2    0    0  0.10185014037E+03  0.16026114515E+02  0.23511527211E+04  0.25070858987E+04  0.86425129320E+03 0.  0.
         23    2    4    4    0    0  0.59097356196E+02 -0.80709672642E+02 -0.18896684702E+02  0.13286511069E+03  0.85378593212E+02 0.  0.
         23    2    4    4    0    0  0.42752784175E+02  0.96735787157E+02  0.23700494058E+04  0.23742207880E+04  0.92760718679E+02 0.  0.
          2    1    3    3  502    0  0.22458560851E+01 -0.19475893766E+02  0.19762305934E+02  0.27837080367E+02  0.00000000000E+00 0. -1.
         -1    1    3    3    0  502 -0.10409599646E+03  0.34497792516E+01  0.58946290539E+01  0.10431981646E+03  0.00000000000E+00 0.  1.
         11    1    5    5    0    0 -0.61089739757E+01 -0.25146538569E+02  0.25538792846E+02  0.36357913926E+02  0.00000000000E+00 0. -1.
        -11    1    5    5    0    0  0.65206330172E+02 -0.55563134074E+02 -0.44435477548E+02  0.96507196765E+02  0.00000000000E+00 0.  1.
          1    1    6    6  503    0  0.40517638671E+02  0.11301925691E+03  0.22262394191E+04  0.22294745978E+04  0.00000000000E+00 0.  1.
         -1    1    6    6    0  503  0.22351455040E+01 -0.16283469756E+02  0.14380998677E+03  0.14474619013E+03  0.00000000000E+00 0. -1.
<mgrwt>
<rscale>  0 0.11473353E+04</rscale>
<asrwt>0</asrwt>
<pdfrwt beam="1">  1        2 0.38585015E+00 0.11473353E+04</pdfrwt>
<pdfrwt beam="2">  1       -1 0.20187166E-01 0.11473353E+04</pdfrwt>
<totfact> 0.78812271E+01</totfact>
</mgrwt>
</event>
<event>
12    6  0.1611689E-007  0.2420391E+04  0.7818608E-02  0.8431909E-01
          2   -1    0    0  501    0  0.00000000000E+00  0.00000000000E+00  0.16704067004E+04  0.16704067004E+04  0.00000000000E+00 0. -1.
         -1   -1    0    0    0  501 -0.00000000000E+00 -0.00000000000E+00 -0.87677621310E+03  0.87677621310E+03  0.00000000000E+00 0.  1.
         24    2    1    2    0    0 -0.55080040577E+03 -0.38777078071E+03 -0.49248253095E+03  0.83864482120E+03  0.83897720237E+02 0.  0.
        254    2    1    2    0    0  0.55080040577E+03  0.38777078071E+03  0.12861130182E+04  0.17085380923E+04  0.90070441972E+03 0.  0.
         23    2    4    4    0    0  0.56410223800E+03  0.32886690222E+03  0.31328839262E+03  0.72950144499E+03  0.87509810930E+02 0.  0.
         23    2    4    4    0    0 -0.13301832223E+02  0.58903878494E+02  0.97282462558E+03  0.97903664726E+03  0.92078221581E+02 0.  0.
          2    1    3    3  502    0 -0.66724417857E+02 -0.74859691400E+02 -0.50425772617E+02  0.11224473208E+03  0.00000000000E+00 0. -1.
         -1    1    3    3    0  502 -0.48407598792E+03 -0.31291108931E+03 -0.44205675833E+03  0.72640008912E+03  0.00000000000E+00 0.  1.
         11    1    5    5    0    0  0.45549141713E+03  0.29645916894E+03  0.23714621578E+03  0.59295766931E+03  0.00000000000E+00 0. -1.
        -11    1    5    5    0    0  0.10861082086E+03  0.32407733278E+02  0.76142176837E+02  0.13654377569E+03  0.00000000000E+00 0.  1.
          1    1    6    6  503    0 -0.24313510620E+02  0.52013211458E+02  0.95627894431E+03  0.95800101268E+03  0.00000000000E+00 0. -1.
         -1    1    6    6    0  503  0.11011678397E+02  0.68906670363E+01  0.16545681277E+02  0.21035634581E+02  0.00000000000E+00 0.  1.
<mgrwt>
<rscale>  0 0.24203908E+04</rscale>
<asrwt>0</asrwt>
<pdfrwt beam="1">  1        2 0.25698565E+00 0.24203908E+04</pdfrwt>
<pdfrwt beam="2">  1       -1 0.13488865E+00 0.24203908E+04</pdfrwt>
<totfact> 0.48066579E+00</totfact>
</mgrwt>
</event>
<event>
12    6  0.1611689E-007  0.1569503E+04  0.7818608E-02  0.8839505E-01
         -1   -1    0    0    0  501 -0.00000000000E+00  0.00000000000E+00  0.73710200661E+03  0.73710200661E+03  0.00000000000E+00 0.  1.
          2   -1    0    0  501    0  0.00000000000E+00 -0.00000000000E+00 -0.83548158732E+03  0.83548158732E+03  0.00000000000E+00 0. -1.
         24    2    1    2    0    0  0.41550489324E+03  0.46484909790E+02  0.26372206935E+03  0.50066136159E+03  0.79418549400E+02 0.  0.
        254    2    1    2    0    0 -0.41550489324E+03 -0.46484909790E+02 -0.36210165005E+03  0.10719222323E+04  0.91820177742E+03 0.  0.
         23    2    4    4    0    0 -0.19300998794E+03  0.14066987512E+03  0.26922106720E+03  0.37087634819E+03  0.89601414113E+02 0.  0.
         23    2    4    4    0    0 -0.22249490530E+03 -0.18715478491E+03 -0.63132271725E+03  0.70104588415E+03  0.91466179342E+02 0.  0.
          2    1    3    3  502    0  0.22778035428E+02  0.22423613727E+02  0.16425733715E+02  0.35936918045E+02  0.00000000000E+00 0. -1.
         -1    1    3    3    0  502  0.39272685781E+03  0.24061296063E+02  0.24729633563E+03  0.46472444355E+03  0.00000000000E+00 0.  1.
         11    1    5    5    0    0 -0.13874407285E+03  0.11322153580E+03  0.13744052091E+03  0.22574084856E+03  0.00000000000E+00 0. -1.
        -11    1    5    5    0    0 -0.54265915089E+02  0.27448339314E+02  0.13178054629E+03  0.14513549963E+03  0.00000000000E+00 0.  1.
          2    1    6    6  503    0 -0.12435148957E+03 -0.92983855211E+02 -0.43768965831E+03  0.46441525306E+03  0.00000000000E+00 0. -1.
         -2    1    6    6    0  503 -0.98143415732E+02 -0.94170929697E+02 -0.19363305894E+03  0.23663063109E+03  0.00000000000E+00 0.  1.
<mgrwt>
<rscale>  0 0.15695033E+04</rscale>
<asrwt>0</asrwt>
<pdfrwt beam="1">  1        2 0.12853563E+00 0.15695033E+04</pdfrwt>
<pdfrwt beam="2">  1       -1 0.11340031E+00 0.15695033E+04</pdfrwt>
<totfact> 0.25313772E+01</totfact>
</mgrwt>
</event>
<event>
12    6  0.1611689E-007  0.2743113E+04  0.7818608E-02  0.8321150E-01
          2   -1    0    0  501    0  0.00000000000E+00  0.00000000000E+00  0.38856503430E+04  0.38856503430E+04  0.00000000000E+00 0. -1.
         -1   -1    0    0    0  501 -0.00000000000E+00 -0.00000000000E+00 -0.48413188923E+03  0.48413188923E+03  0.00000000000E+00 0.  1.
         24    2    1    2    0    0 -0.12131273823E+04  0.12399511688E+02  0.13029852040E+04  0.17821138998E+04  0.79546943447E+02 0.  0.
        254    2    1    2    0    0  0.12131273823E+04 -0.12399511688E+02  0.20985332497E+04  0.25876683325E+04  0.90573384894E+03 0.  0.
         23    2    4    4    0    0  0.12577421744E+04 -0.10300073407E+03  0.14474041471E+04  0.19224169535E+04  0.90463526330E+02 0.  0.
         23    2    4    4    0    0 -0.44614792150E+02  0.90601222380E+02  0.65112910266E+03  0.66525137896E+03  0.91603644650E+02 0.  0.
          4    1    3    3  502    0 -0.91187184829E+03 -0.18464483201E+02  0.94796668099E+03  0.13154816734E+04  0.00000000000E+00 0. -1.
         -3    1    3    3    0  502 -0.30125553400E+03  0.30863994889E+02  0.35501852305E+03  0.46663222634E+03  0.00000000000E+00 0.  1.
         11    1    5    5    0    0  0.13471521466E+03 -0.26628261097E+02  0.19515181500E+03  0.23862414850E+03  0.00000000000E+00 0. -1.
        -11    1    5    5    0    0  0.11230269598E+04 -0.76372472972E+02  0.12522523321E+04  0.16837928050E+04  0.00000000000E+00 0.  1.
          1    1    6    6  503    0  0.23385483990E+02  0.64371320808E+00  0.99374282766E+02  0.10209085808E+03  0.00000000000E+00 0. -1.
         -1    1    6    6    0  503 -0.68000276141E+02  0.89957509172E+02  0.55175481989E+03  0.56316052088E+03  0.00000000000E+00 0.  1.
<mgrwt>
<rscale>  0 0.27431130E+04</rscale>
<asrwt>0</asrwt>
<pdfrwt beam="1">  1        2 0.59779234E+00 0.27431130E+04</pdfrwt>
<pdfrwt beam="2">  1       -1 0.74481831E-01 0.27431130E+04</pdfrwt>
<totfact> 0.76105226E-01</totfact>
</mgrwt>
</event>
<event>
12    6  0.1611689E-007  0.1275449E+04  0.7818608E-02  0.9049264E-01
          4   -1    0    0  501    0  0.00000000000E+00  0.00000000000E+00  0.11143842231E+04  0.11143842231E+04  0.00000000000E+00 0. -1.
         -3   -1    0    0    0  501 -0.00000000000E+00 -0.00000000000E+00 -0.36494818159E+03  0.36494818159E+03  0.00000000000E+00 0.  1.
         24    2    1    2    0    0 -0.22361870164E+03  0.20062174136E+03  0.92496380994E+02  0.32486199587E+03  0.82008103478E+02 0.  0.
        254    2    1    2    0    0  0.22361870164E+03 -0.20062174136E+03  0.65693966050E+03  0.11544704088E+04  0.90054305863E+03 0.  0.
         23    2    4    4    0    0  0.50726364335E+03 -0.32512582739E+03  0.52833195436E+03  0.80653020552E+03  0.91285874728E+02 0.  0.
         23    2    4    4    0    0 -0.28364494171E+03  0.12450408604E+03  0.12860770614E+03  0.34794020329E+03  0.92556591271E+02 0.  0.
          2    1    3    3  502    0 -0.16366267721E+03  0.97170906420E+02  0.41144149581E+02  0.19473186183E+03  0.00000000000E+00 0. -1.
         -3    1    3    3    0  502 -0.59956024425E+02  0.10345083494E+03  0.51352231413E+02  0.13013013404E+03  0.00000000000E+00 0.  1.
         11    1    5    5    0    0  0.47904221329E+02 -0.87721121777E+01  0.66285521231E+02  0.82252870455E+02  0.00000000000E+00 0. -1.
        -11    1    5    5    0    0  0.45935942202E+03 -0.31635371522E+03  0.46204643313E+03  0.72427733507E+03  0.00000000000E+00 0.  1.
          2    1    6    6  503    0 -0.13670355353E+03  0.16452840040E+02  0.31254434433E+02  0.14119276598E+03  0.00000000000E+00 0. -1.
         -2    1    6    6    0  503 -0.14694138818E+03  0.10805124600E+03  0.97353271709E+02  0.20674743731E+03  0.00000000000E+00 0.  1.
<mgrwt>
<rscale>  0 0.12754489E+04</rscale>
<asrwt>0</asrwt>
<pdfrwt beam="1">  1        4 0.17144372E+00 0.12754489E+04</pdfrwt>
<pdfrwt beam="2">  1       -3 0.56145875E-01 0.12754489E+04</pdfrwt>
<totfact> 0.14466532E+00</totfact>
</mgrwt>
</event>
<event>
12    6  0.1611689E-007  0.1744272E+04  0.7818608E-02  0.8736510E-01
          2   -1    0    0  501    0  0.00000000000E+00  0.00000000000E+00  0.25849147434E+04  0.25849147434E+04  0.00000000000E+00 0. -1.
         -1   -1    0    0    0  501 -0.00000000000E+00 -0.00000000000E+00 -0.29425373006E+03  0.29425373006E+03  0.00000000000E+00 0.  1.
         24    2    1    2    0    0 -0.22831703215E+00 -0.31876528184E+03 -0.68519138986E+02  0.33554715735E+03  0.79282188181E+02 0.  0.
        254    2    1    2    0    0  0.22831703215E+00  0.31876528184E+03  0.23591801524E+04  0.25436213161E+04  0.89591687759E+03 0.  0.
         23    2    4    4    0    0  0.90350345412E+01 -0.12182522237E+03  0.12815925082E+02  0.15446823977E+03  0.93665215025E+02 0.  0.
         23    2    4    4    0    0 -0.88067175091E+01  0.44059050422E+03  0.23463642273E+04  0.23891530764E+04  0.91813858334E+02 0.  0.
          4    1    3    3  502    0  0.37486790244E+02 -0.18149559350E+03 -0.27174212423E+02  0.18730816246E+03  0.00000000000E+00 0. -1.
         -3    1    3    3    0  502 -0.37715107276E+02 -0.13726968834E+03 -0.41344926563E+02  0.14823899489E+03  0.00000000000E+00 0.  1.
         11    1    5    5    0    0  0.47016322399E+01 -0.76006830343E+02 -0.38672562343E+02  0.85409078456E+02  0.00000000000E+00 0. -1.
        -11    1    5    5    0    0  0.43334023013E+01 -0.45818392028E+02  0.51488487425E+02  0.69059161310E+02  0.00000000000E+00 0.  1.
          2    1    6    6  503    0  0.36585653229E+00  0.11247650679E+03  0.40923145572E+03  0.42440721339E+03  0.00000000000E+00 0.  1.
         -2    1    6    6    0  503 -0.91725740414E+01  0.32811399743E+03  0.19371327716E+04  0.19647458630E+04  0.00000000000E+00 0. -1.
<mgrwt>
<rscale>  0 0.17442715E+04</rscale>
<asrwt>0</asrwt>
<pdfrwt beam="1">  1        2 0.39767918E+00 0.17442715E+04</pdfrwt>
<pdfrwt beam="2">  1       -1 0.45269806E-01 0.17442715E+04</pdfrwt>
<totfact> 0.16270364E+01</totfact>
</mgrwt>
</event>
<event>
12    6  0.1611689E-007  0.1267915E+04  0.7818608E-02  0.9055403E-01
          2   -1    0    0  501    0  0.00000000000E+00  0.00000000000E+00  0.22101469308E+04  0.22101469308E+04  0.00000000000E+00 0. -1.
         -1   -1    0    0    0  501 -0.00000000000E+00 -0.00000000000E+00 -0.18184410135E+03  0.18184410135E+03  0.00000000000E+00 0.  1.
         24    2    1    2    0    0 -0.23080987726E+03 -0.56521440919E+02  0.15033438315E+03  0.29215922401E+03  0.79301404115E+02 0.  0.
        254    2    1    2    0    0  0.23080987726E+03  0.56521440919E+02  0.18779684463E+04  0.20998318082E+04  0.90887857521E+03 0.  0.
         23    2    4    4    0    0  0.51696872579E+03  0.16201278264E+03  0.76045726796E+03  0.93807508935E+03  0.90469949015E+02 0.  0.
         23    2    4    4    0    0 -0.28615884853E+03 -0.10549134172E+03  0.11175111784E+04  0.11617567188E+04  0.88499323114E+02 0.  0.
          2    1    3    3  502    0 -0.45768524644E+02 -0.35934153973E+02  0.65335210356E+02  0.87491205170E+02  0.00000000000E+00 0. -1.
         -1    1    3    3    0  502 -0.18504135261E+03 -0.20587286946E+02  0.84999172794E+02  0.20466801884E+03  0.00000000000E+00 0.  1.
         11    1    5    5    0    0  0.20754530949E+03  0.11153918437E+03  0.33647055299E+03  0.41076572176E+03  0.00000000000E+00 0.  1.
        -11    1    5    5    0    0  0.30942341630E+03  0.50473598276E+02  0.42398671497E+03  0.52730936759E+03  0.00000000000E+00 0. -1.
          3    1    6    6  503    0 -0.21591985852E+03 -0.62215835665E+02  0.93238344944E+03  0.95907825140E+03  0.00000000000E+00 0. -1.
         -3    1    6    6    0  503 -0.70238990013E+02 -0.43275506057E+02  0.18512772893E+03  0.20267846743E+03  0.00000000000E+00 0.  1.
<mgrwt>
<rscale>  0 0.12679151E+04</rscale>
<asrwt>0</asrwt>
<pdfrwt beam="1">  1        2 0.34002259E+00 0.12679151E+04</pdfrwt>
<pdfrwt beam="2">  1       -1 0.27976017E-01 0.12679151E+04</pdfrwt>
<totfact> 0.65910282E+01</totfact>
</mgrwt>
</event>
<event>
12    6  0.1611689E-007  0.1387610E+04  0.7818608E-02  0.8962836E-01
         -1   -1    0    0    0  501 -0.00000000000E+00  0.00000000000E+00  0.39213077998E+03  0.39213077998E+03  0.00000000000E+00 0.  1.
          2   -1    0    0  501    0  0.00000000000E+00 -0.00000000000E+00 -0.12275637189E+04  0.12275637189E+04  0.00000000000E+00 0. -1.
         24    2    1    2    0    0 -0.74651415582E+02 -0.28438689095E+03 -0.53727726705E+03  0.61744659114E+03  0.78260421844E+02 0.  0.
        254    2    1    2    0    0  0.74651415582E+02  0.28438689095E+03 -0.29815567192E+03  0.10022479078E+04  0.91057966503E+03 0.  0.
         23    2    4    4    0    0 -0.31087113782E+02 -0.76861811436E+02 -0.53463843857E+03  0.54883401159E+03  0.92229960328E+02 0.  0.
         23    2    4    4    0    0  0.10573852936E+03  0.36124870239E+03  0.23648276665E+03  0.45341389619E+03  0.89324133181E+02 0.  0.
          4    1    3    3  502    0 -0.90602483992E+02 -0.25732447365E+03 -0.47884200373E+03  0.55110285735E+03  0.00000000000E+00 0. -1.
         -3    1    3    3    0  502  0.15951068410E+02 -0.27062417303E+02 -0.58435263322E+02  0.66343733790E+02  0.00000000000E+00 0.  1.
         11    1    5    5    0    0 -0.24178964943E+02  0.10789408499E+02 -0.53105248950E+02  0.59339709702E+02  0.00000000000E+00 0. -1.
        -11    1    5    5    0    0 -0.69081488393E+01 -0.87651219935E+02 -0.48153318962E+03  0.48949430189E+03  0.00000000000E+00 0.  1.
          2    1    6    6  503    0  0.32942293879E+02  0.32141119369E+02  0.93476551260E+01  0.46964081346E+02  0.00000000000E+00 0. -1.
         -2    1    6    6    0  503  0.72796235485E+02  0.32910758302E+03  0.22713511153E+03  0.40644981485E+03  0.00000000000E+00 0.  1.
<mgrwt>
<rscale>  0 0.13876102E+04</rscale>
<asrwt>0</asrwt>
<pdfrwt beam="1">  1        2 0.18885595E+00 0.13876102E+04</pdfrwt>
<pdfrwt beam="2">  1       -1 0.60327813E-01 0.13876102E+04</pdfrwt>
<totfact> 0.56435751E+01</totfact>
</mgrwt>
</event>
<event>
12    6  0.1611689E-007  0.1110379E+04  0.7818608E-02  0.9195134E-01
         -1   -1    0    0    0  501 -0.00000000000E+00  0.00000000000E+00  0.37652315907E+03  0.37652315907E+03  0.00000000000E+00 0.  1.
          2   -1    0    0  501    0  0.00000000000E+00 -0.00000000000E+00 -0.81863664616E+03  0.81863664616E+03  0.00000000000E+00 0. -1.
         24    2    1    2    0    0  0.78685511604E+02  0.15455618128E+03 -0.31437468799E+02  0.19330411089E+03  0.79367133856E+02 0.  0.
        254    2    1    2    0    0 -0.78685511604E+02 -0.15455618128E+03 -0.41067601829E+03  0.10018556943E+04  0.89720734358E+03 0.  0.
         23    2    4    4    0    0  0.15141051715E+03 -0.27130894710E+03  0.16603158720E+03  0.36391159728E+03  0.91276904031E+02 0.  0.
         23    2    4    4    0    0 -0.23009602875E+03  0.11675276583E+03 -0.57670760548E+03  0.63794409706E+03  0.88349408455E+02 0.  0.
          2    1    3    3  502    0  0.62591150212E+02  0.12885398099E+03 -0.56471535265E+02  0.15398063124E+03  0.00000000000E+00 0. -1.
         -3    1    3    3    0  502  0.16094361392E+02  0.25702200285E+02  0.25034066466E+02  0.39323479652E+02  0.00000000000E+00 0.  1.
         11    1    5    5    0    0  0.88655304607E+02 -0.83494806915E+02  0.91508386969E+02  0.15233164708E+03  0.00000000000E+00 0.  1.
        -11    1    5    5    0    0  0.62755212540E+02 -0.18781414019E+03  0.74523200226E+02  0.21157995020E+03  0.00000000000E+00 0. -1.
          3    1    6    6  503    0 -0.14468708592E+02  0.34289161836E+02 -0.45793753047E+02  0.59009812454E+02  0.00000000000E+00 0. -1.
         -3    1    6    6    0  503 -0.21562732016E+03  0.82463603991E+02 -0.53091385243E+03  0.57893428460E+03  0.00000000000E+00 0.  1.
<mgrwt>
<rscale>  0 0.11103795E+04</rscale>
<asrwt>0</asrwt>
<pdfrwt beam="1">  1        2 0.12594410E+00 0.11103795E+04</pdfrwt>
<pdfrwt beam="2">  1       -1 0.57926640E-01 0.11103795E+04</pdfrwt>
<totfact> 0.11420438E+02</totfact>
</mgrwt>
</event>
<event>
12    6  0.1611689E-007  0.1630644E+04  0.7818608E-02  0.8801940E-01
          2   -1    0    0  501    0  0.00000000000E+00  0.00000000000E+00  0.81173075433E+03  0.81173075433E+03  0.00000000000E+00 0. -1.
         -1   -1    0    0    0  501 -0.00000000000E+00 -0.00000000000E+00 -0.81892910464E+03  0.81892910464E+03  0.00000000000E+00 0.  1.
         24    2    1    2    0    0 -0.30996555571E+03 -0.96465784238E+02  0.45885152791E+03  0.56804944979E+03  0.82165439689E+02 0.  0.
        254    2    1    2    0    0  0.30996555571E+03  0.96465784238E+02 -0.46604987822E+03  0.10626104092E+04  0.89808357043E+03 0.  0.
         23    2    4    4    0    0 -0.76266960468E+02 -0.23379365431E+03 -0.47785097601E+03  0.54626858784E+03  0.97937187715E+02 0.  0.
         23    2    4    4    0    0  0.38623251618E+03  0.33025943855E+03  0.11801097788E+02  0.51634182135E+03  0.90679420268E+02 0.  0.
          4    1    3    3  502    0 -0.27831583440E+03 -0.66070729880E+02  0.42644862724E+03  0.51350119444E+03  0.00000000000E+00 0. -1.
         -3    1    3    3    0  502 -0.31649721314E+02 -0.30395054358E+02  0.32402900673E+02  0.54548255340E+02  0.00000000000E+00 0.  1.
         11    1    5    5    0    0  0.17241463098E+02 -0.36640986816E+02 -0.39289221148E+02  0.56422272757E+02  0.00000000000E+00 0.  1.
        -11    1    5    5    0    0 -0.93508423566E+02 -0.19715266749E+03 -0.43856175486E+03  0.48984631508E+03  0.00000000000E+00 0. -1.
          3    1    6    6  503    0  0.36260269779E+03  0.29622852821E+03  0.33786196290E+02  0.46943962810E+03  0.00000000000E+00 0. -1.
         -3    1    6    6    0  503  0.23629818390E+02  0.34030910333E+02 -0.21985098501E+02  0.46902193246E+02  0.00000000000E+00 0.  1.
<mgrwt>
<rscale>  0 0.16306440E+04</rscale>
<asrwt>0</asrwt>
<pdfrwt beam="1">  1        2 0.12488165E+00 0.16306440E+04</pdfrwt>
<pdfrwt beam="2">  1       -1 0.12598909E+00 0.16306440E+04</pdfrwt>
<totfact> 0.20249642E+01</totfact>
</mgrwt>
</event>
<event>
12    6  0.1611689E-007  0.1708614E+04  0.7818608E-02  0.8756467E-01
         -1   -1    0    0    0  501 -0.00000000000E+00  0.00000000000E+00  0.48728565339E+03  0.48728565339E+03  0.00000000000E+00 0.  1.
          2   -1    0    0  501    0  0.00000000000E+00 -0.00000000000E+00 -0.14977668470E+04  0.14977668470E+04  0.00000000000E+00 0. -1.
         24    2    1    2    0    0 -0.77235626422E+02 -0.16029496392E+03  0.31870204291E+03  0.37364209458E+03  0.79859910067E+02 0.  0.
        254    2    1    2    0    0  0.77235626422E+02  0.16029496392E+03 -0.13291832365E+04  0.16114104058E+04  0.89345151085E+03 0.  0.
         23    2    4    4    0    0 -0.39314085342E+02  0.45788440482E+03 -0.37373329032E+03  0.59924528875E+03  0.90634531598E+02 0.  0.
         23    2    4    4    0    0  0.11654971176E+03 -0.29758944089E+03 -0.95544994619E+03  0.10121651170E+04  0.97212724682E+02 0.  0.
          4    1    3    3  502    0  0.12644762252E+02 -0.41782393867E+01  0.36414226824E+02  0.38772975278E+02  0.00000000000E+00 0. -1.
         -3    1    3    3    0  502 -0.89880388673E+02 -0.15611672454E+03  0.28228781609E+03  0.33486911930E+03  0.00000000000E+00 0.  1.
         11    1    5    5    0    0 -0.60349253901E+02  0.42180561428E+03 -0.33165689974E+03  0.53996139476E+03  0.00000000000E+00 0. -1.
        -11    1    5    5    0    0  0.21035168559E+02  0.36078790540E+02 -0.42076390580E+02  0.59283893996E+02  0.00000000000E+00 0.  1.
          1    1    6    6  503    0  0.12006746545E+03 -0.19515848945E+03 -0.60114028227E+03  0.64332936450E+03  0.00000000000E+00 0. -1.
         -1    1    6    6    0  503 -0.35177536850E+01 -0.10243095144E+03 -0.35430966393E+03  0.36883575255E+03  0.00000000000E+00 0.  1.
<mgrwt>
<rscale>  0 0.17086138E+04</rscale>
<asrwt>0</asrwt>
<pdfrwt beam="1">  1        2 0.23042567E+00 0.17086138E+04</pdfrwt>
<pdfrwt beam="2">  1       -1 0.74967025E-01 0.17086138E+04</pdfrwt>
<totfact> 0.24685982E+01</totfact>
</mgrwt>
</event>
<event>
12    6  0.1611689E-007  0.2020356E+04  0.7818608E-02  0.8597162E-01
          2   -1    0    0  501    0  0.00000000000E+00  0.00000000000E+00  0.14522188208E+04  0.14522188208E+04  0.00000000000E+00 0. -1.
         -1   -1    0    0    0  501 -0.00000000000E+00 -0.00000000000E+00 -0.70268965982E+03  0.70268965982E+03  0.00000000000E+00 0.  1.
         24    2    1    2    0    0  0.57989092013E+03  0.46418100002E+03 -0.40347988884E+02  0.74829648368E+03  0.81130680119E+02 0.  0.
        254    2    1    2    0    0 -0.57989092013E+03 -0.46418100002E+03  0.78987714988E+03  0.14066119969E+04  0.89605464009E+03 0.  0.
         23    2    4    4    0    0 -0.22609169679E+03 -0.60176869649E+03  0.78342841925E+03  0.10167464980E+04  0.82282037844E+02 0.  0.
         23    2    4    4    0    0 -0.35379922334E+03  0.13758769647E+03  0.64487306332E+01  0.38986549891E+03  0.88596029586E+02 0.  0.
          2    1    3    3  502    0  0.32175905921E+03  0.26358320398E+03  0.17495194171E+02  0.41630647295E+03  0.00000000000E+00 0. -1.
         -1    1    3    3    0  502  0.25813186092E+03  0.20059779604E+03 -0.57843183055E+02  0.33199001073E+03  0.00000000000E+00 0.  1.
         11    1    5    5    0    0 -0.22715546184E+03 -0.54304051337E+03  0.72534339879E+03  0.93413898814E+03  0.00000000000E+00 0. -1.
        -11    1    5    5    0    0  0.10637650510E+01 -0.58728183126E+02  0.58085020457E+02  0.82607509894E+02  0.00000000000E+00 0.  1.
          4    1    6    6  503    0 -0.35577198670E+03  0.14231394807E+03  0.21610433182E+01  0.38318616422E+03  0.00000000000E+00 0. -1.
         -4    1    6    6    0  503  0.19727633627E+01 -0.47262515996E+01  0.42876873151E+01  0.66793346959E+01  0.00000000000E+00 0.  1.
<mgrwt>
<rscale>  0 0.20203556E+04</rscale>
<asrwt>0</asrwt>
<pdfrwt beam="1">  1        2 0.22341828E+00 0.20203556E+04</pdfrwt>
<pdfrwt beam="2">  1       -1 0.10810610E+00 0.20203556E+04</pdfrwt>
<totfact> 0.11354477E+01</totfact>
</mgrwt>
</event>
<event>
12    6  0.1611689E-007  0.1749993E+04  0.7818608E-02  0.8733354E-01
          2   -1    0    0  501    0  0.00000000000E+00  0.00000000000E+00  0.10125635345E+04  0.10125635345E+04  0.00000000000E+00 0. -1.
         -1   -1    0    0    0  501 -0.00000000000E+00 -0.00000000000E+00 -0.75611948688E+03  0.75611948688E+03  0.00000000000E+00 0.  1.
         24    2    1    2    0    0 -0.32358399096E+03  0.55315525783E+03  0.11287891101E+03  0.65524980386E+03  0.76963097963E+02 0.  0.
        254    2    1    2    0    0  0.32358399096E+03 -0.55315525783E+03  0.14356513656E+03  0.11134332175E+04  0.89913027025E+03 0.  0.
         23    2    4    4    0    0  0.41536211763E+03 -0.54434551032E+03  0.41983499012E+03  0.80830274340E+03  0.90852532625E+02 0.  0.
         23    2    4    4    0    0 -0.91778126673E+02 -0.88097475060E+01 -0.27626985356E+03  0.30513047408E+03  0.90987570772E+02 0.  0.
          2    1    3    3  502    0 -0.18702969938E+03  0.29953265195E+03  0.24629173391E+02  0.35398660175E+03  0.00000000000E+00 0. -1.
         -1    1    3    3    0  502 -0.13655429157E+03  0.25362260587E+03  0.88249737621E+02  0.30126320211E+03  0.00000000000E+00 0.  1.
         11    1    5    5    0    0  0.29399942959E+03 -0.44652873918E+03  0.31648394761E+03  0.62127744897E+03  0.00000000000E+00 0. -1.
        -11    1    5    5    0    0  0.12136268804E+03 -0.97816771142E+02  0.10335104252E+03  0.18702529442E+03  0.00000000000E+00 0.  1.
          4    1    6    6  503    0 -0.48202776721E+02 -0.13457821504E+02 -0.24795760360E+03  0.25295769177E+03  0.00000000000E+00 0. -1.
         -4    1    6    6    0  503 -0.43575349952E+02  0.46480739980E+01 -0.28312249962E+02  0.52172782303E+02  0.00000000000E+00 0.  1.
<mgrwt>
<rscale>  0 0.17499932E+04</rscale>
<asrwt>0</asrwt>
<pdfrwt beam="1">  1        2 0.15577901E+00 0.17499932E+04</pdfrwt>
<pdfrwt beam="2">  1       -1 0.11632607E+00 0.17499932E+04</pdfrwt>
<totfact> 0.17854649E+01</totfact>
</mgrwt>
</event>
<event>
12    6  0.1611689E-007  0.2473878E+04  0.7818608E-02  0.8412351E-01
         -1   -1    0    0    0  501 -0.00000000000E+00  0.00000000000E+00  0.54836840670E+03  0.54836840670E+03  0.00000000000E+00 0.  1.
          2   -1    0    0  501    0  0.00000000000E+00 -0.00000000000E+00 -0.27901286642E+04  0.27901286642E+04  0.00000000000E+00 0. -1.
         24    2    1    2    0    0 -0.89081839238E+03  0.16411246837E+03 -0.20671289252E+03  0.93258389128E+03  0.80574089241E+02 0.  0.
        254    2    1    2    0    0  0.89081839238E+03 -0.16411246837E+03 -0.20350473650E+04  0.24059131796E+04  0.90912603071E+03 0.  0.
         23    2    4    4    0    0  0.34426849737E+03  0.35365722378E+03 -0.10378886026E+04  0.11531153688E+04  0.94170441607E+02 0.  0.
         23    2    4    4    0    0  0.54654989501E+03 -0.51776969216E+03 -0.99715876239E+03  0.12527978109E+04  0.91512379719E+02 0.  0.
          4    1    3    3  502    0 -0.42845624585E+03  0.11982599693E+03 -0.10341161404E+03  0.45675703176E+03  0.00000000000E+00 0. -1.
         -3    1    3    3    0  502 -0.46236214654E+03  0.44286471438E+02 -0.10330127849E+03  0.47582685952E+03  0.00000000000E+00 0.  1.
         11    1    5    5    0    0  0.63570005764E+02  0.23349969080E+02 -0.17018897049E+03  0.18316837163E+03  0.00000000000E+00 0. -1.
        -11    1    5    5    0    0  0.28069849161E+03  0.33030725471E+03 -0.86769963212E+03  0.96994699715E+03  0.00000000000E+00 0.  1.
          4    1    6    6  503    0  0.36468624811E+03 -0.28767402833E+03 -0.58629534951E+03  0.74799374530E+03  0.00000000000E+00 0.  1.
         -4    1    6    6    0  503  0.18186364690E+03 -0.23009566383E+03 -0.41086341287E+03  0.50480406557E+03  0.00000000000E+00 0. -1.
<mgrwt>
<rscale>  0 0.24738783E+04</rscale>
<asrwt>0</asrwt>
<pdfrwt beam="1">  1        2 0.42925057E+00 0.24738783E+04</pdfrwt>
<pdfrwt beam="2">  1       -1 0.84364370E-01 0.24738783E+04</pdfrwt>
<totfact> 0.33163481E+00</totfact>
</mgrwt>
</event>
<event>
12    6  0.1611689E-007  0.1294465E+04  0.7818608E-02  0.9033966E-01
          2   -1    0    0  501    0  0.00000000000E+00  0.00000000000E+00  0.53621237540E+03  0.53621237540E+03  0.00000000000E+00 0. -1.
         -1   -1    0    0    0  501 -0.00000000000E+00 -0.00000000000E+00 -0.78123834652E+03  0.78123834652E+03  0.00000000000E+00 0.  1.
         24    2    1    2    0    0  0.23227974686E+02  0.23062287236E+03 -0.36504086238E+03  0.43946404464E+03  0.78405148160E+02 0.  0.
        254    2    1    2    0    0 -0.23227974686E+02 -0.23062287236E+03  0.12001489126E+03  0.87798667729E+03  0.83829027389E+03 0.  0.
         23    2    4    4    0    0 -0.23373046136E+03 -0.47088966534E+03  0.11449703841E+03  0.54572869694E+03  0.91341301505E+02 0.  0.
         23    2    4    4    0    0  0.21050248668E+03  0.24026679298E+03  0.55178528460E+01  0.33225798035E+03  0.91244123632E+02 0.  0.
          2    1    3    3  502    0  0.16146011050E+02  0.87950768087E+01 -0.10464623415E+02  0.21155505008E+02  0.00000000000E+00 0. -1.
         -1    1    3    3    0  502  0.70819636352E+01  0.22182779555E+03 -0.35457623897E+03  0.41830853963E+03  0.00000000000E+00 0.  1.
         11    1    5    5    0    0 -0.87894845926E+02 -0.15200593140E+03 -0.38961191913E+01  0.17563167956E+03  0.00000000000E+00 0.  1.
        -11    1    5    5    0    0 -0.14583561544E+03 -0.31888373394E+03  0.11839315760E+03  0.37009701738E+03  0.00000000000E+00 0. -1.
          2    1    6    6  503    0  0.12250578954E+03  0.19188496709E+03 -0.20335996419E+02  0.22856303686E+03  0.00000000000E+00 0. -1.
         -2    1    6    6    0  503  0.87996697139E+02  0.48381825888E+02  0.25853849266E+02  0.10369494349E+03  0.00000000000E+00 0.  1.
<mgrwt>
<rscale>  0 0.12944646E+04</rscale>
<asrwt>0</asrwt>
<pdfrwt beam="1">  1        2 0.82494212E-01 0.12944646E+04</pdfrwt>
<pdfrwt beam="2">  1       -1 0.12019051E+00 0.12944646E+04</pdfrwt>
<totfact> 0.39234065E+01</totfact>
</mgrwt>
</event>
<event>
12    6  0.1611689E-007  0.1482524E+04  0.7818608E-02  0.8896158E-01
          2   -1    0    0  501    0  0.00000000000E+00  0.00000000000E+00  0.22674948063E+04  0.22674948063E+04  0.00000000000E+00 0. -1.
         -1   -1    0    0    0  501 -0.00000000000E+00 -0.00000000000E+00 -0.24232445302E+03  0.24232445302E+03  0.00000000000E+00 0.  1.
         24    2    1    2    0    0  0.15871636913E+03  0.32641831209E+03  0.15559365713E+03  0.40273135614E+03  0.79014927581E+02 0.  0.
        254    2    1    2    0    0 -0.15871636913E+03 -0.32641831209E+03  0.18695766962E+04  0.21070879032E+04  0.90153347615E+03 0.  0.
         23    2    4    4    0    0  0.29761121759E+03  0.19409078947E+02  0.10968620430E+04  0.11404298263E+04  0.92329292128E+02 0.  0.
         23    2    4    4    0    0 -0.45632758673E+03 -0.34582739104E+03  0.77271465318E+03  0.96665807689E+03  0.97511289487E+02 0.  0.
          4    1    3    3  502    0  0.15608287108E+03  0.29001303765E+03  0.11674691929E+03  0.34942705650E+03  0.00000000000E+00 0. -1.
         -3    1    3    3    0  502  0.26334980550E+01  0.36405274441E+02  0.38846737844E+02  0.53304299642E+02  0.00000000000E+00 0.  1.
         11    1    5    5    0    0  0.10443728441E+02  0.22394068318E+02  0.73955330953E+02  0.77974077333E+02  0.00000000000E+00 0.  1.
        -11    1    5    5    0    0  0.28716748915E+03 -0.29849893705E+01  0.10229067120E+04  0.10624557490E+04  0.00000000000E+00 0. -1.
          1    1    6    6  503    0 -0.35553516481E+03 -0.21511574276E+03  0.56443351967E+03  0.70090315617E+03  0.00000000000E+00 0. -1.
         -1    1    6    6    0  503 -0.10079242192E+03 -0.13071164828E+03  0.20828113350E+03  0.26575492072E+03  0.00000000000E+00 0.  1.
<mgrwt>
<rscale>  0 0.14825241E+04</rscale>
<asrwt>0</asrwt>
<pdfrwt beam="1">  1        2 0.34884534E+00 0.14825241E+04</pdfrwt>
<pdfrwt beam="2">  1       -1 0.37280687E-01 0.14825241E+04</pdfrwt>
<totfact> 0.36145647E+01</totfact>
</mgrwt>
</event>
<event>
12    6  0.1611689E-007  0.1830904E+04  0.7818608E-02  0.8690036E-01
         -1   -1    0    0    0  501 -0.00000000000E+00  0.00000000000E+00  0.68914415535E+03  0.68914415535E+03  0.00000000000E+00 0.  1.
          2   -1    0    0  501    0  0.00000000000E+00 -0.00000000000E+00 -0.12160768049E+04  0.12160768049E+04  0.00000000000E+00 0. -1.
         24    2    1    2    0    0  0.26781012771E+03  0.38752490475E+03  0.32877619439E+03  0.57945413054E+03  0.75996625564E+02 0.  0.
        254    2    1    2    0    0 -0.26781012771E+03 -0.38752490475E+03 -0.85570884399E+03  0.13257668298E+04  0.89639402324E+03 0.  0.
         23    2    4    4    0    0  0.59437511863E+02 -0.54045438712E+03 -0.23004192148E+03  0.59767406802E+03  0.93119512338E+02 0.  0.
         23    2    4    4    0    0 -0.32724763957E+03  0.15292948237E+03 -0.62566692251E+03  0.72809276174E+03  0.90451797010E+02 0.  0.
          2    1    3    3  502    0  0.70870620527E+02  0.10417418659E+03  0.48896952262E+02  0.13515109302E+03  0.00000000000E+00 0. -1.
         -1    1    3    3    0  502  0.19693950718E+03  0.28335071816E+03  0.27987924212E+03  0.44430303751E+03  0.00000000000E+00 0.  1.
         11    1    5    5    0    0  0.98758651391E+01 -0.34641445472E+03 -0.10731034193E+03  0.36278921791E+03  0.00000000000E+00 0.  1.
        -11    1    5    5    0    0  0.49561646724E+02 -0.19403993240E+03 -0.12273157955E+03  0.23488485011E+03  0.00000000000E+00 0. -1.
          3    1    6    6  503    0 -0.60852644268E+01 -0.14236827660E+01  0.18035975046E+01  0.65046352489E+01  0.00000000000E+00 0. -1.
         -3    1    6    6    0  503 -0.32116237515E+03  0.15435316513E+03 -0.62747052002E+03  0.72158812649E+03  0.00000000000E+00 0.  1.
<mgrwt>
<rscale>  0 0.18309038E+04</rscale>
<asrwt>0</asrwt>
<pdfrwt beam="1">  1        2 0.18708874E+00 0.18309038E+04</pdfrwt>
<pdfrwt beam="2">  1       -1 0.10602218E+00 0.18309038E+04</pdfrwt>
<totfact> 0.16559045E+01</totfact>
</mgrwt>
</event>
<event>
12    6  0.1611689E-007  0.1317578E+04  0.7818608E-02  0.9015741E-01
          2   -1    0    0  501    0  0.00000000000E+00  0.00000000000E+00  0.84241021124E+03  0.84241021124E+03  0.00000000000E+00 0. -1.
         -1   -1    0    0    0  501 -0.00000000000E+00 -0.00000000000E+00 -0.51519200380E+03  0.51519200380E+03  0.00000000000E+00 0.  1.
         24    2    1    2    0    0  0.25134161985E+02 -0.26403826088E+03 -0.13994268159E+03  0.31042493590E+03  0.80198238087E+02 0.  0.
        254    2    1    2    0    0 -0.25134161985E+02  0.26403826088E+03  0.46716088902E+03  0.10471772791E+04  0.89888432426E+03 0.  0.
         23    2    4    4    0    0  0.39893176680E+03  0.10264216894E+03  0.52112811457E+02  0.42529034182E+03  0.92055202571E+02 0.  0.
         23    2    4    4    0    0 -0.42406592878E+03  0.16139609195E+03  0.41504807757E+03  0.62188693732E+03  0.92724568882E+02 0.  0.
          4    1    3    3  502    0 -0.21008870970E+02 -0.63539450021E+02 -0.59398401171E+02  0.89480748936E+02  0.00000000000E+00 0. -1.
         -3    1    3    3    0  502  0.46143032955E+02 -0.20049881086E+03 -0.80544280417E+02  0.22094418697E+03  0.00000000000E+00 0.  1.
         11    1    5    5    0    0  0.79096910267E+02 -0.81416809378E+01  0.33551906937E+02  0.86303757979E+02  0.00000000000E+00 0.  1.
        -11    1    5    5    0    0  0.31983485653E+03  0.11078384987E+03  0.18560904520E+02  0.33898658384E+03  0.00000000000E+00 0. -1.
          1    1    6    6  503    0 -0.23252941451E+03  0.96792531231E+02  0.29038537224E+03  0.38439873455E+03  0.00000000000E+00 0. -1.
         -1    1    6    6    0  503 -0.19153651427E+03  0.64603560715E+02  0.12466270533E+03  0.23748820277E+03  0.00000000000E+00 0.  1.
<mgrwt>
<rscale>  0 0.13175781E+04</rscale>
<asrwt>0</asrwt>
<pdfrwt beam="1">  1        2 0.12960157E+00 0.13175781E+04</pdfrwt>
<pdfrwt beam="2">  1       -1 0.79260308E-01 0.13175781E+04</pdfrwt>
<totfact> 0.57149565E+01</totfact>
</mgrwt>
</event>
<event>
12    6  0.1611689E-007  0.1530988E+04  0.7818608E-02  0.8864104E-01
         -1   -1    0    0    0  501 -0.00000000000E+00  0.00000000000E+00  0.28641571870E+03  0.28641571870E+03  0.00000000000E+00 0.  1.
          2   -1    0    0  501    0  0.00000000000E+00 -0.00000000000E+00 -0.20459116334E+04  0.20459116334E+04  0.00000000000E+00 0. -1.
         24    2    1    2    0    0  0.14181191107E+03  0.18882925413E+03  0.79221112359E+02  0.26156134854E+03  0.79820104394E+02 0.  0.
        254    2    1    2    0    0 -0.14181191107E+03 -0.18882925413E+03 -0.18387170271E+04  0.20707660036E+04  0.92272662830E+03 0.  0.
         23    2    4    4    0    0 -0.37872891425E+03  0.20179179297E+03 -0.56807648957E+03  0.71771297555E+03  0.90804730434E+02 0.  0.
         23    2    4    4    0    0  0.23691700318E+03 -0.39062104710E+03 -0.12706405375E+04  0.13530530280E+04  0.86664019516E+02 0.  0.
          4    1    3    3  502    0  0.61792291984E+02  0.24816491229E+02  0.25778212394E+02  0.71404914535E+02  0.00000000000E+00 0. -1.
         -3    1    3    3    0  502  0.80019619087E+02  0.16401276291E+03  0.53442899965E+02  0.19015643400E+03  0.00000000000E+00 0.  1.
         11    1    5    5    0    0 -0.48998553534E+02  0.37060967247E+02 -0.13955475692E+03  0.15247919110E+03  0.00000000000E+00 0. -1.
        -11    1    5    5    0    0 -0.32973036071E+03  0.16473082572E+03 -0.42852173266E+03  0.56523378445E+03  0.00000000000E+00 0.  1.
          4    1    6    6  503    0  0.10239708559E+03 -0.24831177120E+03 -0.76794749643E+03  0.81356453716E+03  0.00000000000E+00 0. -1.
         -4    1    6    6    0  503  0.13451991759E+03 -0.14230927590E+03 -0.50269304108E+03  0.53948849088E+03  0.00000000000E+00 0.  1.
<mgrwt>
<rscale>  0 0.15309882E+04</rscale>
<asrwt>0</asrwt>
<pdfrwt beam="1">  1        2 0.31475564E+00 0.15309882E+04</pdfrwt>
<pdfrwt beam="2">  1       -1 0.44063956E-01 0.15309882E+04</pdfrwt>
<totfact> 0.35242959E+01</totfact>
</mgrwt>
</event>
<event>
12    6  0.1611689E-007  0.3740262E+04  0.7818608E-02  0.8059097E-01
         -1   -1    0    0    0  501 -0.00000000000E+00  0.00000000000E+00  0.11873576141E+04  0.11873576141E+04  0.00000000000E+00 0.  1.
          2   -1    0    0  501    0  0.00000000000E+00 -0.00000000000E+00 -0.29455241652E+04  0.29455241652E+04  0.00000000000E+00 0. -1.
         24    2    1    2    0    0  0.16212991898E+04 -0.41471425397E+03 -0.14326605542E+04  0.22054293871E+04  0.10394009128E+03 0.  0.
        254    2    1    2    0    0 -0.16212991898E+04  0.41471425397E+03 -0.32550599694E+03  0.19274523923E+04  0.89917717668E+03 0.  0.
         23    2    4    4    0    0 -0.35019946652E+03 -0.21242518367E+03  0.12147158677E+03  0.43846052896E+03  0.98631455715E+02 0.  0.
         23    2    4    4    0    0 -0.12710997233E+04  0.62713943764E+03 -0.44697758371E+03  0.14889918633E+04  0.91156063084E+02 0.  0.
          4    1    3    3  502    0  0.48682736424E+02 -0.19135098237E+02 -0.24545228153E+02  0.57780870843E+02  0.00000000000E+00 0. -1.
         -3    1    3    3    0  502  0.15726164534E+04 -0.39557915574E+03 -0.14081153260E+04  0.21476485162E+04  0.00000000000E+00 0.  1.
         11    1    5    5    0    0 -0.18844393607E+03 -0.10783130895E+03  0.11508209393E+03  0.24572870523E+03  0.00000000000E+00 0.  1.
        -11    1    5    5    0    0 -0.16175553045E+03 -0.10459387472E+03  0.63894928445E+01  0.19273182373E+03  0.00000000000E+00 0. -1.
          1    1    6    6  503    0 -0.73113389884E+03  0.39658175909E+03 -0.22909466857E+03  0.86273879990E+03  0.00000000000E+00 0. -1.
         -1    1    6    6    0  503 -0.53996582447E+03  0.23055767855E+03 -0.21788291514E+03  0.62625306342E+03  0.00000000000E+00 0.  1.
<mgrwt>
<rscale>  0 0.37402623E+04</rscale>
<asrwt>0</asrwt>
<pdfrwt beam="1">  1        2 0.45315756E+00 0.37402623E+04</pdfrwt>
<pdfrwt beam="2">  1       -1 0.18267040E+00 0.37402623E+04</pdfrwt>
<totfact> 0.34291814E-01</totfact>
</mgrwt>
</event>
<event>
12    6  0.1611689E-007  0.1199600E+04  0.7818608E-02  0.9113207E-01
         -1   -1    0    0    0  501 -0.00000000000E+00  0.00000000000E+00  0.18355203455E+03  0.18355203455E+03  0.00000000000E+00 0.  1.
          2   -1    0    0  501    0  0.00000000000E+00 -0.00000000000E+00 -0.19599898089E+04  0.19599898089E+04  0.00000000000E+00 0. -1.
         24    2    1    2    0    0 -0.99862522359E+02 -0.18746114371E+03 -0.61378476137E+03  0.65425207231E+03  0.78739044093E+02 0.  0.
        254    2    1    2    0    0  0.99862522359E+02  0.18746114371E+03 -0.11626530130E+04  0.14892897711E+04  0.90614998210E+03 0.  0.
         23    2    4    4    0    0  0.34015831193E+03  0.41909329471E+03 -0.90431246076E+03  0.10575593808E+04  0.96456987129E+02 0.  0.
         23    2    4    4    0    0 -0.24029578957E+03 -0.23163215100E+03 -0.25834055222E+03  0.43173039035E+03  0.90861263286E+02 0.  0.
          4    1    3    3  502    0 -0.92355132897E+02 -0.14509563373E+03 -0.55736162883E+03  0.58329597872E+03  0.00000000000E+00 0. -1.
         -3    1    3    3    0  502 -0.75073894628E+01 -0.42365509979E+02 -0.56423132534E+02  0.70956093588E+02  0.00000000000E+00 0.  1.
         11    1    5    5    0    0  0.21734599434E+02  0.72908981127E+02 -0.15852498738E+03  0.17583595755E+03  0.00000000000E+00 0.  1.
        -11    1    5    5    0    0  0.31842371249E+03  0.34618431359E+03 -0.74578747337E+03  0.88172342324E+03  0.00000000000E+00 0. -1.
          1    1    6    6  503    0 -0.19481523490E+03 -0.18603628885E+03 -0.24867478100E+03  0.36660826945E+03  0.00000000000E+00 0. -1.
         -1    1    6    6    0  503 -0.45480554665E+02 -0.45595862150E+02 -0.96657712258E+01  0.65122120906E+02  0.00000000000E+00 0.  1.
<mgrwt>
<rscale>  0 0.11996001E+04</rscale>
<asrwt>0</asrwt>
<pdfrwt beam="1">  1        2 0.30153689E+00 0.11996001E+04</pdfrwt>
<pdfrwt beam="2">  1       -1 0.28238775E-01 0.11996001E+04</pdfrwt>
<totfact> 0.89777265E+01</totfact>
</mgrwt>
</event>
<event>
12    6  0.1611689E-007  0.3375610E+04  0.7818608E-02  0.8143918E-01
          2   -1    0    0  501    0  0.00000000000E+00  0.00000000000E+00  0.15344761708E+04  0.15344761708E+04  0.00000000000E+00 0. -1.
         -1   -1    0    0    0  501 -0.00000000000E+00 -0.00000000000E+00 -0.18564548774E+04  0.18564548774E+04  0.00000000000E+00 0.  1.
         24    2    1    2    0    0 -0.75226116025E+03 -0.75819025500E+03 -0.13020566156E+04  0.16861094109E+04  0.82850463871E+02 0.  0.
        254    2    1    2    0    0  0.75226116025E+03  0.75819025500E+03  0.98007790899E+03  0.17048216373E+04  0.89728189065E+03 0.  0.
         23    2    4    4    0    0  0.28705620338E+02 -0.18105517924E+03  0.17115586771E+03  0.26663032621E+03  0.90511928684E+02 0.  0.
         23    2    4    4    0    0  0.72355553991E+03  0.93924543424E+03  0.80892204128E+03  0.14381913111E+04  0.91240195711E+02 0.  0.
          4    1    3    3  502    0 -0.38379494400E+03 -0.33528324041E+03 -0.58861968768E+03  0.77857982704E+03  0.00000000000E+00 0. -1.
         -3    1    3    3    0  502 -0.36846621625E+03 -0.42290701459E+03 -0.71343692788E+03  0.90752958385E+03  0.00000000000E+00 0.  1.
         11    1    5    5    0    0  0.70103095718E+01 -0.38227272046E+02 -0.45827913035E+01  0.39134010074E+02  0.00000000000E+00 0. -1.
        -11    1    5    5    0    0  0.21695310766E+02 -0.14282790720E+03  0.17573865902E+03  0.22749631614E+03  0.00000000000E+00 0.  1.
          3    1    6    6  503    0  0.12803183518E+03  0.22729269155E+03  0.17067587367E+03  0.31174408142E+03  0.00000000000E+00 0. -1.
         -3    1    6    6    0  503  0.59552370473E+03  0.71195274270E+03  0.63824616761E+03  0.11264472297E+04  0.00000000000E+00 0.  1.
<mgrwt>
<rscale>  0 0.33756100E+04</rscale>
<asrwt>0</asrwt>
<pdfrwt beam="1">  1        2 0.23607326E+00 0.33756100E+04</pdfrwt>
<pdfrwt beam="2">  1       -1 0.28560844E+00 0.33756100E+04</pdfrwt>
<totfact> 0.46952192E-01</totfact>
</mgrwt>
</event>
<event>
12    6  0.1611689E-007  0.1113441E+04  0.7818608E-02  0.9192190E-01
          2   -1    0    0  501    0  0.00000000000E+00  0.00000000000E+00  0.17993408389E+04  0.17993408389E+04  0.00000000000E+00 0. -1.
         -1   -1    0    0    0  501 -0.00000000000E+00 -0.00000000000E+00 -0.17225068110E+03  0.17225068110E+03  0.00000000000E+00 0.  1.
         24    2    1    2    0    0  0.17736528944E+03 -0.25048944186E+02  0.23723213877E+03  0.30805034635E+03  0.80808617843E+02 0.  0.
        254    2    1    2    0    0 -0.17736528944E+03  0.25048944186E+02  0.13898580190E+04  0.16635411736E+04  0.89642513789E+03 0.  0.
         23    2    4    4    0    0 -0.52414730162E+03 -0.84159501037E+02  0.83716680519E+03  0.99571162379E+03  0.93702521966E+02 0.  0.
         23    2    4    4    0    0  0.34678201218E+03  0.10920844522E+03  0.55269121379E+03  0.66782954982E+03  0.91348132596E+02 0.  0.
          2    1    3    3  502    0  0.96930743409E+01 -0.24107993134E+02  0.16217026119E+02  0.30629119466E+02  0.00000000000E+00 0. -1.
         -1    1    3    3    0  502  0.16767221510E+03 -0.94095105234E+00  0.22101511265E+03  0.27742122689E+03  0.00000000000E+00 0.  1.
         11    1    5    5    0    0 -0.76944834605E+02 -0.94978703079E+01  0.19294550797E+03  0.20793914052E+03  0.00000000000E+00 0.  1.
        -11    1    5    5    0    0 -0.44720246702E+03 -0.74661630729E+02  0.64422129722E+03  0.78777248327E+03  0.00000000000E+00 0. -1.
          2    1    6    6  503    0  0.30616618039E+03  0.12289358747E+03  0.50947759599E+03  0.60696621378E+03  0.00000000000E+00 0. -1.
         -2    1    6    6    0  503  0.40615831785E+02 -0.13685142247E+02  0.43213617807E+02  0.60863336040E+02  0.00000000000E+00 0.  1.
<mgrwt>
<rscale>  0 0.11134409E+04</rscale>
<asrwt>0</asrwt>
<pdfrwt beam="1">  1        2 0.27682165E+00 0.11134409E+04</pdfrwt>
<pdfrwt beam="2">  1       -1 0.26500106E-01 0.11134409E+04</pdfrwt>
<totfact> 0.12371237E+02</totfact>
</mgrwt>
</event>
<event>
12    6  0.1611689E-007  0.1839116E+04  0.7818608E-02  0.8685770E-01
         -1   -1    0    0    0  501 -0.00000000000E+00  0.00000000000E+00  0.42395232120E+03  0.42395232120E+03  0.00000000000E+00 0.  1.
          2   -1    0    0  501    0  0.00000000000E+00 -0.00000000000E+00 -0.19945329834E+04  0.19945329834E+04  0.00000000000E+00 0. -1.
         24    2    1    2    0    0  0.54243805796E+03  0.30503796494E+03 -0.10167088421E+04  0.11946429206E+04  0.78661498859E+02 0.  0.
        254    2    1    2    0    0 -0.54243805796E+03 -0.30503796494E+03 -0.55387182012E+03  0.12238423840E+04  0.89650933123E+03 0.  0.
         23    2    4    4    0    0 -0.10325002270E+03 -0.26820341210E+03 -0.69066416429E+03  0.75340202639E+03  0.89465010446E+02 0.  0.
         23    2    4    4    0    0 -0.43918803527E+03 -0.36834552835E+02  0.13679234417E+03  0.47044035761E+03  0.91427949990E+02 0.  0.
          4    1    3    3  502    0  0.53475076618E+03  0.28942015537E+03 -0.10009435400E+04  0.11711577086E+04  0.00000000000E+00 0. -1.
         -3    1    3    3    0  502  0.76872917833E+01  0.15617809568E+02 -0.15765302068E+02  0.23485211942E+02  0.00000000000E+00 0.  1.
         11    1    5    5    0    0  0.62520681058E+01 -0.44427091938E+02 -0.57111129395E+02  0.72626000540E+02  0.00000000000E+00 0. -1.
        -11    1    5    5    0    0 -0.10950209080E+03 -0.22377632016E+03 -0.63355303489E+03  0.68077602585E+03  0.00000000000E+00 0.  1.
          3    1    6    6  503    0 -0.37607770753E+02  0.25127974558E+01  0.41058810351E+02  0.55735845553E+02  0.00000000000E+00 0. -1.
         -3    1    6    6    0  503 -0.40158026451E+03 -0.39347350290E+02  0.95733533817E+02  0.41470451206E+03  0.00000000000E+00 0.  1.
<mgrwt>
<rscale>  0 0.18391160E+04</rscale>
<asrwt>0</asrwt>
<pdfrwt beam="1">  1        2 0.30685124E+00 0.18391160E+04</pdfrwt>
<pdfrwt beam="2">  1       -1 0.65223432E-01 0.18391160E+04</pdfrwt>
<totfact> 0.17183924E+01</totfact>
</mgrwt>
</event>
<event>
12    6  0.1611689E-007  0.1540403E+04  0.7818608E-02  0.8858021E-01
          2   -1    0    0  501    0  0.00000000000E+00  0.00000000000E+00  0.75049600566E+03  0.75049600566E+03  0.00000000000E+00 0. -1.
         -1   -1    0    0    0  501 -0.00000000000E+00 -0.00000000000E+00 -0.79042421218E+03  0.79042421218E+03  0.00000000000E+00 0.  1.
         24    2    1    2    0    0 -0.73561700991E+02 -0.27124033040E+03  0.40887101243E+03  0.50237491791E+03  0.78882270818E+02 0.  0.
        254    2    1    2    0    0  0.73561700991E+02  0.27124033040E+03 -0.44879921895E+03  0.10385452999E+04  0.89340526101E+03 0.  0.
         23    2    4    4    0    0  0.25074007928E+03 -0.25641554194E+03 -0.21160190607E+03  0.42623775030E+03  0.91015029650E+02 0.  0.
         23    2    4    4    0    0 -0.17717837829E+03  0.52765587233E+03 -0.23719731288E+03  0.61230754964E+03  0.94048247006E+02 0.  0.
          2    1    3    3  502    0 -0.66706764430E+02 -0.17954345410E+03  0.32844372146E+03  0.38021168117E+03  0.00000000000E+00 0. -1.
         -1    1    3    3    0  502 -0.68549365606E+01 -0.91696876292E+02  0.80427290975E+02  0.12216323674E+03  0.00000000000E+00 0.  1.
         11    1    5    5    0    0  0.54390707861E+02 -0.25558654454E+02 -0.68381003421E+02  0.91036012368E+02  0.00000000000E+00 0. -1.
        -11    1    5    5    0    0  0.19634937142E+03 -0.23085688748E+03 -0.14322090264E+03  0.33520173793E+03  0.00000000000E+00 0.  1.
          2    1    6    6  503    0 -0.63919079291E+02  0.17436849247E+03 -0.12807077555E+03  0.22559287093E+03  0.00000000000E+00 0. -1.
         -2    1    6    6    0  503 -0.11325929900E+03  0.35328737987E+03 -0.10912653734E+03  0.38671467871E+03  0.00000000000E+00 0.  1.
<mgrwt>
<rscale>  0 0.15404028E+04</rscale>
<asrwt>0</asrwt>
<pdfrwt beam="1">  1        2 0.11546092E+00 0.15404028E+04</pdfrwt>
<pdfrwt beam="2">  1       -1 0.12160373E+00 0.15404028E+04</pdfrwt>
<totfact> 0.24701118E+01</totfact>
</mgrwt>
</event>
<event>
12    6  0.1611689E-007  0.1907637E+04  0.7818608E-02  0.8651064E-01
         -3   -1    0    0    0  501 -0.00000000000E+00  0.00000000000E+00  0.10839927729E+04  0.10839927729E+04  0.00000000000E+00 0.  1.
          2   -1    0    0  501    0  0.00000000000E+00 -0.00000000000E+00 -0.83927698476E+03  0.83927698476E+03  0.00000000000E+00 0. -1.
         24    2    1    2    0    0  0.57163915400E+03 -0.43890623830E+03 -0.52081658749E+02  0.72685194105E+03  0.78684411579E+02 0.  0.
        254    2    1    2    0    0 -0.57163915400E+03  0.43890623830E+03  0.29679744684E+03  0.11964178166E+04  0.90769866086E+03 0.  0.
         23    2    4    4    0    0 -0.70968234260E+03  0.48341429425E+03  0.44316889650E+03  0.97062492597E+03  0.91518680116E+02 0.  0.
         23    2    4    4    0    0  0.13804318860E+03 -0.44508055948E+02 -0.14637144966E+03  0.22579289059E+03  0.92308933482E+02 0.  0.
          2    1    3    3  502    0  0.55782955352E+03 -0.42924332313E+03 -0.63145945429E+02  0.70669020911E+03  0.00000000000E+00 0. -1.
         -1    1    3    3    0  502  0.13809600482E+02 -0.96629151764E+01  0.11064286680E+02  0.20161731943E+02  0.00000000000E+00 0.  1.
         11    1    5    5    0    0 -0.64647766581E+03  0.40806443269E+03  0.37989447981E+03  0.85368013296E+03  0.00000000000E+00 0.  1.
        -11    1    5    5    0    0 -0.63204676785E+02  0.75349861565E+02  0.63274416687E+02  0.11694479301E+03  0.00000000000E+00 0. -1.
          1    1    6    6  503    0  0.59005477202E+02 -0.28632488090E+02 -0.85707669090E+01  0.66143206450E+02  0.00000000000E+00 0. -1.
         -1    1    6    6    0  503  0.79037711395E+02 -0.15875567858E+02 -0.13780068275E+03  0.15964968414E+03  0.00000000000E+00 0.  1.
<mgrwt>
<rscale>  0 0.19076375E+04</rscale>
<asrwt>0</asrwt>
<pdfrwt beam="1">  1        2 0.12911954E+00 0.19076375E+04</pdfrwt>
<pdfrwt beam="2">  1       -3 0.16676812E+00 0.19076375E+04</pdfrwt>
<totfact> 0.46374676E+00</totfact>
</mgrwt>
</event>
<event>
12    6  0.1611689E-007  0.1365462E+04  0.7818608E-02  0.8979206E-01
          2   -1    0    0  501    0  0.00000000000E+00  0.00000000000E+00  0.11123088226E+04  0.11123088226E+04  0.00000000000E+00 0. -1.
         -1   -1    0    0    0  501 -0.00000000000E+00 -0.00000000000E+00 -0.41905749036E+03  0.41905749036E+03  0.00000000000E+00 0.  1.
         24    2    1    2    0    0 -0.24788341938E+02 -0.37905709858E+03  0.13884310289E+03  0.41117373198E+03  0.74078909070E+02 0.  0.
        254    2    1    2    0    0  0.24788341938E+02  0.37905709858E+03  0.55440822940E+03  0.11201925810E+04  0.89619428022E+03 0.  0.
         23    2    4    4    0    0 -0.98256353933E+02 -0.12942887167E+03 -0.14920683725E+03  0.23855161043E+03  0.90763685731E+02 0.  0.
         23    2    4    4    0    0  0.12304469587E+03  0.50848597025E+03  0.70361506665E+03  0.88164097060E+03  0.92296586588E+02 0.  0.
          2    1    3    3  502    0 -0.33374569821E+02 -0.78268466104E+02  0.43218205651E+02  0.95433893333E+02  0.00000000000E+00 0. -1.
         -1    1    3    3    0  502  0.85862278825E+01 -0.30078863247E+03  0.95624897243E+02  0.31573983864E+03  0.00000000000E+00 0.  1.
         11    1    5    5    0    0 -0.27733355800E+02 -0.10933638903E+03 -0.90846720031E+02  0.14483339232E+03  0.00000000000E+00 0.  1.
        -11    1    5    5    0    0 -0.70522998133E+02 -0.20092482638E+02 -0.58360117222E+02  0.93718218114E+02  0.00000000000E+00 0. -1.
          3    1    6    6  503    0  0.11537610870E+03  0.46613300947E+03  0.68025295262E+03  0.83266782604E+03  0.00000000000E+00 0. -1.
         -3    1    6    6    0  503  0.76685871687E+01  0.42352960777E+02  0.23362114036E+02  0.48973144559E+02  0.00000000000E+00 0.  1.
<mgrwt>
<rscale>  0 0.13654616E+04</rscale>
<asrwt>0</asrwt>
<pdfrwt beam="1">  1        2 0.17112443E+00 0.13654616E+04</pdfrwt>
<pdfrwt beam="2">  1       -1 0.64470384E-01 0.13654616E+04</pdfrwt>
<totfact> 0.58122148E+01</totfact>
</mgrwt>
</event>
<event>
12    6  0.1611689E-007  0.2004412E+04  0.7818608E-02  0.8604561E-01
          4   -1    0    0  501    0  0.00000000000E+00  0.00000000000E+00  0.59465122504E+03  0.59465122504E+03  0.00000000000E+00 0. -1.
         -3   -1    0    0    0  501 -0.00000000000E+00 -0.00000000000E+00 -0.16890856556E+04  0.16890856556E+04  0.00000000000E+00 0.  1.
         24    2    1    2    0    0  0.19886072465E+03 -0.62968590632E+01  0.44652726770E+03  0.49501454548E+03  0.77894551781E+02 0.  0.
        254    2    1    2    0    0 -0.19886072465E+03  0.62968590632E+01 -0.15409616983E+04  0.17887223352E+04  0.88621633848E+03 0.  0.
         23    2    4    4    0    0  0.15945001521E+03 -0.28197043790E+03 -0.10796250129E+04  0.11310175031E+04  0.93160015674E+02 0.  0.
         23    2    4    4    0    0 -0.35831073986E+03  0.28826729696E+03 -0.46133668538E+03  0.65770483213E+03  0.90881726105E+02 0.  0.
          4    1    3    3  502    0  0.86945538097E+02 -0.41467670921E+02  0.20515080200E+03  0.22664056541E+03  0.00000000000E+00 0. -1.
         -3    1    3    3    0  502  0.11191518655E+03  0.35170811858E+02  0.24137646570E+03  0.26837398008E+03  0.00000000000E+00 0.  1.
         11    1    5    5    0    0  0.13768123058E+02 -0.19473201922E+01 -0.14438043189E+02  0.20045207896E+02  0.00000000000E+00 0. -1.
        -11    1    5    5    0    0  0.14568189215E+03 -0.28002311771E+03 -0.10651869697E+04  0.11109722952E+04  0.00000000000E+00 0.  1.
          4    1    6    6  503    0 -0.79521511332E+02  0.22435108301E+02 -0.97868557271E+02  0.12808301742E+03  0.00000000000E+00 0. -1.
         -4    1    6    6    0  503 -0.27878922853E+03  0.26583218866E+03 -0.36346812811E+03  0.52962181471E+03  0.00000000000E+00 0.  1.
<mgrwt>
<rscale>  0 0.20044120E+04</rscale>
<asrwt>0</asrwt>
<pdfrwt beam="1">  1        4 0.91484804E-01 0.20044120E+04</pdfrwt>
<pdfrwt beam="2">  1       -3 0.25985933E+00 0.20044120E+04</pdfrwt>
<totfact> 0.13895398E-01</totfact>
</mgrwt>
</event>
<event>
12    6  0.1611689E-007  0.2512358E+04  0.7818608E-02  0.8398596E-01
         -1   -1    0    0    0  501 -0.00000000000E+00  0.00000000000E+00  0.16499640658E+04  0.16499640658E+04  0.00000000000E+00 0.  1.
          2   -1    0    0  501    0  0.00000000000E+00 -0.00000000000E+00 -0.95637600931E+03  0.95637600931E+03  0.00000000000E+00 0. -1.
         24    2    1    2    0    0  0.43980821744E+03 -0.25201593224E+03 -0.70164684571E+03  0.86929054173E+03  0.80090271683E+02 0.  0.
        254    2    1    2    0    0 -0.43980821744E+03  0.25201593224E+03  0.13952349022E+04  0.17370495334E+04  0.90206283089E+03 0.  0.
         23    2    4    4    0    0  0.19027087044E+03  0.93075400557E+01  0.81628124920E+03  0.84304774689E+03  0.90137624238E+02 0.  0.
         23    2    4    4    0    0 -0.63007908789E+03  0.24270839219E+03  0.57895365302E+03  0.89400178651E+03  0.90248774528E+02 0.  0.
          4    1    3    3  502    0  0.44338862375E+03 -0.25033381171E+03 -0.69725153245E+03  0.86337719941E+03  0.00000000000E+00 0. -1.
         -3    1    3    3    0  502 -0.35804063055E+01 -0.16821205333E+01 -0.43953132588E+01  0.59133423242E+01  0.00000000000E+00 0.  1.
         11    1    5    5    0    0  0.31487984498E+02 -0.30146764777E+02  0.11634577638E+03  0.12424435712E+03  0.00000000000E+00 0.  1.
        -11    1    5    5    0    0  0.15878288594E+03  0.39454304832E+02  0.69993547282E+03  0.71880338977E+03  0.00000000000E+00 0. -1.
          4    1    6    6  503    0 -0.72216779037E+02  0.32750892756E+02  0.33669420089E+02  0.86148209499E+02  0.00000000000E+00 0.  1.
         -4    1    6    6    0  503 -0.55786230885E+03  0.20995749943E+03  0.54528423293E+03  0.80785357701E+03  0.00000000000E+00 0. -1.
<mgrwt>
<rscale>  0 0.25123583E+04</rscale>
<asrwt>0</asrwt>
<pdfrwt beam="1">  1        2 0.14713477E+00 0.25123583E+04</pdfrwt>
<pdfrwt beam="2">  1       -1 0.25384063E+00 0.25123583E+04</pdfrwt>
<totfact> 0.17974857E+00</totfact>
</mgrwt>
</event>
<event>
12    6  0.1611689E-007  0.1413192E+04  0.7818608E-02  0.8944324E-01
          2   -1    0    0  501    0  0.00000000000E+00  0.00000000000E+00  0.18853400063E+04  0.18853400063E+04  0.00000000000E+00 0. -1.
         -1   -1    0    0    0  501 -0.00000000000E+00 -0.00000000000E+00 -0.26482131675E+03  0.26482131675E+03  0.00000000000E+00 0.  1.
         24    2    1    2    0    0 -0.79840810546E+02  0.12811006381E+02  0.10885325376E+04  0.10944279802E+04  0.79566585207E+02 0.  0.
        254    2    1    2    0    0  0.79840810546E+02 -0.12811006381E+02  0.53198615198E+03  0.10557333429E+04  0.90830883982E+03 0.  0.
         23    2    4    4    0    0  0.16831135743E+03 -0.10737042379E+02 -0.22103767082E+03  0.29255371451E+03  0.91027615781E+02 0.  0.
         23    2    4    4    0    0 -0.88470546882E+02 -0.20739640023E+01  0.75302382279E+03  0.76317962838E+03  0.86988093948E+02 0.  0.
          4    1    3    3  502    0 -0.35342345161E+02  0.40806224852E+02  0.73838498918E+03  0.74035573989E+03  0.00000000000E+00 0. -1.
         -3    1    3    3    0  502 -0.44498465385E+02 -0.27995218470E+02  0.35014754841E+03  0.35407224028E+03  0.00000000000E+00 0.  1.
         11    1    5    5    0    0  0.21320287273E+02  0.30455846472E+02 -0.60610014868E+02  0.71103355308E+02  0.00000000000E+00 0. -1.
        -11    1    5    5    0    0  0.14699107016E+03 -0.41192888851E+02 -0.16042765595E+03  0.22145035920E+03  0.00000000000E+00 0.  1.
          2    1    6    6  503    0 -0.19269654871E+02 -0.20339345807E+02  0.57290233792E+02  0.63774442175E+02  0.00000000000E+00 0. -1.
         -2    1    6    6    0  503 -0.69200892012E+02  0.18265381805E+02  0.69573358900E+03  0.69940518621E+03  0.00000000000E+00 0.  1.
<mgrwt>
<rscale>  0 0.14131924E+04</rscale>
<asrwt>0</asrwt>
<pdfrwt beam="1">  1        2 0.29005230E+00 0.14131924E+04</pdfrwt>
<pdfrwt beam="2">  1       -1 0.40741742E-01 0.14131924E+04</pdfrwt>
<totfact> 0.50482332E+01</totfact>
</mgrwt>
</event>
<event>
12    6  0.1611689E-007  0.1384696E+04  0.7818608E-02  0.8964971E-01
         -1   -1    0    0    0  501 -0.00000000000E+00  0.00000000000E+00  0.28707615090E+03  0.28707615090E+03  0.00000000000E+00 0.  1.
          2   -1    0    0  501    0  0.00000000000E+00 -0.00000000000E+00 -0.16697522244E+04  0.16697522244E+04  0.00000000000E+00 0. -1.
         24    2    1    2    0    0  0.28285080937E+03 -0.20947450976E+03 -0.64631249003E+03  0.74166854479E+03  0.92023067506E+02 0.  0.
        254    2    1    2    0    0 -0.28285080937E+03  0.20947450976E+03 -0.73636358349E+03  0.12151598305E+04  0.90027658864E+03 0.  0.
         23    2    4    4    0    0 -0.68900110955E+02  0.54543476439E+03 -0.42701254293E+03  0.70227636984E+03  0.92768962125E+02 0.  0.
         23    2    4    4    0    0 -0.21395069842E+03 -0.33596025462E+03 -0.30935104057E+03  0.51288346070E+03  0.93312292403E+02 0.  0.
          2    1    3    3  502    0  0.25787266427E+03 -0.14791261428E+03 -0.53434575519E+03  0.61147513320E+03  0.00000000000E+00 0. -1.
         -1    1    3    3    0  502  0.24978145106E+02 -0.61561895481E+02 -0.11196673485E+03  0.13019341159E+03  0.00000000000E+00 0.  1.
         11    1    5    5    0    0 -0.76423344068E+02  0.54450198828E+03 -0.42281939932E+03  0.69361313944E+03  0.00000000000E+00 0. -1.
        -11    1    5    5    0    0  0.75232331121E+01  0.93277610267E+00 -0.41931436063E+01  0.86632304033E+01  0.00000000000E+00 0.  1.
          2    1    6    6  503    0 -0.93318413629E+02 -0.22035367316E+03 -0.21076827154E+03  0.31888451183E+03  0.00000000000E+00 0. -1.
         -2    1    6    6    0  503 -0.12063228479E+03 -0.11560658146E+03 -0.98582769028E+02  0.19399894886E+03  0.00000000000E+00 0.  1.
<mgrwt>
<rscale>  0 0.13846964E+04</rscale>
<asrwt>0</asrwt>
<pdfrwt beam="1">  1        2 0.25688496E+00 0.13846964E+04</pdfrwt>
<pdfrwt beam="2">  1       -1 0.44165562E-01 0.13846964E+04</pdfrwt>
<totfact> 0.57392540E+01</totfact>
</mgrwt>
</event>
<event>
12    6  0.1611689E-007  0.4693644E+04  0.7818608E-02  0.7877586E-01
         -1   -1    0    0    0  501 -0.00000000000E+00  0.00000000000E+00  0.24606911757E+04  0.24606911757E+04  0.00000000000E+00 0.  1.
          2   -1    0    0  501    0  0.00000000000E+00 -0.00000000000E+00 -0.22382221650E+04  0.22382221650E+04  0.00000000000E+00 0. -1.
         24    2    1    2    0    0 -0.12022384835E+04  0.48900251696E+03  0.19567243529E+04  0.23493518263E+04  0.78631914354E+02 0.  0.
        254    2    1    2    0    0  0.12022384835E+04 -0.48900251696E+03 -0.17342553422E+04  0.23495615144E+04  0.91010817233E+03 0.  0.
         23    2    4    4    0    0  0.81136695322E+03  0.13808458556E+03 -0.10549885536E+04  0.13411630092E+04  0.91289011669E+02 0.  0.
         23    2    4    4    0    0  0.39087153026E+03 -0.62708710253E+03 -0.67926678865E+03  0.10083985052E+04  0.97187384935E+02 0.  0.
          4    1    3    3  502    0 -0.99311300354E+02  0.34660667034E+02  0.19909302182E+03  0.22517132933E+03  0.00000000000E+00 0. -1.
         -3    1    3    3    0  502 -0.11029271831E+04  0.45434184993E+03  0.17576313310E+04  0.21241804970E+04  0.00000000000E+00 0.  1.
         11    1    5    5    0    0  0.51304116030E+02 -0.51020955669E+01 -0.97730686776E+02  0.11049629332E+03  0.00000000000E+00 0. -1.
        -11    1    5    5    0    0  0.76006283719E+03  0.14318668113E+03 -0.95725786678E+03  0.12306667159E+04  0.00000000000E+00 0.  1.
          4    1    6    6  503    0  0.11340847393E+03 -0.22425180462E+03 -0.17750961308E+03  0.30766867987E+03  0.00000000000E+00 0. -1.
         -4    1    6    6    0  503  0.27746305633E+03 -0.40283529790E+03 -0.50175717557E+03  0.70072982533E+03  0.00000000000E+00 0.  1.
<mgrwt>
<rscale>  0 0.46936440E+04</rscale>
<asrwt>0</asrwt>
<pdfrwt beam="1">  1        2 0.34434187E+00 0.46936440E+04</pdfrwt>
<pdfrwt beam="2">  1       -1 0.37856787E+00 0.46936440E+04</pdfrwt>
<totfact> 0.41731305E-02</totfact>
</mgrwt>
</event>
<event>
12    6  0.1611689E-007  0.1397610E+04  0.7818608E-02  0.8955550E-01
          2   -1    0    0  501    0  0.00000000000E+00  0.00000000000E+00  0.68765415246E+03  0.68765415246E+03  0.00000000000E+00 0. -1.
         -1   -1    0    0    0  501 -0.00000000000E+00 -0.00000000000E+00 -0.71013716310E+03  0.71013716310E+03  0.00000000000E+00 0.  1.
         24    2    1    2    0    0 -0.15319114376E+03  0.50791991303E+02  0.36577951008E+03  0.40748455627E+03  0.78750623455E+02 0.  0.
        254    2    1    2    0    0  0.15319114376E+03 -0.50791991303E+02 -0.38826252072E+03  0.99030675929E+03  0.89661158792E+03 0.  0.
         23    2    4    4    0    0  0.15518369129E+03  0.34180355360E+03 -0.43733310078E+03  0.58334912007E+03  0.90134940823E+02 0.  0.
         23    2    4    4    0    0 -0.19925475241E+01 -0.39259554490E+03  0.49070580060E+02  0.40695763922E+03  0.95243719844E+02 0.  0.
          2    1    3    3  502    0 -0.53426808168E+02  0.36119276158E+02  0.22670933879E+03  0.23570352190E+03  0.00000000000E+00 0. -1.
         -1    1    3    3    0  502 -0.99764335594E+02  0.14672715145E+02  0.13907017130E+03  0.17178103437E+03  0.00000000000E+00 0.  1.
         11    1    5    5    0    0  0.78891520636E+02  0.22695915543E+03 -0.21889524662E+03  0.32503762745E+03  0.00000000000E+00 0.  1.
        -11    1    5    5    0    0  0.76292170650E+02  0.11484439816E+03 -0.21843785416E+03  0.25831149263E+03  0.00000000000E+00 0. -1.
          4    1    6    6  503    0  0.24772298968E+02 -0.46521068703E+02  0.26820677557E+02  0.59137343312E+02  0.00000000000E+00 0. -1.
         -4    1    6    6    0  503 -0.26764846492E+02 -0.34607447620E+03  0.22249902503E+02  0.34782029591E+03  0.00000000000E+00 0.  1.
<mgrwt>
<rscale>  0 0.13976105E+04</rscale>
<asrwt>0</asrwt>
<pdfrwt beam="1">  1        2 0.10579295E+00 0.13976105E+04</pdfrwt>
<pdfrwt beam="2">  1       -1 0.10925187E+00 0.13976105E+04</pdfrwt>
<totfact> 0.36156996E+01</totfact>
</mgrwt>
</event>
<event>
12    6  0.1611689E-007  0.1217913E+04  0.7818608E-02  0.9097320E-01
         -1   -1    0    0    0  501 -0.00000000000E+00  0.00000000000E+00  0.67242036736E+03  0.67242036736E+03  0.00000000000E+00 0.  1.
          2   -1    0    0  501    0  0.00000000000E+00 -0.00000000000E+00 -0.55148227243E+03  0.55148227243E+03  0.00000000000E+00 0. -1.
         24    2    1    2    0    0 -0.25239293978E+03 -0.36475749916E+02  0.11124648100E+03  0.28930928676E+03  0.79318393110E+02 0.  0.
        254    2    1    2    0    0  0.25239293978E+03  0.36475749916E+02  0.96916139296E+01  0.93459335303E+03  0.89907626583E+03 0.  0.
         23    2    4    4    0    0 -0.20698139709E+03  0.12906320594E+03  0.28099360453E+03  0.38454666772E+03  0.97057323272E+02 0.  0.
         23    2    4    4    0    0  0.45937433687E+03 -0.92587456023E+02 -0.27130199060E+03  0.55004668531E+03  0.96692127527E+02 0.  0.
          2    1    3    3  502    0 -0.93588959001E+02  0.20144353403E+02  0.20728242920E+02  0.97950744129E+02  0.00000000000E+00 0. -1.
         -1    1    3    3    0  502 -0.15880398078E+03 -0.56620103319E+02  0.90518238082E+02  0.19135854263E+03  0.00000000000E+00 0.  1.
         11    1    5    5    0    0 -0.15953545174E+03  0.11469860969E+03  0.15865030084E+03  0.25254157951E+03  0.00000000000E+00 0.  1.
        -11    1    5    5    0    0 -0.47445945356E+02  0.14364596247E+02  0.12234330369E+03  0.13200508821E+03  0.00000000000E+00 0. -1.
          2    1    6    6  503    0  0.14101148895E+03 -0.74625917563E+02 -0.95039608604E+02  0.18570351314E+03  0.00000000000E+00 0.  1.
         -2    1    6    6    0  503  0.31836284792E+03 -0.17961538461E+02 -0.17626238200E+03  0.36434317217E+03  0.00000000000E+00 0. -1.
<mgrwt>
<rscale>  0 0.12179128E+04</rscale>
<asrwt>0</asrwt>
<pdfrwt beam="1">  1        2 0.84843426E-01 0.12179128E+04</pdfrwt>
<pdfrwt beam="2">  1       -1 0.10344929E+00 0.12179128E+04</pdfrwt>
<totfact> 0.54523328E+01</totfact>
</mgrwt>
</event>
<event>
12    6  0.1611689E-007  0.1180142E+04  0.7818608E-02  0.9130418E-01
         -1   -1    0    0    0  501 -0.00000000000E+00  0.00000000000E+00  0.44316368345E+03  0.44316368345E+03  0.00000000000E+00 0.  1.
          2   -1    0    0  501    0  0.00000000000E+00 -0.00000000000E+00 -0.78567713016E+03  0.78567713016E+03  0.00000000000E+00 0. -1.
         24    2    1    2    0    0 -0.23643629044E+02  0.24184166124E+03 -0.12766440964E+03  0.28543813641E+03  0.78296346796E+02 0.  0.
        254    2    1    2    0    0  0.23643629044E+02 -0.24184166124E+03 -0.21484903707E+03  0.94340267719E+03  0.88589056452E+03 0.  0.
         23    2    4    4    0    0  0.25350690029E+03 -0.31947490677E+02  0.25352858635E+03  0.37200338859E+03  0.93932882258E+02 0.  0.
         23    2    4    4    0    0 -0.22986327125E+03 -0.20989417057E+03 -0.46837762342E+03  0.57139928860E+03  0.10112795157E+03 0.  0.
          4    1    3    3  502    0  0.14648554541E+02  0.52143283917E+02 -0.59006348884E+02  0.80095264631E+02  0.00000000000E+00 0. -1.
         -3    1    3    3    0  502 -0.38292183585E+02  0.18969837733E+03 -0.68658060761E+02  0.20534287178E+03  0.00000000000E+00 0.  1.
         11    1    5    5    0    0  0.25474639864E+02  0.26449073955E+02  0.38040496604E+02  0.52873340836E+02  0.00000000000E+00 0. -1.
        -11    1    5    5    0    0  0.22803226043E+03 -0.58396564633E+02  0.21548808975E+03  0.31913004775E+03  0.00000000000E+00 0.  1.
          1    1    6    6  503    0  0.90186424043E+01 -0.15236080405E+02 -0.14953098131E+02  0.23174753519E+02  0.00000000000E+00 0. -1.
         -1    1    6    6    0  503 -0.23888191365E+03 -0.19465809016E+03 -0.45342452529E+03  0.54822453508E+03  0.00000000000E+00 0.  1.
<mgrwt>
<rscale>  0 0.11801416E+04</rscale>
<asrwt>0</asrwt>
<pdfrwt beam="1">  1        2 0.12087340E+00 0.11801416E+04</pdfrwt>
<pdfrwt beam="2">  1       -1 0.68179029E-01 0.11801416E+04</pdfrwt>
<totfact> 0.86698288E+01</totfact>
</mgrwt>
</event>
<event>
12    6  0.1611689E-007  0.2478371E+04  0.7818608E-02  0.8410732E-01
          2   -1    0    0  501    0  0.00000000000E+00  0.00000000000E+00  0.11507947899E+04  0.11507947899E+04  0.00000000000E+00 0. -1.
         -1   -1    0    0    0  501 -0.00000000000E+00 -0.00000000000E+00 -0.13343658455E+04  0.13343658455E+04  0.00000000000E+00 0.  1.
         24    2    1    2    0    0 -0.53323478260E+03 -0.45073975304E+03 -0.90880151385E+03  0.11492034049E+04  0.85103559697E+02 0.  0.
        254    2    1    2    0    0  0.53323478260E+03  0.45073975304E+03  0.72523045824E+03  0.13359572305E+04  0.87824646073E+03 0.  0.
         23    2    4    4    0    0 -0.80399926972E+02  0.36580059038E+03  0.10984480887E+02  0.38558459071E+03  0.90997788929E+02 0.  0.
         23    2    4    4    0    0  0.61363470957E+03  0.84939162659E+02  0.71424597735E+03  0.95037263978E+03  0.96429353069E+02 0.  0.
          4    1    3    3  502    0 -0.11427063991E+02 -0.29035429203E+02 -0.56246840657E+02  0.64322165887E+02  0.00000000000E+00 0. -1.
         -3    1    3    3    0  502 -0.52180771861E+03 -0.42170432384E+03 -0.85255467319E+03  0.10848812390E+04  0.00000000000E+00 0.  1.
         11    1    5    5    0    0 -0.14362386966E+02  0.10927904685E+03 -0.37250289777E+02  0.11634333813E+03  0.00000000000E+00 0. -1.
        -11    1    5    5    0    0 -0.66037540006E+02  0.25652154354E+03  0.48234770664E+02  0.26924125258E+03  0.00000000000E+00 0.  1.
          3    1    6    6  503    0  0.27001335774E+03  0.41010137255E+02  0.38823969404E+03  0.47467789578E+03  0.00000000000E+00 0. -1.
         -3    1    6    6    0  503  0.34362135183E+03  0.43929025403E+02  0.32600628331E+03  0.47569474400E+03  0.00000000000E+00 0.  1.
<mgrwt>
<rscale>  0 0.24783715E+04</rscale>
<asrwt>0</asrwt>
<pdfrwt beam="1">  1        2 0.17704535E+00 0.24783715E+04</pdfrwt>
<pdfrwt beam="2">  1       -1 0.20528705E+00 0.24783715E+04</pdfrwt>
<totfact> 0.28588479E+00</totfact>
</mgrwt>
</event>
<event>
12    6  0.1611689E-007  0.2137115E+04  0.7818608E-02  0.8545068E-01
         -3   -1    0    0    0  501 -0.00000000000E+00  0.00000000000E+00  0.19768822652E+04  0.19768822652E+04  0.00000000000E+00 0.  1.
          4   -1    0    0  501    0  0.00000000000E+00 -0.00000000000E+00 -0.57758395967E+03  0.57758395967E+03  0.00000000000E+00 0. -1.
         24    2    1    2    0    0  0.77727598287E+03  0.30864067262E+03  0.90449387964E+03  0.12346058219E+04  0.82008162825E+02 0.  0.
        254    2    1    2    0    0 -0.77727598287E+03 -0.30864067262E+03  0.49480442586E+03  0.13198604030E+04  0.89318701576E+03 0.  0.
         23    2    4    4    0    0 -0.31423352516E+03  0.10521019497E+03  0.59191540493E+03  0.68456274326E+03  0.91926108425E+02 0.  0.
         23    2    4    4    0    0 -0.46304245771E+03 -0.41385086759E+03 -0.97110979070E+02  0.63529765970E+03  0.92150506879E+02 0.  0.
          4    1    3    3  502    0  0.12035611641E+03  0.79134542118E+02  0.14062004616E+03  0.20130044186E+03  0.00000000000E+00 0. -1.
         -3    1    3    3    0  502  0.65691986646E+03  0.22950613050E+03  0.76387383348E+03  0.10333053800E+04  0.00000000000E+00 0.  1.
         11    1    5    5    0    0 -0.24874778959E+03  0.11846805287E+03  0.50064265362E+03  0.57144834324E+03  0.00000000000E+00 0.  1.
        -11    1    5    5    0    0 -0.65485735573E+02 -0.13257857897E+02  0.91272751310E+02  0.11311440002E+03  0.00000000000E+00 0. -1.
          2    1    6    6  503    0 -0.30767212030E+03 -0.23232741490E+03 -0.91739067155E+02  0.39630066587E+03  0.00000000000E+00 0. -1.
         -2    1    6    6    0  503 -0.15537033740E+03 -0.18152345270E+03 -0.53719119153E+01  0.23899699383E+03  0.00000000000E+00 0.  1.
<mgrwt>
<rscale>  0 0.21371153E+04</rscale>
<asrwt>0</asrwt>
<pdfrwt beam="1">  1        4 0.88859072E-01 0.21371153E+04</pdfrwt>
<pdfrwt beam="2">  1       -3 0.30413573E+00 0.21371153E+04</pdfrwt>
<totfact> 0.82656224E-02</totfact>
</mgrwt>
</event>
<event>
12    6  0.1611689E-007  0.2160811E+04  0.7818608E-02  0.8534919E-01
          2   -1    0    0  501    0  0.00000000000E+00  0.00000000000E+00  0.11349006659E+04  0.11349006659E+04  0.00000000000E+00 0. -1.
         -1   -1    0    0    0  501 -0.00000000000E+00 -0.00000000000E+00 -0.10285273356E+04  0.10285273356E+04  0.00000000000E+00 0.  1.
         24    2    1    2    0    0 -0.21953076438E+03  0.76590125738E+03  0.36854939901E+03  0.88149807250E+03  0.80073090016E+02 0.  0.
        254    2    1    2    0    0  0.21953076438E+03 -0.76590125738E+03 -0.26217606873E+03  0.12819299290E+04  0.96943775421E+03 0.  0.
         23    2    4    4    0    0  0.42586109385E+03 -0.89418198855E+03 -0.20267439417E+03  0.10152928498E+04  0.93933811422E+02 0.  0.
         23    2    4    4    0    0 -0.20633032947E+03  0.12828073117E+03 -0.59501674558E+02  0.26663707919E+03  0.92340304714E+02 0.  0.
          2    1    3    3  502    0 -0.52111558916E+02  0.26570814241E+03  0.15847048676E+03  0.31373448438E+03  0.00000000000E+00 0. -1.
         -1    1    3    3    0  502 -0.16741920547E+03  0.50019311498E+03  0.21007891225E+03  0.56776358813E+03  0.00000000000E+00 0.  1.
         11    1    5    5    0    0  0.80873810639E+02 -0.11461494442E+03 -0.51915171861E+02  0.14957387406E+03  0.00000000000E+00 0. -1.
        -11    1    5    5    0    0  0.34498728321E+03 -0.77956704413E+03 -0.15075922231E+03  0.86571897576E+03  0.00000000000E+00 0.  1.
          1    1    6    6  503    0 -0.14254781724E+03  0.36343808244E+02 -0.44809301603E+02  0.15378109802E+03  0.00000000000E+00 0. -1.
         -1    1    6    6    0  503 -0.63782512233E+02  0.91936922923E+02 -0.14692372955E+02  0.11285598117E+03  0.00000000000E+00 0.  1.
<mgrwt>
<rscale>  0 0.21608113E+04</rscale>
<asrwt>0</asrwt>
<pdfrwt beam="1">  1        2 0.17460010E+00 0.21608113E+04</pdfrwt>
<pdfrwt beam="2">  1       -1 0.15823497E+00 0.21608113E+04</pdfrwt>
<totfact> 0.65353154E+00</totfact>
</mgrwt>
</event>
<event>
12    6  0.1611689E-007  0.3117611E+04  0.7818608E-02  0.8210921E-01
         -1   -1    0    0    0  501 -0.00000000000E+00  0.00000000000E+00  0.11174169760E+04  0.11174169760E+04  0.00000000000E+00 0.  1.
          2   -1    0    0  501    0  0.00000000000E+00 -0.00000000000E+00 -0.21745455233E+04  0.21745455233E+04  0.00000000000E+00 0. -1.
         24    2    1    2    0    0  0.33815877492E+03 -0.27190778003E+03  0.94552168832E+03  0.10433355551E+04  0.79073507918E+02 0.  0.
        254    2    1    2    0    0 -0.33815877492E+03  0.27190778003E+03 -0.20026502356E+04  0.22486269441E+04  0.92597514541E+03 0.  0.
         23    2    4    4    0    0  0.71924192122E+02  0.51918865668E+03 -0.11407753951E+04  0.12587585565E+04  0.91513119205E+02 0.  0.
         23    2    4    4    0    0 -0.41008296704E+03 -0.24728087664E+03 -0.86187484051E+03  0.98986838761E+03  0.87722928992E+02 0.  0.
          2    1    3    3  502    0 -0.14888168402E+01  0.34904242629E+01  0.82224533457E+01  0.90558476213E+01  0.00000000000E+00 0. -1.
         -1    1    3    3    0  502  0.33964759176E+03 -0.27539820430E+03  0.93729923497E+03  0.10342797075E+04  0.00000000000E+00 0.  1.
         11    1    5    5    0    0  0.25467581442E+02  0.25034771177E+03 -0.44201566564E+03  0.50862601503E+03  0.00000000000E+00 0.  1.
        -11    1    5    5    0    0  0.46456610680E+02  0.26884094491E+03 -0.69875972944E+03  0.75013254151E+03  0.00000000000E+00 0. -1.
          4    1    6    6  503    0 -0.17373027246E+03 -0.15239423288E+03 -0.44258100934E+03  0.49928364645E+03  0.00000000000E+00 0.  1.
         -4    1    6    6    0  503 -0.23635269458E+03 -0.94886643768E+02 -0.41929383116E+03  0.49058474115E+03  0.00000000000E+00 0. -1.
<mgrwt>
<rscale>  0 0.31176107E+04</rscale>
<asrwt>0</asrwt>
<pdfrwt beam="1">  1        2 0.33454546E+00 0.31176107E+04</pdfrwt>
<pdfrwt beam="2">  1       -1 0.17191031E+00 0.31176107E+04</pdfrwt>
<totfact> 0.12256991E+00</totfact>
</mgrwt>
</event>
<event>
12    6  0.1611689E-007  0.2277482E+04  0.7818608E-02  0.8486853E-01
         -1   -1    0    0    0  501 -0.00000000000E+00  0.00000000000E+00  0.14422162712E+04  0.14422162712E+04  0.00000000000E+00 0.  1.
          2   -1    0    0  501    0  0.00000000000E+00 -0.00000000000E+00 -0.89912425609E+03  0.89912425609E+03  0.00000000000E+00 0. -1.
         24    2    1    2    0    0  0.49373774187E+03  0.15798008682E+03 -0.59816831465E+03  0.79541229459E+03  0.78362747150E+02 0.  0.
        254    2    1    2    0    0 -0.49373774187E+03 -0.15798008682E+03  0.11412603297E+04  0.15459282327E+04  0.90481174549E+03 0.  0.
         23    2    4    4    0    0 -0.48219188942E+03 -0.12955120153E+03  0.12806496227E+04  0.13774584357E+04  0.89642366395E+02 0.  0.
         23    2    4    4    0    0 -0.11545852448E+02 -0.28428885295E+02 -0.13938929300E+03  0.16846979697E+03  0.89505247112E+02 0.  0.
          4    1    3    3  502    0  0.35757944958E+03  0.12362196504E+03 -0.48464215209E+03  0.61483613149E+03  0.00000000000E+00 0. -1.
         -3    1    3    3    0  502  0.13615829229E+03  0.34358121790E+02 -0.11352616256E+03  0.18057616309E+03  0.00000000000E+00 0.  1.
         11    1    5    5    0    0 -0.19787413267E+01 -0.12901187341E+02  0.30145007639E+02  0.32849315634E+02  0.00000000000E+00 0. -1.
        -11    1    5    5    0    0 -0.48021314810E+03 -0.11665001419E+03  0.12505046151E+04  0.13446091201E+04  0.00000000000E+00 0.  1.
          4    1    6    6  503    0  0.25168830738E+02 -0.40880004694E+02 -0.42515751077E+02  0.64126702037E+02  0.00000000000E+00 0. -1.
         -4    1    6    6    0  503 -0.36714683186E+02  0.12451119399E+02 -0.96873541922E+02  0.10434309493E+03  0.00000000000E+00 0.  1.
<mgrwt>
<rscale>  0 0.22774825E+04</rscale>
<asrwt>0</asrwt>
<pdfrwt beam="1">  1        2 0.13832681E+00 0.22774825E+04</pdfrwt>
<pdfrwt beam="2">  1       -1 0.22187943E+00 0.22774825E+04</pdfrwt>
<totfact> 0.32517019E+00</totfact>
</mgrwt>
</event>
<event>
12    6  0.1611689E-007  0.3012350E+04  0.7818608E-02  0.8240213E-01
          2   -1    0    0  501    0  0.00000000000E+00  0.00000000000E+00  0.26506555061E+04  0.26506555061E+04  0.00000000000E+00 0. -1.
         -1   -1    0    0    0  501 -0.00000000000E+00 -0.00000000000E+00 -0.85585012606E+03  0.85585012606E+03  0.00000000000E+00 0.  1.
         24    2    1    2    0    0  0.65704829066E+03 -0.11970194820E+04  0.97670036376E+03  0.16807162777E+04  0.79344244022E+02 0.  0.
        254    2    1    2    0    0 -0.65704829066E+03  0.11970194820E+04  0.81810501628E+03  0.18257893545E+04  0.89422751736E+03 0.  0.
         23    2    4    4    0    0 -0.82917393642E+03  0.93501008555E+03  0.82404905232E+03  0.14996745218E+04  0.90518251441E+02 0.  0.
         23    2    4    4    0    0  0.17212564576E+03  0.26200939640E+03 -0.59440360319E+01  0.32611483265E+03  0.89662649881E+02 0.  0.
          4    1    3    3  502    0  0.51526940322E+03 -0.97472425184E+03  0.75543810313E+03  0.13365166114E+04  0.00000000000E+00 0. -1.
         -3    1    3    3    0  502  0.14177888744E+03 -0.22229523011E+03  0.22126226063E+03  0.34419966623E+03  0.00000000000E+00 0.  1.
         11    1    5    5    0    0 -0.58518737202E+03  0.64018853825E+03  0.52358104791E+03  0.10131252334E+04  0.00000000000E+00 0. -1.
        -11    1    5    5    0    0 -0.24398656441E+03  0.29482154731E+03  0.30046800440E+03  0.48654928840E+03  0.00000000000E+00 0.  1.
          3    1    6    6  503    0  0.13190766128E+03  0.18110677493E+03  0.35269269702E+02  0.22681097067E+03  0.00000000000E+00 0. -1.
         -3    1    6    6    0  503  0.40217984479E+02  0.80902621468E+02 -0.41213305733E+02  0.99303861987E+02  0.00000000000E+00 0.  1.
<mgrwt>
<rscale>  0 0.30123505E+04</rscale>
<asrwt>0</asrwt>
<pdfrwt beam="1">  1        2 0.40779315E+00 0.30123505E+04</pdfrwt>
<pdfrwt beam="2">  1       -1 0.13166925E+00 0.30123505E+04</pdfrwt>
<totfact> 0.13551208E+00</totfact>
</mgrwt>
</event>
<event>
12    6  0.1611689E-007  0.1366471E+04  0.7818608E-02  0.8978452E-01
         -1   -1    0    0    0  501 -0.00000000000E+00  0.00000000000E+00  0.32188260165E+03  0.32188260165E+03  0.00000000000E+00 0.  1.
          2   -1    0    0  501    0  0.00000000000E+00 -0.00000000000E+00 -0.14502520269E+04  0.14502520269E+04  0.00000000000E+00 0. -1.
         24    2    1    2    0    0 -0.16148441361E+03  0.33387498928E+03 -0.37582430175E+03  0.53440034849E+03  0.82402077507E+02 0.  0.
        254    2    1    2    0    0  0.16148441361E+03 -0.33387498928E+03 -0.75254512350E+03  0.12377342801E+04  0.91000673669E+03 0.  0.
         23    2    4    4    0    0  0.15882330904E+03  0.17864465036E+03 -0.66287764901E+03  0.70938227970E+03  0.81717113220E+02 0.  0.
         23    2    4    4    0    0  0.26611045627E+01 -0.51251963964E+03 -0.89667474494E+02  0.52835200036E+03  0.91826563762E+02 0.  0.
          2    1    3    3  502    0 -0.14822226625E+03  0.29551256056E+03 -0.29127118077E+03  0.44060914018E+03  0.00000000000E+00 0. -1.
         -1    1    3    3    0  502 -0.13262147356E+02  0.38362428721E+02 -0.84553120973E+02  0.93791208309E+02  0.00000000000E+00 0.  1.
         11    1    5    5    0    0  0.10446896274E+03  0.15236007370E+03 -0.56445745775E+03  0.59391883102E+03  0.00000000000E+00 0. -1.
        -11    1    5    5    0    0  0.54354346301E+02  0.26284576657E+02 -0.98420191264E+02  0.11546344868E+03  0.00000000000E+00 0.  1.
          2    1    6    6  503    0  0.41596306869E+02 -0.38607668568E+03 -0.70772047128E+02  0.39470766730E+03  0.00000000000E+00 0. -1.
         -2    1    6    6    0  503 -0.38935202306E+02 -0.12644295396E+03 -0.18895427366E+02  0.13364433306E+03  0.00000000000E+00 0.  1.
<mgrwt>
<rscale>  0 0.13664712E+04</rscale>
<asrwt>0</asrwt>
<pdfrwt beam="1">  1        2 0.22311570E+00 0.13664712E+04</pdfrwt>
<pdfrwt beam="2">  1       -1 0.49520399E-01 0.13664712E+04</pdfrwt>
<totfact> 0.61559223E+01</totfact>
</mgrwt>
</event>
<event>
12    6  0.1611689E-007  0.1051094E+04  0.7818608E-02  0.9254215E-01
         -1   -1    0    0    0  501 -0.00000000000E+00  0.00000000000E+00  0.30657453429E+03  0.30657453429E+03  0.00000000000E+00 0.  1.
          2   -1    0    0  501    0  0.00000000000E+00 -0.00000000000E+00 -0.90092221318E+03  0.90092221318E+03  0.00000000000E+00 0. -1.
         24    2    1    2    0    0  0.87764469690E+02  0.13118135001E+02 -0.16991171144E+03  0.20821586310E+03  0.81296791800E+02 0.  0.
        254    2    1    2    0    0 -0.87764469690E+02 -0.13118135001E+02 -0.42443596745E+03  0.99928088437E+03  0.90030089848E+03 0.  0.
         23    2    4    4    0    0  0.23020434371E+03 -0.10045600076E+03 -0.56793639390E+03  0.62768661488E+03  0.91396340357E+02 0.  0.
         23    2    4    4    0    0 -0.31796881340E+03  0.87337865760E+02  0.14350042645E+03  0.37159426949E+03  0.93583436757E+02 0.  0.
          4    1    3    3  502    0  0.10312998649E+03  0.91266381984E+01 -0.15525094688E+03  0.18660639363E+03  0.00000000000E+00 0. -1.
         -3    1    3    3    0  502 -0.15365516799E+02  0.39914968026E+01 -0.14660764563E+02  0.21609469470E+02  0.00000000000E+00 0.  1.
         11    1    5    5    0    0  0.11924627968E+03 -0.99748101405E+02 -0.35583264502E+03  0.38831202687E+03  0.00000000000E+00 0.  1.
        -11    1    5    5    0    0  0.11095806403E+03 -0.70789935568E+00 -0.21210374888E+03  0.23937458801E+03  0.00000000000E+00 0. -1.
          3    1    6    6  503    0 -0.29806318149E+03  0.79643473340E+02  0.15717351030E+03  0.34624883443E+03  0.00000000000E+00 0. -1.
         -3    1    6    6    0  503 -0.19905631913E+02  0.76943924196E+01 -0.13673083846E+02  0.25345435061E+02  0.00000000000E+00 0.  1.
<mgrwt>
<rscale>  0 0.10510943E+04</rscale>
<asrwt>0</asrwt>
<pdfrwt beam="1">  1        2 0.13860341E+00 0.10510943E+04</pdfrwt>
<pdfrwt beam="2">  1       -1 0.47165314E-01 0.10510943E+04</pdfrwt>
<totfact> 0.14904031E+02</totfact>
</mgrwt>
</event>
<event>
12    6  0.1611689E-007  0.1398219E+04  0.7818608E-02  0.8955109E-01
         -1   -1    0    0    0  501 -0.00000000000E+00  0.00000000000E+00  0.14413575277E+03  0.14413575277E+03  0.00000000000E+00 0.  1.
          2   -1    0    0  501    0  0.00000000000E+00 -0.00000000000E+00 -0.33909267248E+04  0.33909267248E+04  0.00000000000E+00 0. -1.
         24    2    1    2    0    0 -0.34887632293E+03  0.49811423781E+02 -0.14701160923E+04  0.15138414070E+04  0.79237706008E+02 0.  0.
        254    2    1    2    0    0  0.34887632293E+03 -0.49811423781E+02 -0.17766748798E+04  0.20212210706E+04  0.89697554107E+03 0.  0.
         23    2    4    4    0    0  0.14891664452E+02  0.33371509349E+03 -0.11913890623E+04  0.12406783196E+04  0.91034441610E+02 0.  0.
         23    2    4    4    0    0  0.33398465848E+03 -0.38352651727E+03 -0.58528581744E+03  0.78054275103E+03  0.89717091702E+02 0.  0.
          4    1    3    3  502    0 -0.21823610547E+03  0.53118355295E+02 -0.10548736383E+04  0.10785207231E+04  0.00000000000E+00 0. -1.
         -3    1    3    3    0  502 -0.13064021746E+03 -0.33069315147E+01 -0.41524245402E+03  0.43532068390E+03  0.00000000000E+00 0.  1.
         11    1    5    5    0    0 -0.20359726293E+02  0.36475851671E+02 -0.88016287338E+02  0.97426244137E+02  0.00000000000E+00 0.  1.
        -11    1    5    5    0    0  0.35251390745E+02  0.29723924182E+03 -0.11033727750E+04  0.11432520754E+04  0.00000000000E+00 0. -1.
          1    1    6    6  503    0  0.26315219356E+03 -0.28682147207E+03 -0.38736217049E+03  0.54914941950E+03  0.00000000000E+00 0. -1.
         -1    1    6    6    0  503  0.70832464922E+02 -0.96705045203E+02 -0.19792364695E+03  0.23139333153E+03  0.00000000000E+00 0.  1.
<mgrwt>
<rscale>  0 0.13982185E+04</rscale>
<asrwt>0</asrwt>
<pdfrwt beam="1">  1        2 0.52168097E+00 0.13982185E+04</pdfrwt>
<pdfrwt beam="2">  1       -1 0.22174734E-01 0.13982185E+04</pdfrwt>
<totfact> 0.18710817E+01</totfact>
</mgrwt>
</event>
<event>
12    6  0.1611689E-007  0.1563866E+04  0.7818608E-02  0.8843059E-01
         -1   -1    0    0    0  501 -0.00000000000E+00  0.00000000000E+00  0.21680209035E+03  0.21680209035E+03  0.00000000000E+00 0.  1.
          2   -1    0    0  501    0  0.00000000000E+00 -0.00000000000E+00 -0.28201726454E+04  0.28201726454E+04  0.00000000000E+00 0. -1.
         24    2    1    2    0    0  0.51479353084E+03 -0.33488285072E+02 -0.73956916951E+03  0.90525436243E+03  0.79931593142E+02 0.  0.
        254    2    1    2    0    0 -0.51479353084E+03  0.33488285072E+02 -0.18638013855E+04  0.21317203733E+04  0.89685132582E+03 0.  0.
         23    2    4    4    0    0 -0.28875845647E+03 -0.25686786051E+03 -0.23912008467E+03  0.46340178641E+03  0.90555269337E+02 0.  0.
         23    2    4    4    0    0 -0.22603507437E+03  0.29035614558E+03 -0.16246813009E+04  0.16683185869E+04  0.91099022454E+02 0.  0.
          2    1    3    3  502    0  0.12755036349E+03 -0.22332444041E+02 -0.13378984185E+03  0.18619225297E+03  0.00000000000E+00 0. -1.
         -3    1    3    3    0  502  0.38724316735E+03 -0.11155841031E+02 -0.60577932766E+03  0.71906210946E+03  0.00000000000E+00 0.  1.
         11    1    5    5    0    0 -0.10649329919E+03 -0.14529685143E+03 -0.13830589800E+03  0.22711345013E+03  0.00000000000E+00 0. -1.
        -11    1    5    5    0    0 -0.18226515728E+03 -0.11157100908E+03 -0.10081418666E+03  0.23628833627E+03  0.00000000000E+00 0.  1.
          1    1    6    6  503    0 -0.18410434500E+03  0.17226381083E+03 -0.10101148681E+04  0.10411057954E+04  0.00000000000E+00 0. -1.
         -1    1    6    6    0  503 -0.41930729367E+02  0.11809233476E+03 -0.61456643277E+03  0.62721279155E+03  0.00000000000E+00 0.  1.
<mgrwt>
<rscale>  0 0.15638661E+04</rscale>
<asrwt>0</asrwt>
<pdfrwt beam="1">  1        2 0.43387271E+00 0.15638661E+04</pdfrwt>
<pdfrwt beam="2">  1       -1 0.33354168E-01 0.15638661E+04</pdfrwt>
<totfact> 0.20919988E+01</totfact>
</mgrwt>
</event>
<event>
12    6  0.1611689E-007  0.3175074E+04  0.7818608E-02  0.8195431E-01
         -1   -1    0    0    0  501 -0.00000000000E+00  0.00000000000E+00  0.10188746899E+04  0.10188746899E+04  0.00000000000E+00 0.  1.
          2   -1    0    0  501    0  0.00000000000E+00 -0.00000000000E+00 -0.24735850106E+04  0.24735850106E+04  0.00000000000E+00 0. -1.
         24    2    1    2    0    0 -0.11331466594E+04  0.73069695369E+03 -0.12959963773E+04  0.18714365630E+04  0.68766341470E+02 0.  0.
        254    2    1    2    0    0  0.11331466594E+04 -0.73069695369E+03 -0.15871394339E+03  0.16210231375E+04  0.88576887887E+03 0.  0.
         23    2    4    4    0    0  0.16449682452E+03 -0.39700188054E+03  0.25836711288E+03  0.51111471352E+03  0.99070615896E+02 0.  0.
         23    2    4    4    0    0  0.96864983484E+03 -0.33369507315E+03 -0.41708105626E+03  0.11099084240E+04  0.91132857767E+02 0.  0.
          2    1    3    3  502    0 -0.36876437670E+03  0.24359838976E+03 -0.38112564724E+03  0.58359583617E+03  0.00000000000E+00 0. -1.
         -1    1    3    3    0  502 -0.76438228267E+03  0.48709856393E+03 -0.91487073004E+03  0.12878407268E+04  0.00000000000E+00 0.  1.
         11    1    5    5    0    0  0.79670397086E+02 -0.16531212125E+03  0.16665834330E+03  0.24789205916E+03  0.00000000000E+00 0.  1.
        -11    1    5    5    0    0  0.84826427435E+02 -0.23168975929E+03  0.91708769572E+02  0.26322265436E+03  0.00000000000E+00 0. -1.
          3    1    6    6  503    0  0.18193430139E+03 -0.27265922938E+02 -0.85134938435E+02  0.20271033106E+03  0.00000000000E+00 0. -1.
         -3    1    6    6    0  503  0.78671553345E+03 -0.30642915021E+03 -0.33194611783E+03  0.90719809293E+03  0.00000000000E+00 0.  1.
<mgrwt>
<rscale>  0 0.31750736E+04</rscale>
<asrwt>0</asrwt>
<pdfrwt beam="1">  1        2 0.38055154E+00 0.31750736E+04</pdfrwt>
<pdfrwt beam="2">  1       -1 0.15674995E+00 0.31750736E+04</pdfrwt>
<totfact> 0.10697125E+00</totfact>
</mgrwt>
</event>
<event>
12    6  0.1611689E-007  0.2142590E+04  0.7818608E-02  0.8542711E-01
         -1   -1    0    0    0  501 -0.00000000000E+00  0.00000000000E+00  0.71052857373E+03  0.71052857373E+03  0.00000000000E+00 0.  1.
          2   -1    0    0  501    0  0.00000000000E+00 -0.00000000000E+00 -0.16152377999E+04  0.16152377999E+04  0.00000000000E+00 0. -1.
         24    2    1    2    0    0 -0.40768665135E+03 -0.28099144384E+03  0.41510975095E+03  0.65100723105E+03  0.79559489358E+02 0.  0.
        254    2    1    2    0    0  0.40768665135E+03  0.28099144384E+03 -0.13198189771E+04  0.16747591426E+04  0.90428505246E+03 0.  0.
         23    2    4    4    0    0  0.42993245829E+03 -0.23531663935E+03 -0.54710544512E+03  0.74031555291E+03  0.92341271115E+02 0.  0.
         23    2    4    4    0    0 -0.22245806938E+02  0.51630808319E+03 -0.77271353201E+03  0.93444358968E+03  0.95024770742E+02 0.  0.
          4    1    3    3  502    0 -0.12464490918E+03 -0.44687020006E+02  0.12072486666E+03  0.17918642965E+03  0.00000000000E+00 0. -1.
         -3    1    3    3    0  502 -0.28304174217E+03 -0.23630442383E+03  0.29438488429E+03  0.47182080140E+03  0.00000000000E+00 0.  1.
         11    1    5    5    0    0  0.10483087768E+03 -0.16917108472E+02 -0.13553613204E+03  0.17217939645E+03  0.00000000000E+00 0. -1.
        -11    1    5    5    0    0  0.32510158060E+03 -0.21839953088E+03 -0.41156931308E+03  0.56813615645E+03  0.00000000000E+00 0.  1.
          3    1    6    6  503    0  0.12155350323E+02  0.12581279509E+03 -0.12788545415E+03  0.17980906911E+03  0.00000000000E+00 0. -1.
         -3    1    6    6    0  503 -0.34401157261E+02  0.39049528810E+03 -0.64482807786E+03  0.75463452057E+03  0.00000000000E+00 0.  1.
<mgrwt>
<rscale>  0 0.21425897E+04</rscale>
<asrwt>0</asrwt>
<pdfrwt beam="1">  1        2 0.24849813E+00 0.21425897E+04</pdfrwt>
<pdfrwt beam="2">  1       -1 0.10931209E+00 0.21425897E+04</pdfrwt>
<totfact> 0.88598051E+00</totfact>
</mgrwt>
</event>
<event>
12    6  0.1611689E-007  0.2376704E+04  0.7818608E-02  0.8448277E-01
          2   -1    0    0  501    0  0.00000000000E+00  0.00000000000E+00  0.70114832593E+03  0.70114832593E+03  0.00000000000E+00 0. -1.
         -1   -1    0    0    0  501 -0.00000000000E+00 -0.00000000000E+00 -0.20140964272E+04  0.20140964272E+04  0.00000000000E+00 0.  1.
         24    2    1    2    0    0 -0.71487414010E+02 -0.10116510170E+04 -0.71376622023E+03  0.12428156090E+04  0.81118372187E+02 0.  0.
        254    2    1    2    0    0  0.71487414010E+02  0.10116510170E+04 -0.59918188108E+03  0.14724291441E+04  0.88344803319E+03 0.  0.
         23    2    4    4    0    0 -0.11702928113E+03  0.43619606328E+02  0.16168191307E+03  0.22359520134E+03  0.90858408248E+02 0.  0.
         23    2    4    4    0    0  0.18851669514E+03  0.96803141067E+03 -0.76086379415E+03  0.12488339428E+04  0.89717038851E+02 0.  0.
          2    1    3    3  502    0 -0.55740310285E+02 -0.92275621095E+03 -0.62282914943E+03  0.11146758078E+04  0.00000000000E+00 0. -1.
         -1    1    3    3    0  502 -0.15747103725E+02 -0.88894806054E+02 -0.90937070797E+02  0.12813980125E+03  0.00000000000E+00 0.  1.
         11    1    5    5    0    0  0.34333204359E+00  0.35528436712E+01  0.68184771515E+02  0.68278134432E+02  0.00000000000E+00 0.  1.
        -11    1    5    5    0    0 -0.11737261318E+03  0.40066762657E+02  0.93497141555E+02  0.15531706691E+03  0.00000000000E+00 0. -1.
          4    1    6    6  503    0  0.11190916721E+02  0.23036077583E+03 -0.20117190133E+03  0.30604159446E+03  0.00000000000E+00 0.  1.
         -4    1    6    6    0  503  0.17732577842E+03  0.73767063484E+03 -0.55969189282E+03  0.94279234834E+03  0.00000000000E+00 0. -1.
<mgrwt>
<rscale>  0 0.23767039E+04</rscale>
<asrwt>0</asrwt>
<pdfrwt beam="1">  1        2 0.10786897E+00 0.23767039E+04</pdfrwt>
<pdfrwt beam="2">  1       -1 0.30986098E+00 0.23767039E+04</pdfrwt>
<totfact> 0.11980284E+00</totfact>
</mgrwt>
</event>
<event>
12    6  0.1611689E-007  0.1246539E+04  0.7818608E-02  0.9073068E-01
         -1   -1    0    0    0  501 -0.00000000000E+00  0.00000000000E+00  0.15128046674E+03  0.15128046674E+03  0.00000000000E+00 0.  1.
          2   -1    0    0  501    0  0.00000000000E+00 -0.00000000000E+00 -0.25678472631E+04  0.25678472631E+04  0.00000000000E+00 0. -1.
         24    2    1    2    0    0 -0.26568089023E+03  0.35828705660E+02 -0.84059470738E+03  0.88581343866E+03  0.78714385338E+02 0.  0.
        254    2    1    2    0    0  0.26568089023E+03 -0.35828705660E+02 -0.15759720890E+04  0.18333142912E+04  0.89748717728E+03 0.  0.
         23    2    4    4    0    0 -0.15688688842E+02 -0.36209652145E+03 -0.28511694092E+03  0.47017340678E+03  0.91713339498E+02 0.  0.
         23    2    4    4    0    0  0.28136957907E+03  0.32626781579E+03 -0.12908551481E+04  0.13631408844E+04  0.78908363063E+02 0.  0.
          2    1    3    3  502    0 -0.16885630535E+03  0.60697828604E+02 -0.54109092457E+03  0.57006672145E+03  0.00000000000E+00 0. -1.
         -3    1    3    3    0  502 -0.96824584875E+02 -0.24869122944E+02 -0.29950378282E+03  0.31574671722E+03  0.00000000000E+00 0.  1.
         11    1    5    5    0    0 -0.20037999508E+02 -0.21667465962E+02 -0.44005482872E+02  0.52985687013E+02  0.00000000000E+00 0. -1.
        -11    1    5    5    0    0  0.43493106651E+01 -0.34042905549E+03 -0.24111145805E+03  0.41718771977E+03  0.00000000000E+00 0.  1.
          3    1    6    6  503    0 -0.37337490911E+01  0.16856003385E+02 -0.50369378573E+02  0.53246033000E+02  0.00000000000E+00 0. -1.
         -3    1    6    6    0  503  0.28510332816E+03  0.30941181241E+03 -0.12404857695E+04  0.13098948514E+04  0.00000000000E+00 0.  1.
<mgrwt>
<rscale>  0 0.12465394E+04</rscale>
<asrwt>0</asrwt>
<pdfrwt beam="1">  1        2 0.39505340E+00 0.12465394E+04</pdfrwt>
<pdfrwt beam="2">  1       -1 0.23273919E-01 0.12465394E+04</pdfrwt>
<totfact> 0.56737612E+01</totfact>
</mgrwt>
</event>
<event>
12    6  0.1611689E-007  0.1538875E+04  0.7818608E-02  0.8859005E-01
          2   -1    0    0  501    0  0.00000000000E+00  0.00000000000E+00  0.16814579094E+04  0.16814579094E+04  0.00000000000E+00 0. -1.
         -1   -1    0    0    0  501 -0.00000000000E+00 -0.00000000000E+00 -0.35209570872E+03  0.35209570872E+03  0.00000000000E+00 0.  1.
         24    2    1    2    0    0  0.61673075930E+02 -0.46869042226E+03  0.62565448491E+03  0.78802484129E+03  0.77880265685E+02 0.  0.
        254    2    1    2    0    0 -0.61673075930E+02  0.46869042226E+03  0.70370771574E+03  0.12455287768E+04  0.91250375585E+03 0.  0.
         23    2    4    4    0    0 -0.63739559403E+02 -0.24885296899E+03  0.33985949728E+03  0.43527264958E+03  0.89259565152E+02 0.  0.
         23    2    4    4    0    0  0.20664834731E+01  0.71754339125E+03  0.36384821845E+03  0.81025612722E+03  0.96211625832E+02 0.  0.
          2    1    3    3  502    0  0.75246189535E+02 -0.35812354833E+03  0.44981195145E+03  0.57986658515E+03  0.00000000000E+00 0. -1.
         -1    1    3    3    0  502 -0.13573113605E+02 -0.11056687393E+03  0.17584253346E+03  0.20815825614E+03  0.00000000000E+00 0.  1.
         11    1    5    5    0    0 -0.40800697604E+02 -0.32450396235E+02  0.45417051618E+02  0.69140680634E+02  0.00000000000E+00 0. -1.
        -11    1    5    5    0    0 -0.22938861799E+02 -0.21640257275E+03  0.29444244567E+03  0.36613196895E+03  0.00000000000E+00 0.  1.
          2    1    6    6  503    0  0.59465593202E+01  0.48494026781E+02  0.54338860224E+02  0.73073551520E+02  0.00000000000E+00 0. -1.
         -2    1    6    6    0  503 -0.38800758472E+01  0.66904936447E+03  0.30950935823E+03  0.73718257570E+03  0.00000000000E+00 0.  1.
<mgrwt>
<rscale>  0 0.15388751E+04</rscale>
<asrwt>0</asrwt>
<pdfrwt beam="1">  1        2 0.25868583E+00 0.15388751E+04</pdfrwt>
<pdfrwt beam="2">  1       -1 0.54168571E-01 0.15388751E+04</pdfrwt>
<totfact> 0.37929651E+01</totfact>
</mgrwt>
</event>
<event>
12    6  0.1611689E-007  0.1685635E+04  0.7818608E-02  0.8769600E-01
         -1   -1    0    0    0  501 -0.00000000000E+00  0.00000000000E+00  0.26640536780E+03  0.26640536780E+03  0.00000000000E+00 0.  1.
          2   -1    0    0  501    0  0.00000000000E+00 -0.00000000000E+00 -0.26663943130E+04  0.26663943130E+04  0.00000000000E+00 0. -1.
         24    2    1    2    0    0  0.14455320976E+03 -0.40298180409E+03 -0.16037690501E+04  0.16618318278E+04  0.79497755593E+02 0.  0.
        254    2    1    2    0    0 -0.14455320976E+03  0.40298180409E+03 -0.79621989513E+03  0.12709678530E+04  0.89336621663E+03 0.  0.
         23    2    4    4    0    0 -0.53837760691E+02  0.42442265935E+03  0.26836543397E+02  0.43765218306E+03  0.88239078781E+02 0.  0.
         23    2    4    4    0    0 -0.90715449066E+02 -0.21440855262E+02 -0.82305643853E+03  0.83331566992E+03  0.91126844298E+02 0.  0.
          4    1    3    3  502    0  0.15314920166E+03 -0.38982361776E+03 -0.15225478909E+04  0.15791039266E+04  0.00000000000E+00 0. -1.
         -3    1    3    3    0  502 -0.85959918983E+01 -0.13158186329E+02 -0.81221159170E+02  0.82727901225E+02  0.00000000000E+00 0.  1.
         11    1    5    5    0    0 -0.11241351687E+02  0.62515350557E+02  0.36232769926E+02  0.73125581431E+02  0.00000000000E+00 0.  1.
        -11    1    5    5    0    0 -0.42596409004E+02  0.36190730880E+03 -0.93962265290E+01  0.36452660163E+03  0.00000000000E+00 0. -1.
          3    1    6    6  503    0 -0.56079597718E+02 -0.46591663895E+02 -0.68257399973E+03  0.68645682277E+03  0.00000000000E+00 0. -1.
         -3    1    6    6    0  503 -0.34635851348E+02  0.25150808633E+02 -0.14048243880E+03  0.14685884715E+03  0.00000000000E+00 0.  1.
<mgrwt>
<rscale>  0 0.16856355E+04</rscale>
<asrwt>0</asrwt>
<pdfrwt beam="1">  1        2 0.41021450E+00 0.16856355E+04</pdfrwt>
<pdfrwt beam="2">  1       -1 0.40985442E-01 0.16856355E+04</pdfrwt>
<totfact> 0.17613581E+01</totfact>
</mgrwt>
</event>
<event>
12    6  0.1611689E-007  0.4698831E+04  0.7818608E-02  0.7876723E-01
          2   -1    0    0  501    0  0.00000000000E+00  0.00000000000E+00  0.38361971194E+04  0.38361971194E+04  0.00000000000E+00 0. -1.
         -1   -1    0    0    0  501 -0.00000000000E+00 -0.00000000000E+00 -0.14388604104E+04  0.14388604104E+04  0.00000000000E+00 0.  1.
         24    2    1    2    0    0  0.20328278239E+04  0.42943736581E+03  0.15282962232E+03  0.20848315771E+04  0.79752106610E+02 0.  0.
        254    2    1    2    0    0 -0.20328278239E+04 -0.42943736581E+03  0.22445070866E+04  0.31902259527E+04  0.90715167128E+03 0.  0.
         23    2    4    4    0    0 -0.47588256008E+03  0.25474023926E+03  0.39177617176E+03  0.67362933107E+03  0.94504531242E+02 0.  0.
         23    2    4    4    0    0 -0.15569452638E+04 -0.68417760507E+03  0.18527309149E+04  0.25165966217E+04  0.92028057743E+02 0.  0.
          2    1    3    3  502    0  0.89506734325E+03  0.15768125227E+03  0.91816261314E+02  0.91347641026E+03  0.00000000000E+00 0. -1.
         -1    1    3    3    0  502  0.11377604807E+04  0.27175611354E+03  0.61013361004E+02  0.11713551668E+04  0.00000000000E+00 0.  1.
         11    1    5    5    0    0 -0.24257371936E+03  0.10743783634E+03  0.13938768114E+03  0.29968954546E+03  0.00000000000E+00 0. -1.
        -11    1    5    5    0    0 -0.23330884072E+03  0.14730240292E+03  0.25238849062E+03  0.37393978561E+03  0.00000000000E+00 0.  1.
          3    1    6    6  503    0 -0.23063055566E+03 -0.75680439106E+02  0.23265097827E+03  0.33622084968E+03  0.00000000000E+00 0.  1.
         -3    1    6    6    0  503 -0.13263147082E+04 -0.60849716596E+03  0.16200799366E+04  0.21803757720E+04  0.00000000000E+00 0. -1.
<mgrwt>
<rscale>  0 0.46988306E+04</rscale>
<asrwt>0</asrwt>
<pdfrwt beam="1">  1        2 0.59018417E+00 0.46988306E+04</pdfrwt>
<pdfrwt beam="2">  1       -1 0.22136314E+00 0.46988306E+04</pdfrwt>
<totfact> 0.41868322E-02</totfact>
</mgrwt>
</event>
<event>
12    6  0.1611689E-007  0.2477241E+04  0.7818608E-02  0.8411139E-01
          2   -1    0    0  501    0  0.00000000000E+00  0.00000000000E+00  0.22800598841E+04  0.22800598841E+04  0.00000000000E+00 0. -1.
         -1   -1    0    0    0  501 -0.00000000000E+00 -0.00000000000E+00 -0.67286839671E+03  0.67286839671E+03  0.00000000000E+00 0.  1.
         24    2    1    2    0    0 -0.61362567322E+03 -0.86064455014E+03  0.97770487878E+03  0.14422556029E+04  0.83359975809E+02 0.  0.
        254    2    1    2    0    0  0.61362567322E+03  0.86064455014E+03  0.62948660865E+03  0.15106726780E+04  0.87671719551E+03 0.  0.
         23    2    4    4    0    0  0.74060771477E+03  0.58307115295E+03  0.18613068431E+03  0.96487849839E+03  0.88736285958E+02 0.  0.
         23    2    4    4    0    0 -0.12698204155E+03  0.27757339719E+03  0.44335592435E+03  0.54579417956E+03  0.90307148565E+02 0.  0.
          2    1    3    3  502    0 -0.86410228770E+02 -0.17075176906E+03  0.15780633080E+03  0.24804381128E+03  0.00000000000E+00 0. -1.
         -1    1    3    3    0  502 -0.52721544445E+03 -0.68989278109E+03  0.81989854798E+03  0.11942117916E+04  0.00000000000E+00 0.  1.
         11    1    5    5    0    0  0.71430168895E+03  0.53677923948E+03  0.17611115490E+03  0.91069972749E+03  0.00000000000E+00 0.  1.
        -11    1    5    5    0    0  0.26306025819E+02  0.46291913466E+02  0.10019529404E+02  0.54178770900E+02  0.00000000000E+00 0. -1.
          3    1    6    6  503    0 -0.52843745053E+01  0.25501277185E+02  0.63120505307E+01  0.26797047111E+02  0.00000000000E+00 0. -1.
         -3    1    6    6    0  503 -0.12169766704E+03  0.25207212001E+03  0.43704387382E+03  0.51899713245E+03  0.00000000000E+00 0.  1.
<mgrwt>
<rscale>  0 0.24772406E+04</rscale>
<asrwt>0</asrwt>
<pdfrwt beam="1">  1        2 0.35077844E+00 0.24772406E+04</pdfrwt>
<pdfrwt beam="2">  1       -1 0.10351822E+00 0.24772406E+04</pdfrwt>
<totfact> 0.41615811E+00</totfact>
</mgrwt>
</event>
<event>
12    6  0.1611689E-007  0.1214500E+04  0.7818608E-02  0.9100259E-01
         -1   -1    0    0    0  501 -0.00000000000E+00  0.00000000000E+00  0.38194307577E+03  0.38194307577E+03  0.00000000000E+00 0.  1.
          2   -1    0    0  501    0  0.00000000000E+00 -0.00000000000E+00 -0.96546436081E+03  0.96546436081E+03  0.00000000000E+00 0. -1.
         24    2    1    2    0    0 -0.16550694716E+03  0.61709843108E+02  0.76611058739E+02  0.20913247141E+03  0.81648527121E+02 0.  0.
        254    2    1    2    0    0  0.16550694716E+03 -0.61709843108E+02 -0.66013234377E+03  0.11382749652E+04  0.91032660664E+03 0.  0.
         23    2    4    4    0    0  0.23099275213E+02 -0.35997195110E+03  0.24489341448E+02  0.37301374918E+03  0.91794047396E+02 0.  0.
         23    2    4    4    0    0  0.14240767195E+03  0.29826210799E+03 -0.68462168522E+03  0.76526121600E+03  0.87622181803E+02 0.  0.
          4    1    3    3  502    0 -0.12543781523E+03  0.54793606397E+02  0.18382656854E+02  0.13811193600E+03  0.00000000000E+00 0. -1.
         -3    1    3    3    0  502 -0.40069131927E+02  0.69162367110E+01  0.58228401885E+02  0.71020535409E+02  0.00000000000E+00 0.  1.
         11    1    5    5    0    0  0.20971409050E+01  0.44019546133E+01  0.57714028738E+01  0.75554149803E+01  0.00000000000E+00 0. -1.
        -11    1    5    5    0    0  0.21002134308E+02 -0.36437390571E+03  0.18717938574E+02  0.36545833420E+03  0.00000000000E+00 0.  1.
          3    1    6    6  503    0  0.13030761182E+03  0.22283859278E+03 -0.45325109411E+03  0.52160681211E+03  0.00000000000E+00 0. -1.
         -3    1    6    6    0  503  0.12100060129E+02  0.75423515210E+02 -0.23137059111E+03  0.24365440389E+03  0.00000000000E+00 0.  1.
<mgrwt>
<rscale>  0 0.12144998E+04</rscale>
<asrwt>0</asrwt>
<pdfrwt beam="1">  1        2 0.14853298E+00 0.12144998E+04</pdfrwt>
<pdfrwt beam="2">  1       -1 0.58760473E-01 0.12144998E+04</pdfrwt>
<totfact> 0.87554182E+01</totfact>
</mgrwt>
</event>
<event>
12    6  0.1611689E-007  0.1221211E+04  0.7818608E-02  0.9094490E-01
          2   -1    0    0  501    0  0.00000000000E+00  0.00000000000E+00  0.15665713682E+04  0.15665713682E+04  0.00000000000E+00 0. -1.
         -1   -1    0    0    0  501 -0.00000000000E+00 -0.00000000000E+00 -0.23799697466E+03  0.23799697466E+03  0.00000000000E+00 0.  1.
         24    2    1    2    0    0 -0.23758106836E+02  0.22229204872E+03  0.67802631403E+02  0.23935443523E+03  0.52107065534E+02 0.  0.
        254    2    1    2    0    0  0.23758106836E+02 -0.22229204872E+03  0.12607717622E+04  0.15652139077E+04  0.90020605302E+03 0.  0.
         23    2    4    4    0    0  0.43983172179E+03 -0.13791885380E+03  0.47847468193E+03  0.67069673682E+03  0.91774385369E+02 0.  0.
         23    2    4    4    0    0 -0.41607361496E+03 -0.84373194913E+02  0.78229708023E+03  0.89451717083E+03  0.89085117100E+02 0.  0.
          4    1    3    3  502    0  0.46820348162E+01  0.16615267521E+03  0.55430851225E+02  0.17521761383E+03  0.00000000000E+00 0. -1.
         -3    1    3    3    0  502 -0.28440141652E+02  0.56139373502E+02  0.12371780178E+02  0.64136821399E+02  0.00000000000E+00 0.  1.
         11    1    5    5    0    0  0.26086219265E+03 -0.35589178486E+02  0.25205797394E+03  0.36448442410E+03  0.00000000000E+00 0. -1.
        -11    1    5    5    0    0  0.17896952914E+03 -0.10232967532E+03  0.22641670798E+03  0.30621231273E+03  0.00000000000E+00 0.  1.
          1    1    6    6  503    0 -0.29319687767E+03 -0.93256191607E+02  0.60326132945E+03  0.67718930733E+03  0.00000000000E+00 0. -1.
         -1    1    6    6    0  503 -0.12287673729E+03  0.88829966940E+01  0.17903575078E+03  0.21732786350E+03  0.00000000000E+00 0.  1.
<mgrwt>
<rscale>  0 0.12212113E+04</rscale>
<asrwt>0</asrwt>
<pdfrwt beam="1">  1        2 0.24101097E+00 0.12212113E+04</pdfrwt>
<pdfrwt beam="2">  1       -1 0.36614920E-01 0.12212113E+04</pdfrwt>
<totfact> 0.93488876E+01</totfact>
</mgrwt>
</event>
<event>
12    6  0.1611689E-007  0.2542656E+04  0.7818608E-02  0.8387945E-01
          2   -1    0    0  501    0  0.00000000000E+00  0.00000000000E+00  0.13835860181E+04  0.13835860181E+04  0.00000000000E+00 0. -1.
         -1   -1    0    0    0  501 -0.00000000000E+00 -0.00000000000E+00 -0.11681779438E+04  0.11681779438E+04  0.00000000000E+00 0.  1.
         24    2    1    2    0    0  0.10347520095E+03  0.77939684575E+03 -0.69340036171E+03  0.10513534188E+04  0.79833509729E+02 0.  0.
        254    2    1    2    0    0 -0.10347520095E+03 -0.77939684575E+03  0.90880843599E+03  0.15004105430E+04  0.89840551190E+03 0.  0.
         23    2    4    4    0    0  0.28427649772E+03 -0.57570416423E+03  0.23139875166E+03  0.68842404520E+03  0.90187980783E+02 0.  0.
         23    2    4    4    0    0 -0.38775169866E+03 -0.20369268152E+03  0.67740968434E+03  0.81198649779E+03  0.92715175893E+02 0.  0.
          4    1    3    3  502    0  0.39232991203E+02  0.11289399822E+03 -0.12626440747E+03  0.17385908957E+03  0.00000000000E+00 0. -1.
         -3    1    3    3    0  502  0.64242209746E+02  0.66650284753E+03 -0.56713595424E+03  0.87749432925E+03  0.00000000000E+00 0.  1.
         11    1    5    5    0    0  0.17421659306E+01 -0.46389590846E+01 -0.66305952009E+01  0.82776733589E+01  0.00000000000E+00 0.  1.
        -11    1    5    5    0    0  0.28253433178E+03 -0.57106520514E+03  0.23802934686E+03  0.68014637184E+03  0.00000000000E+00 0. -1.
          4    1    6    6  503    0 -0.35011312500E+03 -0.20971614104E+03  0.59921050635E+03  0.72499192481E+03  0.00000000000E+00 0. -1.
         -4    1    6    6    0  503 -0.37638573663E+02  0.60234595126E+01  0.78199177983E+02  0.86994572986E+02  0.00000000000E+00 0.  1.
<mgrwt>
<rscale>  0 0.25426558E+04</rscale>
<asrwt>0</asrwt>
<pdfrwt beam="1">  1        2 0.21285939E+00 0.25426558E+04</pdfrwt>
<pdfrwt beam="2">  1       -1 0.17971968E+00 0.25426558E+04</pdfrwt>
<totfact> 0.31306094E+00</totfact>
</mgrwt>
</event>
<event>
12    6  0.1611689E-007  0.2007837E+04  0.7818608E-02  0.8602966E-01
          2   -1    0    0  501    0  0.00000000000E+00  0.00000000000E+00  0.56945377229E+03  0.56945377229E+03  0.00000000000E+00 0. -1.
         -1   -1    0    0    0  501 -0.00000000000E+00 -0.00000000000E+00 -0.17698573216E+04  0.17698573216E+04  0.00000000000E+00 0.  1.
         24    2    1    2    0    0  0.58827681168E+03  0.28049814140E+03 -0.10227120896E+04  0.12153262152E+04  0.79554864964E+02 0.  0.
        254    2    1    2    0    0 -0.58827681168E+03 -0.28049814140E+03 -0.17769145972E+03  0.11239848787E+04  0.89834232801E+03 0.  0.
         23    2    4    4    0    0  0.76721747022E+02 -0.15235881555E+03 -0.36711657421E+03  0.41478477249E+03  0.90401290328E+02 0.  0.
         23    2    4    4    0    0 -0.66499855870E+03 -0.12813932585E+03  0.18942511449E+03  0.70920010625E+03  0.91870271557E+02 0.  0.
          4    1    3    3  502    0  0.93802490213E+01  0.19303406352E+02 -0.32271699495E+02  0.38756588559E+02  0.00000000000E+00 0. -1.
         -3    1    3    3    0  502  0.57889656266E+03  0.26119473505E+03 -0.99044039010E+03  0.11765696266E+04  0.00000000000E+00 0.  1.
         11    1    5    5    0    0  0.12043950743E+02  0.10762650232E+02 -0.47432116620E+02  0.50106856583E+02  0.00000000000E+00 0. -1.
        -11    1    5    5    0    0  0.64677796279E+02 -0.16312146578E+03 -0.31968445759E+03  0.36467791591E+03  0.00000000000E+00 0.  1.
          3    1    6    6  503    0 -0.65682225638E+02 -0.30921600065E+02  0.43953319933E+02  0.84865743669E+02  0.00000000000E+00 0. -1.
         -3    1    6    6    0  503 -0.59931633306E+03 -0.97217725788E+02  0.14547179456E+03  0.62433436258E+03  0.00000000000E+00 0.  1.
<mgrwt>
<rscale>  0 0.20078366E+04</rscale>
<asrwt>0</asrwt>
<pdfrwt beam="1">  1        2 0.87608274E-01 0.20078366E+04</pdfrwt>
<pdfrwt beam="2">  1       -1 0.27228574E+00 0.20078366E+04</pdfrwt>
<totfact> 0.27973299E+00</totfact>
</mgrwt>
</event>
<event>
12    6  0.1611689E-007  0.2301634E+04  0.7818608E-02  0.8477277E-01
          2   -1    0    0  501    0  0.00000000000E+00  0.00000000000E+00  0.27627133169E+04  0.27627133169E+04  0.00000000000E+00 0. -1.
         -1   -1    0    0    0  501 -0.00000000000E+00 -0.00000000000E+00 -0.47937656607E+03  0.47937656607E+03  0.00000000000E+00 0.  1.
         24    2    1    2    0    0  0.81718516730E+01  0.50993107728E+03 -0.19267212549E+03  0.55111674915E+03  0.80688540208E+02 0.  0.
        254    2    1    2    0    0 -0.81718516730E+01 -0.50993107728E+03  0.24760088763E+04  0.26909731338E+04  0.92229060961E+03 0.  0.
         23    2    4    4    0    0  0.43912708857E+03 -0.32079414851E+03  0.11348344303E+04  0.12616382937E+04  0.90224798223E+02 0.  0.
         23    2    4    4    0    0 -0.44729894024E+03 -0.18913692877E+03  0.13411744460E+04  0.14293348401E+04  0.91651900469E+02 0.  0.
          4    1    3    3  502    0  0.19491950143E+02  0.60125390575E+02 -0.44875675154E+02  0.77516610689E+02  0.00000000000E+00 0. -1.
         -3    1    3    3    0  502 -0.11320098470E+02  0.44980568670E+03 -0.14779645033E+03  0.47360013846E+03  0.00000000000E+00 0.  1.
         11    1    5    5    0    0  0.14162886619E+03 -0.71799015369E+02  0.40677728830E+03  0.43667103937E+03  0.00000000000E+00 0.  1.
        -11    1    5    5    0    0  0.29749822238E+03 -0.24899513314E+03  0.72805714204E+03  0.82496725433E+03  0.00000000000E+00 0. -1.
          3    1    6    6  503    0 -0.21878752531E+03 -0.56876957719E+02  0.71141929543E+03  0.74647195759E+03  0.00000000000E+00 0. -1.
         -3    1    6    6    0  503 -0.22851141493E+03 -0.13225997105E+03  0.62975515053E+03  0.68286288252E+03  0.00000000000E+00 0.  1.
<mgrwt>
<rscale>  0 0.23016342E+04</rscale>
<asrwt>0</asrwt>
<pdfrwt beam="1">  1        2 0.42503281E+00 0.23016342E+04</pdfrwt>
<pdfrwt beam="2">  1       -1 0.73750243E-01 0.23016342E+04</pdfrwt>
<totfact> 0.46526274E+00</totfact>
</mgrwt>
</event>
<event>
12    6  0.1611689E-007  0.2192174E+04  0.7818608E-02  0.8521692E-01
          2   -1    0    0  501    0  0.00000000000E+00  0.00000000000E+00  0.88172740377E+03  0.88172740377E+03  0.00000000000E+00 0. -1.
         -1   -1    0    0    0  501 -0.00000000000E+00 -0.00000000000E+00 -0.13625608504E+04  0.13625608504E+04  0.00000000000E+00 0.  1.
         24    2    1    2    0    0 -0.77809208143E+03  0.43900895637E+03 -0.18863969585E+03  0.91664724326E+03  0.80629292280E+02 0.  0.
        254    2    1    2    0    0  0.77809208143E+03 -0.43900895637E+03 -0.29219375079E+03  0.13276410109E+04  0.93760189575E+03 0.  0.
         23    2    4    4    0    0 -0.54256560400E+02  0.19493412688E+03 -0.14716736229E+03  0.26699595137E+03  0.93196123079E+02 0.  0.
         23    2    4    4    0    0  0.83234864183E+03 -0.63394308325E+03 -0.14502638850E+03  0.10606450595E+04  0.96162334740E+02 0.  0.
          2    1    3    3  502    0 -0.50445488236E+02  0.53546179489E+02 -0.13697298127E+02  0.74830185067E+02  0.00000000000E+00 0. -1.
         -1    1    3    3    0  502 -0.72764659320E+03  0.38546277688E+03 -0.17494239773E+03  0.84181705820E+03  0.00000000000E+00 0.  1.
         11    1    5    5    0    0 -0.33628588132E+02  0.34107448102E+02  0.18630770470E+00  0.47898169759E+02  0.00000000000E+00 0.  1.
        -11    1    5    5    0    0 -0.20627972268E+02  0.16082667878E+03 -0.14735367000E+03  0.21909778161E+03  0.00000000000E+00 0. -1.
          4    1    6    6  503    0  0.63139996421E+03 -0.46894126647E+03 -0.67814893534E+02  0.78941160746E+03  0.00000000000E+00 0. -1.
         -4    1    6    6    0  503  0.20094867762E+03 -0.16500181677E+03 -0.77211494963E+02  0.27123345209E+03  0.00000000000E+00 0.  1.
<mgrwt>
<rscale>  0 0.21921745E+04</rscale>
<asrwt>0</asrwt>
<pdfrwt beam="1">  1        2 0.13565037E+00 0.21921745E+04</pdfrwt>
<pdfrwt beam="2">  1       -1 0.20962475E+00 0.21921745E+04</pdfrwt>
<totfact> 0.40709699E+00</totfact>
</mgrwt>
</event>
<event>
12    6  0.1611689E-007  0.2130117E+04  0.7818608E-02  0.8548092E-01
         -1   -1    0    0    0  501 -0.00000000000E+00  0.00000000000E+00  0.17476556140E+04  0.17476556140E+04  0.00000000000E+00 0.  1.
          2   -1    0    0  501    0  0.00000000000E+00 -0.00000000000E+00 -0.64906904641E+03  0.64906904641E+03  0.00000000000E+00 0. -1.
         24    2    1    2    0    0  0.69843261332E+03 -0.12916763233E+03  0.99657251416E+03  0.12262350086E+04  0.77479853859E+02 0.  0.
        254    2    1    2    0    0 -0.69843261332E+03  0.12916763233E+03  0.10201405343E+03  0.11704896518E+04  0.92474145864E+03 0.  0.
         23    2    4    4    0    0 -0.59921950426E+03 -0.32748797133E+03  0.62797844843E+02  0.69297052249E+03  0.99760663906E+02 0.  0.
         23    2    4    4    0    0 -0.99213109051E+02  0.45665560367E+03  0.39216208589E+02  0.47751912933E+03  0.90050133199E+02 0.  0.
          4    1    3    3  502    0  0.31248173239E+03 -0.60232450530E+02  0.38110049460E+03  0.49649810489E+03  0.00000000000E+00 0. -1.
         -3    1    3    3    0  502  0.38595088093E+03 -0.68935181805E+02  0.61547201956E+03  0.72973690372E+03  0.00000000000E+00 0.  1.
         11    1    5    5    0    0 -0.36210318646E+03 -0.18480158316E+03 -0.10572991557E+02  0.40667201887E+03  0.00000000000E+00 0.  1.
        -11    1    5    5    0    0 -0.23711631780E+03 -0.14268638818E+03  0.73370836400E+02  0.28629850362E+03  0.00000000000E+00 0. -1.
          3    1    6    6  503    0 -0.85204705447E+02  0.35866671212E+03 -0.59961753247E+01  0.36869717430E+03  0.00000000000E+00 0. -1.
         -3    1    6    6    0  503 -0.14008403604E+02  0.97988891545E+02  0.45212383914E+02  0.10882195503E+03  0.00000000000E+00 0.  1.
<mgrwt>
<rscale>  0 0.21301166E+04</rscale>
<asrwt>0</asrwt>
<pdfrwt beam="1">  1        2 0.99856777E-01 0.21301166E+04</pdfrwt>
<pdfrwt beam="2">  1       -1 0.26887009E+00 0.21301166E+04</pdfrwt>
<totfact> 0.24841039E+00</totfact>
</mgrwt>
</event>
<event>
12    6  0.1611689E-007  0.1264261E+04  0.7818608E-02  0.9058397E-01
         -1   -1    0    0    0  501 -0.00000000000E+00  0.00000000000E+00  0.36142346006E+03  0.36142346006E+03  0.00000000000E+00 0.  1.
          2   -1    0    0  501    0  0.00000000000E+00 -0.00000000000E+00 -0.11055974166E+04  0.11055974166E+04  0.00000000000E+00 0. -1.
         24    2    1    2    0    0  0.62615258091E+02 -0.99278361503E+02  0.13896774150E+03  0.20040960679E+03  0.84113695107E+02 0.  0.
        254    2    1    2    0    0 -0.62615258091E+02  0.99278361503E+02 -0.88314169800E+03  0.12666112698E+04  0.90032659992E+03 0.  0.
         23    2    4    4    0    0 -0.30269159488E+03  0.39456265804E+03 -0.39764265378E+03  0.64331172576E+03  0.91806337818E+02 0.  0.
         23    2    4    4    0    0  0.24007633679E+03 -0.29528429654E+03 -0.48549904422E+03  0.62329954408E+03  0.89238648847E+02 0.  0.
          4    1    3    3  502    0  0.30136909397E+02 -0.11822421718E+02 -0.78128776328E+00  0.32382300318E+02  0.00000000000E+00 0. -1.
         -3    1    3    3    0  502  0.32478348694E+02 -0.87455939785E+02  0.13974902927E+03  0.16802730647E+03  0.00000000000E+00 0.  1.
         11    1    5    5    0    0 -0.24140250890E+03  0.24580832400E+03 -0.26086719138E+03  0.43214418310E+03  0.00000000000E+00 0. -1.
        -11    1    5    5    0    0 -0.61289085972E+02  0.14875433404E+03 -0.13677546241E+03  0.21116754266E+03  0.00000000000E+00 0.  1.
          3    1    6    6  503    0  0.18621784863E+03 -0.18241516369E+03 -0.37315087989E+03  0.45518563054E+03  0.00000000000E+00 0. -1.
         -3    1    6    6    0  503  0.53858488156E+02 -0.11286913285E+03 -0.11234816433E+03  0.16811391354E+03  0.00000000000E+00 0.  1.
<mgrwt>
<rscale>  0 0.12642608E+04</rscale>
<asrwt>0</asrwt>
<pdfrwt beam="1">  1        2 0.17009191E+00 0.12642608E+04</pdfrwt>
<pdfrwt beam="2">  1       -1 0.55603610E-01 0.12642608E+04</pdfrwt>
<totfact> 0.79203547E+01</totfact>
</mgrwt>
</event>
<event>
12    6  0.1611689E-007  0.2172308E+04  0.7818608E-02  0.8530043E-01
         -1   -1    0    0    0  501 -0.00000000000E+00  0.00000000000E+00  0.49920691125E+03  0.49920691125E+03  0.00000000000E+00 0.  1.
          2   -1    0    0  501    0  0.00000000000E+00 -0.00000000000E+00 -0.23632090804E+04  0.23632090804E+04  0.00000000000E+00 0. -1.
         24    2    1    2    0    0 -0.60046860909E+03  0.63990616131E+02  0.10508138879E+03  0.61843436242E+03  0.82229027079E+02 0.  0.
        254    2    1    2    0    0  0.60046860909E+03 -0.63990616131E+02 -0.19690835580E+04  0.22439816292E+04  0.89078961864E+03 0.  0.
         23    2    4    4    0    0  0.39973854628E+03 -0.29618616493E+03 -0.40711022323E+03  0.64930620007E+03  0.91338151474E+02 0.  0.
         23    2    4    4    0    0  0.20073006281E+03  0.23219554880E+03 -0.15619733347E+04  0.15946754292E+04  0.94982603635E+02 0.  0.
          4    1    3    3  502    0 -0.28622379002E+03  0.62935372737E+02  0.24884405682E+02  0.29411588322E+03  0.00000000000E+00 0. -1.
         -3    1    3    3    0  502 -0.31424481907E+03  0.10552433940E+01  0.80196983112E+02  0.32431847920E+03  0.00000000000E+00 0.  1.
         11    1    5    5    0    0  0.25399733683E+03 -0.17642545307E+03 -0.19571592648E+03  0.36598539792E+03  0.00000000000E+00 0. -1.
        -11    1    5    5    0    0  0.14574120945E+03 -0.11976071186E+03 -0.21139429675E+03  0.28332080215E+03  0.00000000000E+00 0.  1.
          3    1    6    6  503    0  0.38674548743E+02  0.60482369394E+02 -0.59398436337E+03  0.59830699616E+03  0.00000000000E+00 0. -1.
         -3    1    6    6    0  503  0.16205551407E+03  0.17171317940E+03 -0.96798897136E+03  0.99636843301E+03  0.00000000000E+00 0.  1.
<mgrwt>
<rscale>  0 0.21723078E+04</rscale>
<asrwt>0</asrwt>
<pdfrwt beam="1">  1        2 0.36357062E+00 0.21723078E+04</pdfrwt>
<pdfrwt beam="2">  1       -1 0.76801064E-01 0.21723078E+04</pdfrwt>
<totfact> 0.74003454E+00</totfact>
</mgrwt>
</event>
<event>
12    6  0.1611689E-007  0.4309821E+04  0.7818608E-02  0.7944805E-01
          2   -1    0    0  501    0  0.00000000000E+00  0.00000000000E+00  0.31738744496E+04  0.31738744496E+04  0.00000000000E+00 0. -1.
         -1   -1    0    0    0  501 -0.00000000000E+00 -0.00000000000E+00 -0.14630821125E+04  0.14630821125E+04  0.00000000000E+00 0.  1.
         24    2    1    2    0    0 -0.82699501514E+03 -0.66525759247E+03 -0.10874100448E+04  0.15217842478E+04  0.82935347254E+02 0.  0.
        254    2    1    2    0    0  0.82699501514E+03  0.66525759247E+03  0.27982023819E+04  0.31151723143E+04  0.86479683070E+03 0.  0.
         23    2    4    4    0    0  0.81199694197E+03  0.43750776706E+03  0.12981432065E+04  0.15950888302E+04  0.91545135006E+02 0.  0.
         23    2    4    4    0    0  0.14998073172E+02  0.22774982541E+03  0.15000591754E+04  0.15200834841E+04  0.91549678926E+02 0.  0.
          4    1    3    3  502    0 -0.23481096848E+03 -0.22962187323E+03 -0.36684029729E+03  0.49237607507E+03  0.00000000000E+00 0. -1.
         -3    1    3    3    0  502 -0.59218404667E+03 -0.43563571924E+03 -0.72056974750E+03  0.10294081727E+04  0.00000000000E+00 0.  1.
         11    1    5    5    0    0  0.77858570557E+03  0.40146360821E+03  0.12491316358E+04  0.15256797086E+04  0.00000000000E+00 0.  1.
        -11    1    5    5    0    0  0.33411236400E+02  0.36044158851E+02  0.49011570688E+02  0.69409121637E+02  0.00000000000E+00 0. -1.
          2    1    6    6  503    0  0.51169622471E+02  0.16358641845E+03  0.98883196657E+03  0.10035773536E+04  0.00000000000E+00 0. -1.
         -2    1    6    6    0  503 -0.36171549299E+02  0.64163406967E+02  0.51122720881E+03  0.51650613046E+03  0.00000000000E+00 0.  1.
<mgrwt>
<rscale>  0 0.43098208E+04</rscale>
<asrwt>0</asrwt>
<pdfrwt beam="1">  1        2 0.48828838E+00 0.43098208E+04</pdfrwt>
<pdfrwt beam="2">  1       -1 0.22508956E+00 0.43098208E+04</pdfrwt>
<totfact> 0.11979158E-01</totfact>
</mgrwt>
</event>
<event>
12    6  0.1611689E-007  0.1358264E+04  0.7818608E-02  0.8984596E-01
         -1   -1    0    0    0  501 -0.00000000000E+00  0.00000000000E+00  0.16740884256E+03  0.16740884256E+03  0.00000000000E+00 0.  1.
          2   -1    0    0  501    0  0.00000000000E+00 -0.00000000000E+00 -0.27550517232E+04  0.27550517232E+04  0.00000000000E+00 0. -1.
         24    2    1    2    0    0 -0.34056249557E+03  0.13781284011E+03 -0.84812133258E+03  0.92790976904E+03  0.82046038430E+02 0.  0.
        254    2    1    2    0    0  0.34056249557E+03 -0.13781284011E+03 -0.17395215481E+04  0.19945507967E+04  0.90405888762E+03 0.  0.
         23    2    4    4    0    0  0.45832067010E+03 -0.27430670036E+03 -0.17053873251E+04  0.17893460397E+04  0.90062860115E+02 0.  0.
         23    2    4    4    0    0 -0.11775817454E+03  0.13649386025E+03 -0.34134222996E+02  0.20520475703E+03  0.91903675514E+02 0.  0.
          4    1    3    3  502    0 -0.95277576367E+02  0.47135049435E+02 -0.34321739203E+03  0.35930169445E+03  0.00000000000E+00 0. -1.
         -3    1    3    3    0  502 -0.24528491920E+03  0.90677790670E+02 -0.50490394056E+03  0.56860807460E+03  0.00000000000E+00 0.  1.
         11    1    5    5    0    0  0.36158269752E+02 -0.55318380936E+02 -0.20484109552E+03  0.21523804997E+03  0.00000000000E+00 0.  1.
        -11    1    5    5    0    0  0.42216240035E+03 -0.21898831942E+03 -0.15005462296E+04  0.15741079897E+04  0.00000000000E+00 0. -1.
          3    1    6    6  503    0 -0.11939680199E+03  0.76270641368E+02 -0.17859676279E+02  0.14279977275E+03  0.00000000000E+00 0. -1.
         -3    1    6    6    0  503  0.16386274549E+01  0.60223218883E+02 -0.16274546716E+02  0.62404984283E+02  0.00000000000E+00 0.  1.
<mgrwt>
<rscale>  0 0.13582636E+04</rscale>
<asrwt>0</asrwt>
<pdfrwt beam="1">  1        2 0.42385411E+00 0.13582636E+04</pdfrwt>
<pdfrwt beam="2">  1       -1 0.25755207E-01 0.13582636E+04</pdfrwt>
<totfact> 0.36666878E+01</totfact>
</mgrwt>
</event>
<event>
12    6  0.1611689E-007  0.1421807E+04  0.7818608E-02  0.8938183E-01
         -1   -1    0    0    0  501 -0.00000000000E+00  0.00000000000E+00  0.18847409960E+03  0.18847409960E+03  0.00000000000E+00 0.  1.
          2   -1    0    0  501    0  0.00000000000E+00 -0.00000000000E+00 -0.26814501037E+04  0.26814501037E+04  0.00000000000E+00 0. -1.
         24    2    1    2    0    0  0.36737778956E+03 -0.18442964979E+03 -0.11388248891E+04  0.12135065919E+04  0.81825329454E+02 0.  0.
        254    2    1    2    0    0 -0.36737778956E+03  0.18442964979E+03 -0.13541511150E+04  0.16564176114E+04  0.86082130849E+03 0.  0.
         23    2    4    4    0    0 -0.73240678988E+01 -0.30983973478E+03 -0.59496259051E+03  0.67624690027E+03  0.85294095933E+02 0.  0.
         23    2    4    4    0    0 -0.36005372166E+03  0.49426938457E+03 -0.75918852448E+03  0.98017071113E+03  0.10211023582E+03 0.  0.
          4    1    3    3  502    0  0.34300898568E+03 -0.16667932401E+03 -0.97498298018E+03  0.10469140237E+04  0.00000000000E+00 0. -1.
         -3    1    3    3    0  502  0.24368803879E+02 -0.17750325774E+02 -0.16384190894E+03  0.16659256823E+03  0.00000000000E+00 0.  1.
         11    1    5    5    0    0 -0.22239757704E+02 -0.23443330346E+02 -0.38769636723E+02  0.50470598293E+02  0.00000000000E+00 0. -1.
        -11    1    5    5    0    0  0.14915689805E+02 -0.28639640443E+03 -0.55619295378E+03  0.62577630197E+03  0.00000000000E+00 0.  1.
          2    1    6    6  503    0 -0.49667999514E+02  0.25536179428E+02 -0.92917654695E+02  0.10840985744E+03  0.00000000000E+00 0. -1.
         -2    1    6    6    0  503 -0.31038572214E+03  0.46873320514E+03 -0.66627086979E+03  0.87176085370E+03  0.00000000000E+00 0.  1.
<mgrwt>
<rscale>  0 0.14218072E+04</rscale>
<asrwt>0</asrwt>
<pdfrwt beam="1">  1        2 0.41253079E+00 0.14218072E+04</pdfrwt>
<pdfrwt beam="2">  1       -1 0.28996015E-01 0.14218072E+04</pdfrwt>
<totfact> 0.32820013E+01</totfact>
</mgrwt>
</event>
<event>
12    6  0.1611689E-007  0.1690550E+04  0.7818608E-02  0.8766773E-01
          2   -1    0    0  501    0  0.00000000000E+00  0.00000000000E+00  0.11749395858E+04  0.11749395858E+04  0.00000000000E+00 0. -1.
         -1   -1    0    0    0  501 -0.00000000000E+00 -0.00000000000E+00 -0.60810764224E+03  0.60810764224E+03  0.00000000000E+00 0.  1.
         24    2    1    2    0    0 -0.59243181239E+03  0.37480873940E+01  0.98426068843E+02  0.60594779868E+03  0.80594932874E+02 0.  0.
        254    2    1    2    0    0  0.59243181239E+03 -0.37480873940E+01  0.46840587472E+03  0.11770994294E+04  0.90286737822E+03 0.  0.
         23    2    4    4    0    0  0.60904387196E+03 -0.30982469343E+03  0.50365683646E+03  0.85376453033E+03  0.91202443596E+02 0.  0.
         23    2    4    4    0    0 -0.16612059571E+02  0.30607660603E+03 -0.35250961739E+02  0.32333489903E+03  0.96664250594E+02 0.  0.
          2    1    3    3  502    0 -0.14223111182E+03 -0.31401153618E+02  0.36414823165E+02  0.15013913869E+03  0.00000000000E+00 0. -1.
         -3    1    3    3    0  502 -0.45020070056E+03  0.35149241012E+02  0.62011245678E+02  0.45580865999E+03  0.00000000000E+00 0.  1.
         11    1    5    5    0    0  0.52280111767E+03 -0.25359943011E+03  0.38682985532E+03  0.69804800448E+03  0.00000000000E+00 0. -1.
        -11    1    5    5    0    0  0.86242754287E+02 -0.56225263314E+02  0.11682698114E+03  0.15571652586E+03  0.00000000000E+00 0.  1.
          4    1    6    6  503    0 -0.47341943499E+02  0.23429317474E+03 -0.49133528273E+02  0.24402593089E+03  0.00000000000E+00 0. -1.
         -4    1    6    6    0  503  0.30729883928E+02  0.71783431291E+02  0.13882566534E+02  0.79308968142E+02  0.00000000000E+00 0.  1.
<mgrwt>
<rscale>  0 0.16905499E+04</rscale>
<asrwt>0</asrwt>
<pdfrwt beam="1">  1        2 0.18075994E+00 0.16905499E+04</pdfrwt>
<pdfrwt beam="2">  1       -1 0.93555022E-01 0.16905499E+04</pdfrwt>
<totfact> 0.23600890E+01</totfact>
</mgrwt>
</event>
<event>
12    6  0.1611689E-007  0.1153364E+04  0.7818608E-02  0.9154686E-01
          2   -1    0    0  501    0  0.00000000000E+00  0.00000000000E+00  0.72349158156E+03  0.72349158156E+03  0.00000000000E+00 0. -1.
         -1   -1    0    0    0  501 -0.00000000000E+00 -0.00000000000E+00 -0.45966277347E+03  0.45966277347E+03  0.00000000000E+00 0.  1.
         24    2    1    2    0    0  0.15823625411E+03  0.15044890354E+03  0.46062232121E+02  0.23685504845E+03  0.79404030485E+02 0.  0.
        254    2    1    2    0    0 -0.15823625411E+03 -0.15044890354E+03  0.21776657597E+03  0.94629930659E+03  0.89464323132E+03 0.  0.
         23    2    4    4    0    0 -0.17046512207E+03  0.35648373058E+03  0.73008217793E+02  0.41197277091E+03  0.90842479576E+02 0.  0.
         23    2    4    4    0    0  0.12228867964E+02 -0.50693263412E+03  0.14475835817E+03  0.53432653568E+03  0.86137237735E+02 0.  0.
          4    1    3    3  502    0  0.13640703604E+03  0.11237989816E+03  0.65994638239E+02  0.18865686647E+03  0.00000000000E+00 0. -1.
         -3    1    3    3    0  502  0.21829218071E+02  0.38069005379E+02 -0.19932406118E+02  0.48198181976E+02  0.00000000000E+00 0.  1.
         11    1    5    5    0    0 -0.10314163562E+03  0.15708791377E+03 -0.37429853958E+01  0.18795962223E+03  0.00000000000E+00 0. -1.
        -11    1    5    5    0    0 -0.67323486456E+02  0.19939581681E+03  0.76751203188E+02  0.22401314867E+03  0.00000000000E+00 0.  1.
          2    1    6    6  503    0  0.28066154685E+02 -0.56624156041E+02  0.26116723005E+02  0.68381922368E+02  0.00000000000E+00 0. -1.
         -2    1    6    6    0  503 -0.15837286721E+02 -0.45030847808E+03  0.11864163517E+03  0.46594461331E+03  0.00000000000E+00 0.  1.
<mgrwt>
<rscale>  0 0.11533640E+04</rscale>
<asrwt>0</asrwt>
<pdfrwt beam="1">  1        2 0.11130640E+00 0.11533640E+04</pdfrwt>
<pdfrwt beam="2">  1       -1 0.70717350E-01 0.11533640E+04</pdfrwt>
<totfact> 0.89733362E+01</totfact>
</mgrwt>
</event>
<event>
12    6  0.2005531E-007  0.2076842E+04  0.7818608E-02  0.8571514E-01
          2   -1    0    0  501    0  0.00000000000E+00  0.00000000000E+00  0.27339666678E+04  0.27339666678E+04  0.00000000000E+00 0. -1.
         -1   -1    0    0    0  501 -0.00000000000E+00 -0.00000000000E+00 -0.39441518159E+03  0.39441518159E+03  0.00000000000E+00 0.  1.
         24    2    1    2    0    0 -0.66492125343E+03 -0.61601841714E+01  0.18063665530E+03  0.69380152212E+03  0.81072373348E+02 0.  0.
        254    2    1    2    0    0  0.66492125343E+03  0.61601841714E+01  0.21589148309E+04  0.24345803273E+04  0.90780499101E+03 0.  0.
         23    2    4    4    0    0  0.43684112391E+03 -0.40499690992E+03  0.15255429542E+04  0.16403361259E+04  0.92566929330E+02 0.  0.
         23    2    4    4    0    0  0.22808012952E+03  0.41115709409E+03  0.63337187675E+03  0.79424420136E+03  0.92699598913E+02 0.  0.
          4    1    3    3  502    0 -0.36161400713E+02 -0.10046937569E+02 -0.57887332358E+01  0.37974956070E+02  0.00000000000E+00 0. -1.
         -3    1    3    3    0  502 -0.62875985272E+03  0.38867533974E+01  0.18642538854E+03  0.65582656605E+03  0.00000000000E+00 0.  1.
         11    1    5    5    0    0  0.23540195855E+02 -0.14354400072E+02  0.13879212334E+03  0.14150421592E+03  0.00000000000E+00 0.  1.
        -11    1    5    5    0    0  0.41330092806E+03 -0.39064250984E+03  0.13867508309E+04  0.14988319100E+04  0.00000000000E+00 0. -1.
          4    1    6    6  503    0  0.52073850048E+02  0.59029108658E+02  0.61102772040E+02  0.99647730926E+02  0.00000000000E+00 0.  1.
         -4    1    6    6    0  503  0.17600627948E+03  0.35212798543E+03  0.57226910471E+03  0.69459647044E+03  0.00000000000E+00 0. -1.
<mgrwt>
<rscale>  0 0.20768418E+04</rscale>
<asrwt>0</asrwt>
<pdfrwt beam="1">  1        2 0.42061024E+00 0.20768418E+04</pdfrwt>
<pdfrwt beam="2">  1       -1 0.60679261E-01 0.20768418E+04</pdfrwt>
<totfact> 0.73416861E+00</totfact>
</mgrwt>
</event>
<event>
12    6  0.1611689E-007  0.2036364E+04  0.7818608E-02  0.8589806E-01
         -1   -1    0    0    0  501 -0.00000000000E+00  0.00000000000E+00  0.39011589113E+03  0.39011589113E+03  0.00000000000E+00 0.  1.
          2   -1    0    0  501    0  0.00000000000E+00 -0.00000000000E+00 -0.26574016979E+04  0.26574016979E+04  0.00000000000E+00 0. -1.
         24    2    1    2    0    0  0.68755941465E+03  0.19007300478E+03 -0.14949366067E+04  0.16582806380E+04  0.78698922865E+02 0.  0.
        254    2    1    2    0    0 -0.68755941465E+03 -0.19007300478E+03 -0.77234920008E+03  0.13892369511E+04  0.90806955873E+03 0.  0.
         23    2    4    4    0    0 -0.25510387825E+03 -0.16403252644E+02  0.17934410229E+03  0.32564359621E+03  0.92370933379E+02 0.  0.
         23    2    4    4    0    0 -0.43245553641E+03 -0.17366975214E+03 -0.95169330237E+03  0.10635933548E+04  0.91278195142E+02 0.  0.
          2    1    3    3  502    0  0.62950524226E+03  0.15189543407E+03 -0.13285791534E+04  0.14779958186E+04  0.00000000000E+00 0. -1.
         -1    1    3    3    0  502  0.58054172389E+02  0.38177570708E+02 -0.16635745329E+03  0.18028481939E+03  0.00000000000E+00 0.  1.
         11    1    5    5    0    0 -0.12555987157E+03 -0.37888889412E+02  0.13194131006E+03  0.18603590672E+03  0.00000000000E+00 0.  1.
        -11    1    5    5    0    0 -0.12954400668E+03  0.21485636768E+02  0.47402792231E+02  0.13960768949E+03  0.00000000000E+00 0. -1.
          1    1    6    6  503    0 -0.11088548282E+03 -0.80055594655E+01 -0.18470241936E+03  0.21557982976E+03  0.00000000000E+00 0. -1.
         -1    1    6    6    0  503 -0.32157005359E+03 -0.16566419267E+03 -0.76699088301E+03  0.84801352508E+03  0.00000000000E+00 0.  1.
<mgrwt>
<rscale>  0 0.20363640E+04</rscale>
<asrwt>0</asrwt>
<pdfrwt beam="1">  1        2 0.40883101E+00 0.20363640E+04</pdfrwt>
<pdfrwt beam="2">  1       -1 0.60017832E-01 0.20363640E+04</pdfrwt>
<totfact> 0.83616336E+00</totfact>
</mgrwt>
</event>
<event>
12    6  0.1611689E-007  0.1218306E+04  0.7818608E-02  0.9096983E-01
         -1   -1    0    0    0  501 -0.00000000000E+00  0.00000000000E+00  0.56905843434E+03  0.56905843434E+03  0.00000000000E+00 0.  1.
          2   -1    0    0  501    0  0.00000000000E+00 -0.00000000000E+00 -0.65207219706E+03  0.65207219706E+03  0.00000000000E+00 0. -1.
         24    2    1    2    0    0 -0.18489071871E+03  0.84141821346E+02 -0.21526679899E+03  0.30633557152E+03  0.78976348776E+02 0.  0.
        254    2    1    2    0    0  0.18489071871E+03 -0.84141821346E+02  0.13225303626E+03  0.91479505989E+03  0.88209677022E+03 0.  0.
         23    2    4    4    0    0  0.20288880069E+03 -0.19841793181E+03  0.46403003558E+03  0.55159757137E+03  0.91664964477E+02 0.  0.
         23    2    4    4    0    0 -0.17998081986E+02  0.11427611046E+03 -0.33177699931E+03  0.36319748852E+03  0.91942797542E+02 0.  0.
          4    1    3    3  502    0 -0.10673757965E+03  0.82629426692E+02 -0.16592947809E+03  0.21389980076E+03  0.00000000000E+00 0. -1.
         -3    1    3    3    0  502 -0.78153139061E+02  0.15123946548E+01 -0.49337320896E+02  0.92435770759E+02  0.00000000000E+00 0.  1.
         11    1    5    5    0    0  0.38206566443E+02 -0.81540125052E+02  0.94790928317E+02  0.13074346563E+03  0.00000000000E+00 0. -1.
        -11    1    5    5    0    0  0.16468223425E+03 -0.11687780676E+03  0.36923910726E+03  0.42085410574E+03  0.00000000000E+00 0.  1.
          3    1    6    6  503    0  0.35022833507E+02  0.47929495067E+02 -0.17644816873E+03  0.18616603238E+03  0.00000000000E+00 0. -1.
         -3    1    6    6    0  503 -0.53020915493E+02  0.66346615393E+02 -0.15532883058E+03  0.17703145614E+03  0.00000000000E+00 0.  1.
<mgrwt>
<rscale>  0 0.12183057E+04</rscale>
<asrwt>0</asrwt>
<pdfrwt beam="1">  1        2 0.10031880E+00 0.12183057E+04</pdfrwt>
<pdfrwt beam="2">  1       -1 0.87547452E-01 0.12183057E+04</pdfrwt>
<totfact> 0.64768766E+01</totfact>
</mgrwt>
</event>
<event>
12    6  0.1611689E-007  0.2965629E+04  0.7818608E-02  0.8253614E-01
          2   -1    0    0  501    0  0.00000000000E+00  0.00000000000E+00  0.15102284809E+04  0.15102284809E+04  0.00000000000E+00 0. -1.
         -1   -1    0    0    0  501 -0.00000000000E+00 -0.00000000000E+00 -0.14558981559E+04  0.14558981559E+04  0.00000000000E+00 0.  1.
         24    2    1    2    0    0  0.52730074887E+03 -0.20072769980E+03 -0.11920247790E+04  0.13212466989E+04  0.80200227220E+02 0.  0.
        254    2    1    2    0    0 -0.52730074887E+03  0.20072769980E+03  0.12463551040E+04  0.16448799378E+04  0.91317647544E+03 0.  0.
         23    2    4    4    0    0  0.13631517772E+03 -0.15169781176E+03  0.63036844083E+03  0.66870257383E+03  0.90579839225E+02 0.  0.
         23    2    4    4    0    0 -0.66361592659E+03  0.35242551156E+03  0.61598666316E+03  0.97617736397E+03  0.94301842607E+02 0.  0.
          4    1    3    3  502    0  0.90013457602E+01  0.91909983582E+00 -0.48582454651E+01  0.10269932765E+02  0.00000000000E+00 0. -1.
         -3    1    3    3    0  502  0.51829940311E+03 -0.20164679963E+03 -0.11871665335E+04  0.13109767662E+04  0.00000000000E+00 0.  1.
         11    1    5    5    0    0  0.55348945085E+02 -0.19277947312E+02  0.98190757403E+02  0.11435283037E+03  0.00000000000E+00 0.  1.
        -11    1    5    5    0    0  0.80966232634E+02 -0.13241986445E+03  0.53217768343E+03  0.55434974345E+03  0.00000000000E+00 0. -1.
          3    1    6    6  503    0 -0.28766719282E+03  0.19864802920E+03  0.25427516640E+03  0.43228383451E+03  0.00000000000E+00 0. -1.
         -3    1    6    6    0  503 -0.37594873377E+03  0.15377748236E+03  0.36171149676E+03  0.54389352947E+03  0.00000000000E+00 0.  1.
<mgrwt>
<rscale>  0 0.29656290E+04</rscale>
<asrwt>0</asrwt>
<pdfrwt beam="1">  1        2 0.23234284E+00 0.29656290E+04</pdfrwt>
<pdfrwt beam="2">  1       -1 0.22398433E+00 0.29656290E+04</pdfrwt>
<totfact> 0.12672454E+00</totfact>
</mgrwt>
</event>
<event>
12    6  0.1611689E-007  0.5108635E+04  0.7818608E-02  0.7811964E-01
          2   -1    0    0  501    0  0.00000000000E+00  0.00000000000E+00  0.46403919152E+04  0.46403919152E+04  0.00000000000E+00 0. -1.
         -1   -1    0    0    0  501 -0.00000000000E+00 -0.00000000000E+00 -0.14060317832E+04  0.14060317832E+04  0.00000000000E+00 0.  1.
         24    2    1    2    0    0 -0.58266183142E+03 -0.17878109809E+04 -0.32738082870E+03  0.19102715170E+04  0.78715615633E+02 0.  0.
        254    2    1    2    0    0  0.58266183142E+03  0.17878109809E+04  0.35617409607E+04  0.41361521814E+04  0.94127216216E+03 0.  0.
         23    2    4    4    0    0  0.77680966350E+03  0.15302515377E+04  0.32592621044E+04  0.36846058093E+04  0.91801320489E+02 0.  0.
         23    2    4    4    0    0 -0.19414783208E+03  0.25755944319E+03  0.30247885634E+03  0.45154637217E+03  0.91490000581E+02 0.  0.
          2    1    3    3  502    0 -0.48813496155E+03 -0.15096169924E+04 -0.24724100217E+03  0.16057233005E+04  0.00000000000E+00 0. -1.
         -1    1    3    3    0  502 -0.94526869869E+02 -0.27819398851E+03 -0.80139826530E+02  0.30454821649E+03  0.00000000000E+00 0.  1.
         11    1    5    5    0    0  0.21729107185E+03  0.39097575301E+03  0.77256486567E+03  0.89271155533E+03  0.00000000000E+00 0. -1.
        -11    1    5    5    0    0  0.55951859165E+03  0.11392757847E+04  0.24866972387E+04  0.27918942539E+04  0.00000000000E+00 0.  1.
          4    1    6    6  503    0 -0.93131202781E+02  0.87462535015E+02  0.17318307650E+03  0.21521034815E+03  0.00000000000E+00 0. -1.
         -4    1    6    6    0  503 -0.10101662930E+03  0.17009690818E+03  0.12929577984E+03  0.23633602402E+03  0.00000000000E+00 0.  1.
<mgrwt>
<rscale>  0 0.51086352E+04</rscale>
<asrwt>0</asrwt>
<pdfrwt beam="1">  1        2 0.71390644E+00 0.51086352E+04</pdfrwt>
<pdfrwt beam="2">  1       -1 0.21631258E+00 0.51086352E+04</pdfrwt>
<totfact> 0.83640983E-03</totfact>
</mgrwt>
</event>
<event>
12    6  0.1611689E-007  0.2558088E+04  0.7818608E-02  0.8382579E-01
          2   -1    0    0  501    0  0.00000000000E+00  0.00000000000E+00  0.22923999147E+04  0.22923999147E+04  0.00000000000E+00 0. -1.
         -3   -1    0    0    0  501 -0.00000000000E+00 -0.00000000000E+00 -0.71364220109E+03  0.71364220109E+03  0.00000000000E+00 0.  1.
         24    2    1    2    0    0 -0.98378577246E+02 -0.46411173192E+03 -0.50781046573E+03  0.69954752742E+03  0.80107614232E+02 0.  0.
        254    2    1    2    0    0  0.98378577246E+02  0.46411173192E+03  0.20865681794E+04  0.23064945884E+04  0.86085566445E+03 0.  0.
         23    2    4    4    0    0 -0.24086962877E+03  0.44744358316E+03  0.66269075858E+03  0.84000573311E+03  0.90700892876E+02 0.  0.
         23    2    4    4    0    0  0.33924820602E+03  0.16668148761E+02  0.14238774208E+04  0.14664888553E+04  0.88292020111E+02 0.  0.
          2    1    3    3  502    0 -0.49489659863E+02 -0.23033335862E+03 -0.19398963265E+03  0.30517971772E+03  0.00000000000E+00 0. -1.
         -1    1    3    3    0  502 -0.48888917383E+02 -0.23377837330E+03 -0.31382083307E+03  0.39436780971E+03  0.00000000000E+00 0.  1.
         11    1    5    5    0    0 -0.35605604059E+02  0.61874393050E+02  0.15243422850E+03  0.16832229078E+03  0.00000000000E+00 0. -1.
        -11    1    5    5    0    0 -0.20526402471E+03  0.38556919011E+03  0.51025653008E+03  0.67168344232E+03  0.00000000000E+00 0.  1.
          4    1    6    6  503    0  0.11554668595E+03  0.46736040569E+02  0.46649419237E+03  0.48285828732E+03  0.00000000000E+00 0. -1.
         -4    1    6    6    0  503  0.22370152006E+03 -0.30067891808E+02  0.95738322842E+03  0.98363056798E+03  0.00000000000E+00 0.  1.
<mgrwt>
<rscale>  0 0.25580878E+04</rscale>
<asrwt>0</asrwt>
<pdfrwt beam="1">  1        2 0.35267691E+00 0.25580878E+04</pdfrwt>
<pdfrwt beam="2">  1       -3 0.10979111E+00 0.25580878E+04</pdfrwt>
<totfact> 0.18158185E+00</totfact>
</mgrwt>
</event>
<event>
12    6  0.1611689E-007  0.1525603E+04  0.7818608E-02  0.8867604E-01
         -1   -1    0    0    0  501 -0.00000000000E+00  0.00000000000E+00  0.17776856396E+03  0.17776856396E+03  0.00000000000E+00 0.  1.
          2   -1    0    0  501    0  0.00000000000E+00 -0.00000000000E+00 -0.32731648540E+04  0.32731648540E+04  0.00000000000E+00 0. -1.
         24    2    1    2    0    0  0.23508504879E+03  0.32747956648E+02 -0.19326036799E+04  0.19489241188E+04  0.83730691189E+02 0.  0.
        254    2    1    2    0    0 -0.23508504879E+03 -0.32747956648E+02 -0.11627926102E+04  0.15020092991E+04  0.92065621791E+03 0.  0.
         23    2    4    4    0    0 -0.57303816834E+03  0.56551492723E+02 -0.62865788292E+03  0.85646035631E+03  0.82114520359E+02 0.  0.
         23    2    4    4    0    0  0.33795311955E+03 -0.89299449372E+02 -0.53413472724E+03  0.64554894282E+03  0.96160428747E+02 0.  0.
          4    1    3    3  502    0  0.19438695424E+03 -0.49414553251E+01 -0.13998948095E+04  0.14133351278E+04  0.00000000000E+00 0. -1.
         -3    1    3    3    0  502  0.40698094549E+02  0.37689411973E+02 -0.53270887038E+03  0.53558899098E+03  0.00000000000E+00 0.  1.
         11    1    5    5    0    0 -0.10785749517E+02 -0.10928237394E+02 -0.17203525687E+02  0.23059055949E+02  0.00000000000E+00 0. -1.
        -11    1    5    5    0    0 -0.56225241883E+03  0.67479730118E+02 -0.61145435724E+03  0.83340130036E+03  0.00000000000E+00 0.  1.
          1    1    6    6  503    0  0.32170327387E+03 -0.61740867531E+02 -0.50690274445E+03  0.60353568533E+03  0.00000000000E+00 0. -1.
         -1    1    6    6    0  503  0.16249845679E+02 -0.27558581840E+02 -0.27231982798E+02  0.42013257488E+02  0.00000000000E+00 0.  1.
<mgrwt>
<rscale>  0 0.15256026E+04</rscale>
<asrwt>0</asrwt>
<pdfrwt beam="1">  1        2 0.50356382E+00 0.15256026E+04</pdfrwt>
<pdfrwt beam="2">  1       -1 0.27349010E-01 0.15256026E+04</pdfrwt>
<totfact> 0.15444191E+01</totfact>
</mgrwt>
</event>
<event>
12    6  0.1611689E-007  0.3220605E+04  0.7818608E-02  0.8183397E-01
          2   -1    0    0  501    0  0.00000000000E+00  0.00000000000E+00  0.20756335182E+04  0.20756335182E+04  0.00000000000E+00 0. -1.
         -1   -1    0    0    0  501 -0.00000000000E+00 -0.00000000000E+00 -0.12492928144E+04  0.12492928144E+04  0.00000000000E+00 0.  1.
         24    2    1    2    0    0  0.35048470640E+02 -0.21641217594E+03 -0.11334637926E+04  0.11572863023E+04  0.80677080239E+02 0.  0.
        254    2    1    2    0    0 -0.35048470640E+02  0.21641217594E+03  0.19598044964E+04  0.21676400303E+04  0.89987055279E+03 0.  0.
         23    2    4    4    0    0  0.10936908214E+03 -0.17696418915E+03  0.81875575259E+02  0.24138004012E+03  0.91009854278E+02 0.  0.
         23    2    4    4    0    0 -0.14441755278E+03  0.39337636509E+03  0.18779289211E+04  0.19262599902E+04  0.90879716400E+02 0.  0.
          2    1    3    3  502    0  0.25977562288E+02 -0.16980366803E+03 -0.68073438597E+03  0.70207365971E+03  0.00000000000E+00 0. -1.
         -1    1    3    3    0  502  0.90709083517E+01 -0.46608507909E+02 -0.45272940660E+03  0.45521264261E+03  0.00000000000E+00 0.  1.
         11    1    5    5    0    0  0.94955669874E+02 -0.13603577411E+03  0.10071254070E+03  0.19407557016E+03  0.00000000000E+00 0.  1.
        -11    1    5    5    0    0  0.14413412262E+02 -0.40928415045E+02 -0.18836965445E+02  0.47304469961E+02  0.00000000000E+00 0. -1.
          2    1    6    6  503    0 -0.14874504493E+03  0.39076571358E+03  0.18733393970E+04  0.19194331006E+04  0.00000000000E+00 0. -1.
         -2    1    6    6    0  503  0.43274921582E+01  0.26106515103E+01  0.45895240772E+01  0.68268895511E+01  0.00000000000E+00 0.  1.
<mgrwt>
<rscale>  0 0.32206049E+04</rscale>
<asrwt>0</asrwt>
<pdfrwt beam="1">  1        2 0.31932823E+00 0.32206049E+04</pdfrwt>
<pdfrwt beam="2">  1       -1 0.19219889E+00 0.32206049E+04</pdfrwt>
<totfact> 0.98851257E-01</totfact>
</mgrwt>
</event>
<event>
12    6  0.1611689E-007  0.2399979E+04  0.7818608E-02  0.8439511E-01
         -1   -1    0    0    0  501 -0.00000000000E+00  0.00000000000E+00  0.52986129947E+03  0.52986129947E+03  0.00000000000E+00 0.  1.
          2   -1    0    0  501    0  0.00000000000E+00 -0.00000000000E+00 -0.27176454682E+04  0.27176454682E+04  0.00000000000E+00 0. -1.
         24    2    1    2    0    0 -0.75564574041E+03  0.93402723686E+02 -0.62300742574E+01  0.76610931749E+03  0.84617484743E+02 0.  0.
        254    2    1    2    0    0  0.75564574041E+03 -0.93402723686E+02 -0.21815540944E+04  0.24813974501E+04  0.90467147894E+03 0.  0.
         23    2    4    4    0    0  0.49549860120E+02 -0.34610050810E+03 -0.11326660130E+04  0.11888665036E+04  0.90722192247E+02 0.  0.
         23    2    4    4    0    0  0.70609588029E+03  0.25269778442E+03 -0.10488880814E+04  0.12925309465E+04  0.89679862968E+02 0.  0.
          2    1    3    3  502    0 -0.60779255498E+03  0.69876673228E+02  0.28356560264E+02  0.61245296461E+03  0.00000000000E+00 0. -1.
         -3    1    3    3    0  502 -0.14785318543E+03  0.23526050458E+02 -0.34586634521E+02  0.15365635288E+03  0.00000000000E+00 0.  1.
         11    1    5    5    0    0  0.72628414585E+02 -0.30492499347E+03 -0.96097657518E+03  0.10108066661E+04  0.00000000000E+00 0. -1.
        -11    1    5    5    0    0 -0.23078554465E+02 -0.41175514635E+02 -0.17168943780E+03  0.17805983751E+03  0.00000000000E+00 0.  1.
          1    1    6    6  503    0  0.28055220159E+03  0.14718088935E+03 -0.44728767594E+03  0.54812226469E+03  0.00000000000E+00 0. -1.
         -1    1    6    6    0  503  0.42554367870E+03  0.10551689507E+03 -0.60160040551E+03  0.74440868180E+03  0.00000000000E+00 0.  1.
<mgrwt>
<rscale>  0 0.23999793E+04</rscale>
<asrwt>0</asrwt>
<pdfrwt beam="1">  1        2 0.41809930E+00 0.23999793E+04</pdfrwt>
<pdfrwt beam="2">  1       -1 0.81517123E-01 0.23999793E+04</pdfrwt>
<totfact> 0.39728554E+00</totfact>
</mgrwt>
</event>
<event>
12    6  0.1611689E-007  0.1655079E+04  0.7818608E-02  0.8787407E-01
         -1   -1    0    0    0  501 -0.00000000000E+00  0.00000000000E+00  0.36714053322E+03  0.36714053322E+03  0.00000000000E+00 0.  1.
          2   -1    0    0  501    0  0.00000000000E+00 -0.00000000000E+00 -0.18652858015E+04  0.18652858015E+04  0.00000000000E+00 0. -1.
         24    2    1    2    0    0  0.41285553556E+03  0.39391032698E+03 -0.39283409491E+03  0.69766069662E+03  0.82442601491E+02 0.  0.
        254    2    1    2    0    0 -0.41285553556E+03 -0.39391032698E+03 -0.11053111734E+04  0.15347656381E+04  0.89898706052E+03 0.  0.
         23    2    4    4    0    0 -0.29605048836E+01  0.24198766909E+03 -0.10754799756E+03  0.27985744315E+03  0.90481048437E+02 0.  0.
         23    2    4    4    0    0 -0.40989503068E+03 -0.63589799606E+03 -0.99776317579E+03  0.12549081949E+04  0.82963999454E+02 0.  0.
          4    1    3    3  502    0  0.46923421159E+02  0.29560268942E+02 -0.13955352539E+02  0.57187138569E+02  0.00000000000E+00 0. -1.
         -3    1    3    3    0  502  0.36593211440E+03  0.36435005803E+03 -0.37887874237E+03  0.64047355805E+03  0.00000000000E+00 0.  1.
         11    1    5    5    0    0  0.24097090793E+02  0.18380184899E+03 -0.46120443251E+02  0.19102587459E+03  0.00000000000E+00 0. -1.
        -11    1    5    5    0    0 -0.27057595677E+02  0.58185820100E+02 -0.61427554310E+02  0.88831568561E+02  0.00000000000E+00 0.  1.
          4    1    6    6  503    0 -0.16509140320E+03 -0.18738337429E+03 -0.34646007390E+03  0.42708580306E+03  0.00000000000E+00 0.  1.
         -4    1    6    6    0  503 -0.24480362748E+03 -0.44851462177E+03 -0.65130310189E+03  0.82782239188E+03  0.00000000000E+00 0. -1.
<mgrwt>
<rscale>  0 0.16550795E+04</rscale>
<asrwt>0</asrwt>
<pdfrwt beam="1">  1        2 0.28696705E+00 0.16550795E+04</pdfrwt>
<pdfrwt beam="2">  1       -1 0.56483158E-01 0.16550795E+04</pdfrwt>
<totfact> 0.27389031E+01</totfact>
</mgrwt>
</event>
<event>
12    6  0.1611689E-007  0.2418861E+04  0.7818608E-02  0.8432476E-01
          2   -1    0    0  501    0  0.00000000000E+00  0.00000000000E+00  0.30805454428E+04  0.30805454428E+04  0.00000000000E+00 0. -1.
         -3   -1    0    0    0  501 -0.00000000000E+00 -0.00000000000E+00 -0.47482583273E+03  0.47482583273E+03  0.00000000000E+00 0.  1.
         24    2    1    2    0    0 -0.20716609955E+02 -0.59003683009E+03  0.23804851225E+04  0.24539262926E+04  0.80449935744E+02 0.  0.
        254    2    1    2    0    0  0.20716609955E+02  0.59003683009E+03  0.22523448755E+03  0.11014449829E+04  0.90215178171E+03 0.  0.
         23    2    4    4    0    0 -0.85683020211E+02 -0.14052438374E+03 -0.17300300069E+03  0.25771045193E+03  0.96932741666E+02 0.  0.
         23    2    4    4    0    0  0.10639963017E+03  0.73056121383E+03  0.39823748824E+03  0.84373453100E+03  0.90853141467E+02 0.  0.
          4    1    3    3  502    0  0.19476496010E+02 -0.35468903292E+03  0.15176122777E+04  0.15586310242E+04  0.00000000000E+00 0. -1.
         -3    1    3    3    0  502 -0.40193105965E+02 -0.23534779717E+03  0.86287284483E+03  0.89529526847E+03  0.00000000000E+00 0.  1.
         11    1    5    5    0    0 -0.63487153443E+02 -0.25792329943E+02 -0.35230327793E+02  0.77052183179E+02  0.00000000000E+00 0.  1.
        -11    1    5    5    0    0 -0.22195866768E+02 -0.11473205380E+03 -0.13777267290E+03  0.18065826875E+03  0.00000000000E+00 0. -1.
          2    1    6    6  503    0  0.11996633273E+03  0.69896520939E+03  0.38444509598E+03  0.80668600878E+03  0.00000000000E+00 0. -1.
         -2    1    6    6    0  503 -0.13566702566E+02  0.31596004435E+02  0.13792392252E+02  0.37048522222E+02  0.00000000000E+00 0.  1.
<mgrwt>
<rscale>  0 0.24188613E+04</rscale>
<asrwt>0</asrwt>
<pdfrwt beam="1">  1        2 0.47393006E+00 0.24188613E+04</pdfrwt>
<pdfrwt beam="2">  1       -3 0.73050130E-01 0.24188613E+04</pdfrwt>
<totfact> 0.15893029E+00</totfact>
</mgrwt>
</event>
<event>
12    6  0.1611689E-007  0.1412153E+04  0.7818608E-02  0.8945068E-01
         -1   -1    0    0    0  501 -0.00000000000E+00  0.00000000000E+00  0.53062738261E+03  0.53062738261E+03  0.00000000000E+00 0.  1.
          2   -1    0    0  501    0  0.00000000000E+00 -0.00000000000E+00 -0.93953718422E+03  0.93953718422E+03  0.00000000000E+00 0. -1.
         24    2    1    2    0    0 -0.21717022249E+02  0.42864609866E+03  0.39020592421E+02  0.43839159154E+03  0.80345964128E+02 0.  0.
        254    2    1    2    0    0  0.21717022249E+02 -0.42864609866E+03 -0.44793039403E+03  0.10317729753E+04  0.82444207054E+03 0.  0.
         23    2    4    4    0    0  0.33659721258E+03 -0.38082259991E+03 -0.47043701179E+03  0.69919204583E+03  0.96098900996E+02 0.  0.
         23    2    4    4    0    0 -0.31488019033E+03 -0.47823498744E+02  0.22506617756E+02  0.33258092945E+03  0.93096216338E+02 0.  0.
          4    1    3    3  502    0  0.11709311691E+02  0.35235079773E+02 -0.14682915885E+02  0.39927519905E+02  0.00000000000E+00 0. -1.
         -3    1    3    3    0  502 -0.33426333940E+02  0.39341101888E+03  0.53703508306E+02  0.39846407164E+03  0.00000000000E+00 0.  1.
         11    1    5    5    0    0  0.17660395767E+03 -0.22327291255E+03 -0.32312899480E+03  0.43064149663E+03  0.00000000000E+00 0. -1.
        -11    1    5    5    0    0  0.15999325491E+03 -0.15754968737E+03 -0.14730801699E+03  0.26855054920E+03  0.00000000000E+00 0.  1.
          3    1    6    6  503    0 -0.30395859299E+03 -0.65597552597E+02  0.20921481826E+02  0.31165938709E+03  0.00000000000E+00 0. -1.
         -3    1    6    6    0  503 -0.10921597341E+02  0.17774053853E+02  0.15851359299E+01  0.20921542361E+02  0.00000000000E+00 0.  1.
<mgrwt>
<rscale>  0 0.14121532E+04</rscale>
<asrwt>0</asrwt>
<pdfrwt beam="1">  1        2 0.14454418E+00 0.14121532E+04</pdfrwt>
<pdfrwt beam="2">  1       -1 0.81634982E-01 0.14121532E+04</pdfrwt>
<totfact> 0.45742303E+01</totfact>
</mgrwt>
</event>
<event>
12    6  0.1611689E-007  0.2990717E+04  0.7818608E-02  0.8246387E-01
          2   -1    0    0  501    0  0.00000000000E+00  0.00000000000E+00  0.19893833598E+04  0.19893833598E+04  0.00000000000E+00 0. -1.
         -1   -1    0    0    0  501 -0.00000000000E+00 -0.00000000000E+00 -0.11240148319E+04  0.11240148319E+04  0.00000000000E+00 0.  1.
         24    2    1    2    0    0  0.11657315222E+04 -0.39637906402E+03  0.99407988048E+03  0.15845963527E+04  0.81880693727E+02 0.  0.
        254    2    1    2    0    0 -0.11657315222E+04  0.39637906402E+03 -0.12871135259E+03  0.15288018390E+04  0.89700730565E+03 0.  0.
         23    2    4    4    0    0  0.11797573218E+03  0.54075733899E+02 -0.11688092013E+03  0.19713846396E+03  0.91432850228E+02 0.  0.
         23    2    4    4    0    0 -0.12837072544E+04  0.34230333012E+03 -0.11830432454E+02  0.13316633750E+04  0.90063869174E+02 0.  0.
          4    1    3    3  502    0  0.11437730251E+04 -0.39004827799E+03  0.95903266768E+03  0.15427566399E+04  0.00000000000E+00 0. -1.
         -3    1    3    3    0  502  0.21958497043E+02 -0.63307860323E+01  0.35047212799E+02  0.41839712823E+02  0.00000000000E+00 0.  1.
         11    1    5    5    0    0  0.76996106121E+02  0.18853242869E+02 -0.13395771502E+02  0.80394600680E+02  0.00000000000E+00 0. -1.
        -11    1    5    5    0    0  0.40979626063E+02  0.35222491030E+02 -0.10348514863E+03  0.11674386328E+03  0.00000000000E+00 0.  1.
          2    1    6    6  503    0 -0.12787486327E+04  0.33691008786E+03 -0.17333858699E+02  0.13225002592E+04  0.00000000000E+00 0. -1.
         -2    1    6    6    0  503 -0.49586216369E+01  0.53932422643E+01  0.55034262452E+01  0.91631157962E+01  0.00000000000E+00 0.  1.
<mgrwt>
<rscale>  0 0.29907166E+04</rscale>
<asrwt>0</asrwt>
<pdfrwt beam="1">  1        2 0.30605898E+00 0.29907166E+04</pdfrwt>
<pdfrwt beam="2">  1       -1 0.17292536E+00 0.29907166E+04</pdfrwt>
<totfact> 0.15458165E+00</totfact>
</mgrwt>
</event>
<event>
12    6  0.1611689E-007  0.1558168E+04  0.7818608E-02  0.8846667E-01
          2   -1    0    0  501    0  0.00000000000E+00  0.00000000000E+00  0.76299747391E+03  0.76299747391E+03  0.00000000000E+00 0. -1.
         -1   -1    0    0    0  501 -0.00000000000E+00 -0.00000000000E+00 -0.79550942656E+03  0.79550942656E+03  0.00000000000E+00 0.  1.
         24    2    1    2    0    0 -0.48183534046E+01 -0.31876428825E+03 -0.42049674158E+03  0.53354320908E+03  0.78847690386E+02 0.  0.
        254    2    1    2    0    0  0.48183534046E+01  0.31876428825E+03  0.38798478893E+03  0.10249636914E+04  0.89352363384E+03 0.  0.
         23    2    4    4    0    0 -0.36134197784E+03  0.59097983634E+02 -0.62609930840E+02  0.38254367230E+03  0.91427901426E+02 0.  0.
         23    2    4    4    0    0  0.36616033124E+03  0.25966630462E+03  0.45059471977E+03  0.64242001909E+03  0.90376443360E+02 0.  0.
          2    1    3    3  502    0 -0.19783132342E+02 -0.19329261298E+03 -0.19637693628E+03  0.27625587353E+03  0.00000000000E+00 0. -1.
         -1    1    3    3    0  502  0.14964778937E+02 -0.12547167527E+03 -0.22411980530E+03  0.25728733555E+03  0.00000000000E+00 0.  1.
         11    1    5    5    0    0 -0.34897189824E+03  0.60917611772E+02 -0.77980087981E+02  0.36273025143E+03  0.00000000000E+00 0.  1.
        -11    1    5    5    0    0 -0.12370079603E+02 -0.18196281382E+01  0.15370157141E+02  0.19813420868E+02  0.00000000000E+00 0. -1.
          1    1    6    6  503    0  0.22415517763E+03  0.12434192616E+03  0.20577949837E+03  0.32871212361E+03  0.00000000000E+00 0. -1.
         -1    1    6    6    0  503  0.14200515361E+03  0.13532437846E+03  0.24481522140E+03  0.31370789548E+03  0.00000000000E+00 0.  1.
<mgrwt>
<rscale>  0 0.15581677E+04</rscale>
<asrwt>0</asrwt>
<pdfrwt beam="1">  1        2 0.11738423E+00 0.15581677E+04</pdfrwt>
<pdfrwt beam="2">  1       -1 0.12238607E+00 0.15581677E+04</pdfrwt>
<totfact> 0.23761410E+01</totfact>
</mgrwt>
</event>
<event>
12    6  0.1611689E-007  0.1580432E+04  0.7818608E-02  0.8832660E-01
         -1   -1    0    0    0  501 -0.00000000000E+00  0.00000000000E+00  0.86938831488E+03  0.86938831488E+03  0.00000000000E+00 0.  1.
          2   -1    0    0  501    0  0.00000000000E+00 -0.00000000000E+00 -0.71825372355E+03  0.71825372355E+03  0.00000000000E+00 0. -1.
         24    2    1    2    0    0 -0.16186181432E+03 -0.21740075436E+03 -0.38032708236E+03  0.47353312655E+03  0.78247028328E+02 0.  0.
        254    2    1    2    0    0  0.16186181432E+03  0.21740075436E+03  0.53146167368E+03  0.11141089119E+04  0.94091701122E+03 0.  0.
         23    2    4    4    0    0  0.11891107995E+03  0.55231402834E+03  0.50527504546E+03  0.76347302224E+03  0.91638165090E+02 0.  0.
         23    2    4    4    0    0  0.42950734364E+02 -0.33491327398E+03  0.26186628226E+02  0.35063588963E+03  0.90819166095E+02 0.  0.
          2    1    3    3  502    0 -0.86138932367E+02 -0.15709229440E+03 -0.19746080087E+03  0.26662459097E+03  0.00000000000E+00 0. -1.
         -3    1    3    3    0  502 -0.75722881952E+02 -0.60308459955E+02 -0.18286628149E+03  0.20690853559E+03  0.00000000000E+00 0.  1.
         11    1    5    5    0    0  0.11839250612E+03  0.55035597469E+03  0.48488260964E+03  0.74298023494E+03  0.00000000000E+00 0. -1.
        -11    1    5    5    0    0  0.51857383360E+00  0.19580536470E+01  0.20392435818E+02  0.20492787305E+02  0.00000000000E+00 0.  1.
          1    1    6    6  503    0 -0.13854770654E+01 -0.23127796167E+03 -0.12078390851E+02  0.23159728545E+03  0.00000000000E+00 0. -1.
         -1    1    6    6    0  503  0.44336211429E+02 -0.10363531231E+03  0.38265019077E+02  0.11903860419E+03  0.00000000000E+00 0.  1.
<mgrwt>
<rscale>  0 0.15804321E+04</rscale>
<asrwt>0</asrwt>
<pdfrwt beam="1">  1        2 0.11050057E+00 0.15804321E+04</pdfrwt>
<pdfrwt beam="2">  1       -1 0.13375205E+00 0.15804321E+04</pdfrwt>
<totfact> 0.20518365E+01</totfact>
</mgrwt>
</event>
<event>
12    6  0.1611689E-007  0.2420318E+04  0.7818608E-02  0.8431936E-01
          2   -1    0    0  501    0  0.00000000000E+00  0.00000000000E+00  0.13674472415E+04  0.13674472415E+04  0.00000000000E+00 0. -1.
         -1   -1    0    0    0  501 -0.00000000000E+00 -0.00000000000E+00 -0.10709621936E+04  0.10709621936E+04  0.00000000000E+00 0.  1.
         24    2    1    2    0    0 -0.10270966505E+03 -0.97290145924E+03 -0.23343813341E+03  0.10090962644E+04  0.81825326855E+02 0.  0.
        254    2    1    2    0    0  0.10270966505E+03  0.97290145924E+03  0.52992318132E+03  0.14293131706E+04  0.89723521825E+03 0.  0.
         23    2    4    4    0    0 -0.16214051933E+03 -0.71946761351E+02  0.23370683756E+03  0.30675932816E+03  0.89534993240E+02 0.  0.
         23    2    4    4    0    0  0.26485018437E+03  0.10448482206E+04  0.29621634376E+03  0.11225538424E+04  0.10261375466E+03 0.  0.
          2    1    3    3  502    0 -0.27466959342E+02 -0.30645834823E+03 -0.11246241121E+03  0.32759570661E+03  0.00000000000E+00 0. -1.
         -1    1    3    3    0  502 -0.75242705704E+02 -0.66644311101E+03 -0.12097572220E+03  0.68150055784E+03  0.00000000000E+00 0.  1.
         11    1    5    5    0    0 -0.16383845432E+03 -0.82872138741E+02  0.20100323150E+03  0.27223726704E+03  0.00000000000E+00 0.  1.
        -11    1    5    5    0    0  0.16979349965E+01  0.10925377390E+02  0.32703606055E+02  0.34522061112E+02  0.00000000000E+00 0. -1.
          2    1    6    6  503    0  0.39745160922E+02  0.17400224525E+03  0.10484987093E+02  0.17879148224E+03  0.00000000000E+00 0. -1.
         -2    1    6    6    0  503  0.22510502345E+03  0.87084597534E+03  0.28573135667E+03  0.94376236020E+03  0.00000000000E+00 0.  1.
<mgrwt>
<rscale>  0 0.24203176E+04</rscale>
<asrwt>0</asrwt>
<pdfrwt beam="1">  1        2 0.21037650E+00 0.24203176E+04</pdfrwt>
<pdfrwt beam="2">  1       -1 0.16476341E+00 0.24203176E+04</pdfrwt>
<totfact> 0.41582396E+00</totfact>
</mgrwt>
</event>
<event>
12    6  0.1611689E-007  0.1130277E+04  0.7818608E-02  0.9176175E-01
         -1   -1    0    0    0  501 -0.00000000000E+00  0.00000000000E+00  0.72743152097E+03  0.72743152097E+03  0.00000000000E+00 0.  1.
          2   -1    0    0  501    0  0.00000000000E+00 -0.00000000000E+00 -0.43905342888E+03  0.43905342888E+03  0.00000000000E+00 0. -1.
         24    2    1    2    0    0 -0.11793578536E+03  0.14506766415E+03  0.20071695035E+02  0.20503411763E+03  0.81747414642E+02 0.  0.
        254    2    1    2    0    0  0.11793578536E+03 -0.14506766415E+03  0.26830639706E+03  0.96145083222E+03  0.90412715004E+03 0.  0.
         23    2    4    4    0    0  0.10913382902E+03 -0.32083408492E+03 -0.23378825733E+03  0.42168532806E+03  0.91196841821E+02 0.  0.
         23    2    4    4    0    0  0.88019563397E+01  0.17576642077E+03  0.50209465438E+03  0.53976550416E+03  0.90974987864E+02 0.  0.
          4    1    3    3  502    0 -0.13001391815E+03  0.12564225482E+03  0.13868525018E+02  0.18133375608E+03  0.00000000000E+00 0. -1.
         -3    1    3    3    0  502  0.12078132789E+02  0.19425409333E+02  0.62031700164E+01  0.23700361551E+02  0.00000000000E+00 0.  1.
         11    1    5    5    0    0  0.11168623681E+03 -0.31686377914E+03 -0.24071453803E+03  0.41330371259E+03  0.00000000000E+00 0. -1.
        -11    1    5    5    0    0 -0.25524077894E+01 -0.39703057748E+01  0.69262807039E+01  0.83816154682E+01  0.00000000000E+00 0.  1.
          3    1    6    6  503    0  0.33792651826E+02  0.14081981444E+03  0.29961670198E+03  0.33277970426E+03  0.00000000000E+00 0. -1.
         -3    1    6    6    0  503 -0.24990695487E+02  0.34946606327E+02  0.20247795240E+03  0.20698579991E+03  0.00000000000E+00 0.  1.
<mgrwt>
<rscale>  0 0.11302766E+04</rscale>
<asrwt>0</asrwt>
<pdfrwt beam="1">  1        2 0.67546681E-01 0.11302766E+04</pdfrwt>
<pdfrwt beam="2">  1       -1 0.11191254E+00 0.11302766E+04</pdfrwt>
<totfact> 0.59454793E+01</totfact>
</mgrwt>
</event>
<event>
12    6  0.1611689E-007  0.1629191E+04  0.7818608E-02  0.8802813E-01
          2   -1    0    0  501    0  0.00000000000E+00  0.00000000000E+00  0.20559743417E+04  0.20559743417E+04  0.00000000000E+00 0. -1.
         -1   -1    0    0    0  501 -0.00000000000E+00 -0.00000000000E+00 -0.32275012590E+03  0.32275012590E+03  0.00000000000E+00 0.  1.
         24    2    1    2    0    0 -0.31847578841E+03  0.22885019875E+03  0.18838330882E+02  0.39935332564E+03  0.72999689843E+02 0.  0.
        254    2    1    2    0    0  0.31847578841E+03 -0.22885019875E+03  0.17143858850E+04  0.19793711420E+04  0.90829065501E+03 0.  0.
         23    2    4    4    0    0 -0.13119091524E+03  0.25867164351E+03  0.71122442178E+03  0.77355148611E+03  0.91758640605E+02 0.  0.
         23    2    4    4    0    0  0.44966670365E+03 -0.48752184226E+03  0.10031614632E+04  0.12058196559E+04  0.88263414225E+02 0.  0.
          4    1    3    3  502    0 -0.11733283170E+03  0.12801463139E+03  0.11329481326E+01  0.17365489575E+03  0.00000000000E+00 0. -1.
         -3    1    3    3    0  502 -0.20114295671E+03  0.10083556736E+03  0.17705382749E+02  0.22569842989E+03  0.00000000000E+00 0.  1.
         11    1    5    5    0    0 -0.80879011296E+02  0.16436830225E+03  0.32787385450E+03  0.37557904324E+03  0.00000000000E+00 0. -1.
        -11    1    5    5    0    0 -0.50311903944E+02  0.94303341255E+02  0.38335056728E+03  0.39797244287E+03  0.00000000000E+00 0.  1.
          1    1    6    6  503    0  0.42652098306E+03 -0.46970380225E+03  0.98425509131E+03  0.11710251473E+04  0.00000000000E+00 0. -1.
         -1    1    6    6    0  503  0.23145720588E+02 -0.17818040000E+02  0.18906371867E+02  0.34794508592E+02  0.00000000000E+00 0.  1.
<mgrwt>
<rscale>  0 0.16291912E+04</rscale>
<asrwt>0</asrwt>
<pdfrwt beam="1">  1        2 0.31630374E+00 0.16291912E+04</pdfrwt>
<pdfrwt beam="2">  1       -1 0.49653867E-01 0.16291912E+04</pdfrwt>
<totfact> 0.27570230E+01</totfact>
</mgrwt>
</event>
<event>
12    6  0.1611689E-007  0.3035146E+04  0.7818608E-02  0.8233765E-01
          2   -1    0    0  501    0  0.00000000000E+00  0.00000000000E+00  0.39170323351E+04  0.39170323351E+04  0.00000000000E+00 0. -1.
         -1   -1    0    0    0  501 -0.00000000000E+00 -0.00000000000E+00 -0.58795209416E+03  0.58795209416E+03  0.00000000000E+00 0.  1.
         24    2    1    2    0    0  0.22688535074E+03  0.11205355704E+04  0.36438636146E+03  0.12026178888E+04  0.80221189700E+02 0.  0.
        254    2    1    2    0    0 -0.22688535074E+03 -0.11205355704E+04  0.29646938795E+04  0.33023665405E+04  0.89952100671E+03 0.  0.
         23    2    4    4    0    0 -0.52836445578E+03 -0.96188098677E+03  0.21854049630E+04  0.24469596455E+04  0.85044833812E+02 0.  0.
         23    2    4    4    0    0  0.30147910504E+03 -0.15865458361E+03  0.77928891655E+03  0.85540689496E+03  0.91481215626E+02 0.  0.
          4    1    3    3  502    0 -0.43571511846E+01  0.53723176771E+01  0.20070948892E+00  0.69200323676E+01  0.00000000000E+00 0. -1.
         -3    1    3    3    0  502  0.23124250192E+03  0.11151632527E+04  0.36418565197E+03  0.11956978565E+04  0.00000000000E+00 0.  1.
         11    1    5    5    0    0 -0.39142363204E+03 -0.72473396839E+03  0.15560873653E+04  0.17606418356E+04  0.00000000000E+00 0. -1.
        -11    1    5    5    0    0 -0.13694082374E+03 -0.23714701838E+03  0.62931759761E+03  0.68631780991E+03  0.00000000000E+00 0.  1.
          2    1    6    6  503    0  0.21631567412E+03 -0.87465279141E+02  0.43443165059E+03  0.49312625661E+03  0.00000000000E+00 0. -1.
         -2    1    6    6    0  503  0.85163430919E+02 -0.71189304469E+02  0.34485726597E+03  0.36228063836E+03  0.00000000000E+00 0.  1.
<mgrwt>
<rscale>  0 0.30351457E+04</rscale>
<asrwt>0</asrwt>
<pdfrwt beam="1">  1        2 0.60262034E+00 0.30351457E+04</pdfrwt>
<pdfrwt beam="2">  1       -1 0.90454171E-01 0.30351457E+04</pdfrwt>
<totfact> 0.46127084E-01</totfact>
</mgrwt>
</event>
<event>
12    6  0.1611689E-007  0.1768248E+04  0.7818608E-02  0.8723369E-01
         -1   -1    0    0    0  501 -0.00000000000E+00  0.00000000000E+00  0.11017538768E+04  0.11017538768E+04  0.00000000000E+00 0.  1.
          2   -1    0    0  501    0  0.00000000000E+00 -0.00000000000E+00 -0.70948265925E+03  0.70948265925E+03  0.00000000000E+00 0. -1.
         24    2    1    2    0    0  0.70427503876E+02  0.56447992020E+03  0.43826827188E+03  0.72266762865E+03  0.81066699379E+02 0.  0.
        254    2    1    2    0    0 -0.70427503876E+02 -0.56447992020E+03 -0.45997054312E+02  0.10885689074E+04  0.92696759575E+03 0.  0.
         23    2    4    4    0    0  0.88531296041E+02 -0.64094038946E+03  0.27755978413E+03  0.70949109613E+03  0.87725757331E+02 0.  0.
         23    2    4    4    0    0 -0.15895879992E+03  0.76460469261E+02 -0.32355683844E+03  0.37907781128E+03  0.88864255339E+02 0.  0.
          4    1    3    3  502    0 -0.16567855929E+02  0.51844769220E+02  0.35912223753E+02  0.65207835116E+02  0.00000000000E+00 0. -1.
         -3    1    3    3    0  502  0.86995359805E+02  0.51263515098E+03  0.40235604813E+03  0.65745979353E+03  0.00000000000E+00 0.  1.
         11    1    5    5    0    0  0.47386650173E+02 -0.39834877336E+03  0.12589542343E+03  0.42044844808E+03  0.00000000000E+00 0. -1.
        -11    1    5    5    0    0  0.41144645868E+02 -0.24259161611E+03  0.15166436069E+03  0.28904264805E+03  0.00000000000E+00 0.  1.
          3    1    6    6  503    0 -0.21516786984E+02  0.51803912334E+02 -0.70955270187E+02  0.90450361096E+02  0.00000000000E+00 0. -1.
         -3    1    6    6    0  503 -0.13744201293E+03  0.24656556927E+02 -0.25260156825E+03  0.28862745019E+03  0.00000000000E+00 0.  1.
<mgrwt>
<rscale>  0 0.17682480E+04</rscale>
<asrwt>0</asrwt>
<pdfrwt beam="1">  1        2 0.10915118E+00 0.17682480E+04</pdfrwt>
<pdfrwt beam="2">  1       -1 0.16950060E+00 0.17682480E+04</pdfrwt>
<totfact> 0.10801462E+01</totfact>
</mgrwt>
</event>
<event>
12    6  0.1611689E-007  0.1288139E+04  0.7818608E-02  0.9039025E-01
          2   -1    0    0  501    0  0.00000000000E+00  0.00000000000E+00  0.20111055913E+04  0.20111055913E+04  0.00000000000E+00 0. -1.
         -1   -1    0    0    0  501 -0.00000000000E+00 -0.00000000000E+00 -0.20626725950E+03  0.20626725950E+03  0.00000000000E+00 0.  1.
         24    2    1    2    0    0 -0.21897831606E+03  0.25610794950E+03  0.50063271342E+03  0.60885722925E+03  0.80816008061E+02 0.  0.
        254    2    1    2    0    0  0.21897831606E+03 -0.25610794950E+03  0.13042056183E+04  0.16085156215E+04  0.87910603743E+03 0.  0.
         23    2    4    4    0    0 -0.11116093543E+03 -0.45858898014E+03  0.99370643807E+03  0.11038334975E+04  0.91297858405E+02 0.  0.
         23    2    4    4    0    0  0.33013925148E+03  0.20248103064E+03  0.31049918028E+03  0.50468212399E+03  0.91125255452E+02 0.  0.
          2    1    3    3  502    0 -0.14096478046E+03  0.15189892829E+03  0.37213071307E+03  0.42594086603E+03  0.00000000000E+00 0. -1.
         -1    1    3    3    0  502 -0.78013535596E+02  0.10420902121E+03  0.12850200035E+03  0.18291636321E+03  0.00000000000E+00 0.  1.
         11    1    5    5    0    0 -0.41253402370E+02 -0.27223749071E+03  0.66225846281E+03  0.71721779546E+03  0.00000000000E+00 0. -1.
        -11    1    5    5    0    0 -0.69907533057E+02 -0.18635148942E+03  0.33144797525E+03  0.38661570207E+03  0.00000000000E+00 0.  1.
          4    1    6    6  503    0  0.16656360999E+03  0.69529139017E+02  0.98060979877E+02  0.20541103457E+03  0.00000000000E+00 0. -1.
         -4    1    6    6    0  503  0.16357564149E+03  0.13295189162E+03  0.21243820041E+03  0.29927108943E+03  0.00000000000E+00 0.  1.
<mgrwt>
<rscale>  0 0.12881386E+04</rscale>
<asrwt>0</asrwt>
<pdfrwt beam="1">  1        2 0.30940085E+00 0.12881386E+04</pdfrwt>
<pdfrwt beam="2">  1       -1 0.31733426E-01 0.12881386E+04</pdfrwt>
<totfact> 0.68084853E+01</totfact>
</mgrwt>
</event>
<event>
12    6  0.1611689E-007  0.1782455E+04  0.7818608E-02  0.8715686E-01
          2   -1    0    0  501    0  0.00000000000E+00  0.00000000000E+00  0.13842974026E+04  0.13842974026E+04  0.00000000000E+00 0. -1.
         -1   -1    0    0    0  501 -0.00000000000E+00 -0.00000000000E+00 -0.57378294883E+03  0.57378294883E+03  0.00000000000E+00 0.  1.
         24    2    1    2    0    0 -0.33360582074E+03  0.85368119278E+02 -0.31862787691E+03  0.47598278769E+03  0.80345073349E+02 0.  0.
        254    2    1    2    0    0  0.33360582074E+03 -0.85368119278E+02  0.11291423307E+04  0.14820975638E+04  0.89614185602E+03 0.  0.
         23    2    4    4    0    0 -0.24609162277E+02 -0.27725415805E+03  0.16686980016E+02  0.29416492365E+03  0.93696680750E+02 0.  0.
         23    2    4    4    0    0  0.35821498302E+03  0.19188603877E+03  0.11124553507E+04  0.11879326401E+04  0.92134815555E+02 0.  0.
          2    1    3    3  502    0 -0.10932510496E+03  0.15699540560E+02 -0.15257999289E+03  0.18835898805E+03  0.00000000000E+00 0. -1.
         -1    1    3    3    0  502 -0.22428071578E+03  0.69668578719E+02 -0.16604788401E+03  0.28762379964E+03  0.00000000000E+00 0.  1.
         11    1    5    5    0    0 -0.29652421229E+02 -0.20678814880E+03  0.51864123455E+02  0.21524519012E+03  0.00000000000E+00 0. -1.
        -11    1    5    5    0    0  0.50432589522E+01 -0.70466009248E+02 -0.35177143440E+02  0.78919733532E+02  0.00000000000E+00 0.  1.
          1    1    6    6  503    0  0.11482427024E+03  0.10619276189E+03  0.36153110251E+03  0.39391147964E+03  0.00000000000E+00 0. -1.
         -1    1    6    6    0  503  0.24339071277E+03  0.85693276881E+02  0.75092424819E+03  0.79402116048E+03  0.00000000000E+00 0.  1.
<mgrwt>
<rscale>  0 0.17824548E+04</rscale>
<asrwt>0</asrwt>
<pdfrwt beam="1">  1        2 0.21296883E+00 0.17824548E+04</pdfrwt>
<pdfrwt beam="2">  1       -1 0.88274300E-01 0.17824548E+04</pdfrwt>
<totfact> 0.20068272E+01</totfact>
</mgrwt>
</event>
<event>
12    6  0.1611689E-007  0.1182912E+04  0.7818608E-02  0.9127947E-01
         -1   -1    0    0    0  501 -0.00000000000E+00  0.00000000000E+00  0.39224286920E+03  0.39224286920E+03  0.00000000000E+00 0.  1.
          2   -1    0    0  501    0  0.00000000000E+00 -0.00000000000E+00 -0.89184551076E+03  0.89184551076E+03  0.00000000000E+00 0. -1.
         24    2    1    2    0    0 -0.71069559750E+01 -0.73522461984E+02  0.13354672590E+03  0.17226020389E+03  0.79892356379E+02 0.  0.
        254    2    1    2    0    0  0.71069559750E+01  0.73522461984E+02 -0.63314936746E+03  0.11118281761E+04  0.91094879678E+03 0.  0.
         23    2    4    4    0    0  0.84499295088E+02  0.34287432244E+03 -0.71763068767E+03  0.80503811422E+03  0.91594921265E+02 0.  0.
         23    2    4    4    0    0 -0.77392339113E+02 -0.26935186046E+03  0.84481320216E+02  0.30679006185E+03  0.91886069105E+02 0.  0.
          2    1    3    3  502    0 -0.31748405204E+02 -0.40233093738E+02  0.26960176235E+02  0.57909534338E+02  0.00000000000E+00 0. -1.
         -1    1    3    3    0  502  0.24641449229E+02 -0.33289368246E+02  0.10658654967E+03  0.11435066956E+03  0.00000000000E+00 0.  1.
         11    1    5    5    0    0 -0.62604642330E+01 -0.31022016540E+01 -0.17196692921E+02  0.18561878002E+02  0.00000000000E+00 0. -1.
        -11    1    5    5    0    0  0.90759759320E+02  0.34597652410E+03 -0.70043399475E+03  0.78647623622E+03  0.00000000000E+00 0.  1.
          4    1    6    6  503    0  0.38340963307E+01 -0.13975040077E+03  0.58943694090E+02  0.15172090787E+03  0.00000000000E+00 0. -1.
         -4    1    6    6    0  503 -0.81226435443E+02 -0.12960145969E+03  0.25537626126E+02  0.15506915398E+03  0.00000000000E+00 0.  1.
<mgrwt>
<rscale>  0 0.11829117E+04</rscale>
<asrwt>0</asrwt>
<pdfrwt beam="1">  1        2 0.13720700E+00 0.11829117E+04</pdfrwt>
<pdfrwt beam="2">  1       -1 0.60345058E-01 0.11829117E+04</pdfrwt>
<totfact> 0.93227583E+01</totfact>
</mgrwt>
</event>
<event>
12    6  0.1611689E-007  0.1801077E+04  0.7818608E-02  0.8705727E-01
          2   -1    0    0  501    0  0.00000000000E+00  0.00000000000E+00  0.13694259592E+04  0.13694259592E+04  0.00000000000E+00 0. -1.
         -1   -1    0    0    0  501 -0.00000000000E+00 -0.00000000000E+00 -0.59219670481E+03  0.59219670481E+03  0.00000000000E+00 0.  1.
         24    2    1    2    0    0 -0.35271373873E+03  0.61021550113E+02 -0.32632828667E+03  0.49038640922E+03  0.76538020639E+02 0.  0.
        254    2    1    2    0    0  0.35271373873E+03 -0.61021550113E+02  0.11035575410E+04  0.14712362548E+04  0.90474651692E+03 0.  0.
         23    2    4    4    0    0  0.37954397395E+02  0.12342997938E+03  0.10829746594E+04  0.10944584872E+04  0.91267580451E+02 0.  0.
         23    2    4    4    0    0  0.31475934133E+03 -0.18445152949E+03  0.20582881669E+02  0.37677776758E+03  0.91880473646E+02 0.  0.
          2    1    3    3  502    0 -0.17545982522E+03  0.52727694260E+02 -0.20759540688E+03  0.27687941954E+03  0.00000000000E+00 0. -1.
         -1    1    3    3    0  502 -0.17725391351E+03  0.82938558523E+01 -0.11873287979E+03  0.21350698968E+03  0.00000000000E+00 0.  1.
         11    1    5    5    0    0  0.34295049682E+02  0.61459570845E+00  0.19016037646E+03  0.19322913066E+03  0.00000000000E+00 0.  1.
        -11    1    5    5    0    0  0.36593477135E+01  0.12281538367E+03  0.89281428292E+03  0.90122935653E+03  0.00000000000E+00 0. -1.
          2    1    6    6  503    0  0.59770362577E+02 -0.51725688705E+02  0.40133902585E+02  0.88649722229E+02  0.00000000000E+00 0.  1.
         -2    1    6    6    0  503  0.25498897875E+03 -0.13272584079E+03 -0.19551020916E+02  0.28812804535E+03  0.00000000000E+00 0. -1.
<mgrwt>
<rscale>  0 0.18010769E+04</rscale>
<asrwt>0</asrwt>
<pdfrwt beam="1">  1        2 0.21068092E+00 0.18010769E+04</pdfrwt>
<pdfrwt beam="2">  1       -1 0.91107186E-01 0.18010769E+04</pdfrwt>
<totfact> 0.19061092E+01</totfact>
</mgrwt>
</event>
<event>
12    6  0.1611689E-007  0.1219816E+04  0.7818608E-02  0.9095686E-01
         -1   -1    0    0    0  501 -0.00000000000E+00  0.00000000000E+00  0.18564751137E+03  0.18564751137E+03  0.00000000000E+00 0.  1.
          2   -1    0    0  501    0  0.00000000000E+00 -0.00000000000E+00 -0.20037319254E+04  0.20037319254E+04  0.00000000000E+00 0. -1.
         24    2    1    2    0    0  0.32955134657E+02  0.26841489909E+03 -0.34794852137E+03  0.44788482319E+03  0.80000264812E+02 0.  0.
        254    2    1    2    0    0 -0.32955134657E+02 -0.26841489909E+03 -0.14701358926E+04  0.17414946136E+04  0.89351628260E+03 0.  0.
         23    2    4    4    0    0  0.28758747349E+03 -0.82373506538E+02 -0.12749668619E+04  0.13129286035E+04  0.93536461051E+02 0.  0.
         23    2    4    4    0    0 -0.32054260815E+03 -0.18604139255E+03 -0.19516903072E+03  0.42856601001E+03  0.90658209768E+02 0.  0.
          2    1    3    3  502    0 -0.12359763931E+01  0.92670907699E+02 -0.65563514696E+02  0.11352532418E+03  0.00000000000E+00 0. -1.
         -1    1    3    3    0  502  0.34191111050E+02  0.17574399139E+03 -0.28238500667E+03  0.33435949901E+03  0.00000000000E+00 0.  1.
         11    1    5    5    0    0  0.10164681243E+03 -0.76061317086E+02 -0.55130320284E+03  0.56573193290E+03  0.00000000000E+00 0. -1.
        -11    1    5    5    0    0  0.18594066106E+03 -0.63121894523E+01 -0.72366365907E+03  0.74719667065E+03  0.00000000000E+00 0.  1.
          3    1    6    6  503    0 -0.68302636614E+02 -0.28246573843E+02 -0.81597647748E+02  0.11009675390E+03  0.00000000000E+00 0. -1.
         -3    1    6    6    0  503 -0.25223997154E+03 -0.15779481871E+03 -0.11357138297E+03  0.31846925610E+03  0.00000000000E+00 0.  1.
<mgrwt>
<rscale>  0 0.12198161E+04</rscale>
<asrwt>0</asrwt>
<pdfrwt beam="1">  1        2 0.30826646E+00 0.12198161E+04</pdfrwt>
<pdfrwt beam="2">  1       -1 0.28561155E-01 0.12198161E+04</pdfrwt>
<totfact> 0.83123001E+01</totfact>
</mgrwt>
</event>
<event>
12    6  0.1611689E-007  0.1938606E+04  0.7818608E-02  0.8635875E-01
         -1   -1    0    0    0  501 -0.00000000000E+00  0.00000000000E+00  0.74221182074E+03  0.74221182074E+03  0.00000000000E+00 0.  1.
          2   -1    0    0  501    0  0.00000000000E+00 -0.00000000000E+00 -0.12658763038E+04  0.12658763038E+04  0.00000000000E+00 0. -1.
         24    2    1    2    0    0 -0.39463604584E+03 -0.58351745151E+03 -0.50149787687E+03  0.86821990861E+03  0.77945264768E+02 0.  0.
        254    2    1    2    0    0  0.39463604584E+03  0.58351745151E+03 -0.22166606195E+02  0.11398682159E+04  0.89586715889E+03 0.  0.
         23    2    4    4    0    0 -0.17987583030E+02  0.20593823248E+02 -0.35093518428E+03  0.36327744343E+03  0.89818364716E+02 0.  0.
         23    2    4    4    0    0  0.41262362887E+03  0.56292362826E+03  0.32876857808E+03  0.77659077251E+03  0.88674571674E+02 0.  0.
          2    1    3    3  502    0 -0.35250655679E+03 -0.54786742736E+03 -0.47902331689E+03  0.80863027935E+03  0.00000000000E+00 0. -1.
         -1    1    3    3    0  502 -0.42129489049E+02 -0.35650024146E+02 -0.22474559978E+02  0.59589629260E+02  0.00000000000E+00 0.  1.
         11    1    5    5    0    0 -0.15610789021E+02 -0.24164196326E+02 -0.26309259517E+03  0.26466076164E+03  0.00000000000E+00 0. -1.
        -11    1    5    5    0    0 -0.23767940088E+01  0.44758019574E+02 -0.87842589107E+02  0.98616681788E+02  0.00000000000E+00 0.  1.
          1    1    6    6  503    0  0.26639859991E+03  0.42431566313E+03  0.21484435293E+03  0.54513309567E+03  0.00000000000E+00 0. -1.
         -1    1    6    6    0  503  0.14622502896E+03  0.13860796513E+03  0.11392422515E+03  0.23145767684E+03  0.00000000000E+00 0.  1.
<mgrwt>
<rscale>  0 0.19386061E+04</rscale>
<asrwt>0</asrwt>
<pdfrwt beam="1">  1        2 0.19475020E+00 0.19386061E+04</pdfrwt>
<pdfrwt beam="2">  1       -1 0.11418644E+00 0.19386061E+04</pdfrwt>
<totfact> 0.12865568E+01</totfact>
</mgrwt>
</event>
<event>
12    6  0.1611689E-007  0.1241700E+04  0.7818608E-02  0.9077120E-01
          2   -1    0    0  501    0  0.00000000000E+00  0.00000000000E+00  0.10045535581E+04  0.10045535581E+04  0.00000000000E+00 0. -1.
         -1   -1    0    0    0  501 -0.00000000000E+00 -0.00000000000E+00 -0.38370749041E+03  0.38370749041E+03  0.00000000000E+00 0.  1.
         24    2    1    2    0    0  0.10066890564E+03 -0.22200713397E+03  0.31614320866E+03  0.40706921425E+03  0.79607918623E+02 0.  0.
        254    2    1    2    0    0 -0.10066890564E+03  0.22200713397E+03  0.30470285904E+03  0.98119183427E+03  0.90026228802E+03 0.  0.
         23    2    4    4    0    0 -0.16897529359E+03 -0.28790573364E+03 -0.50185976689E+02  0.34955641966E+03  0.90712165468E+02 0.  0.
         23    2    4    4    0    0  0.68306387955E+02  0.50991286761E+03  0.35488883573E+03  0.63163541461E+03  0.91325330968E+02 0.  0.
          4    1    3    3  502    0  0.82819701060E+02 -0.14965610295E+03  0.16072814329E+03  0.23471171270E+03  0.00000000000E+00 0. -1.
         -3    1    3    3    0  502  0.17849204579E+02 -0.72351031022E+02  0.15541506538E+03  0.17235750155E+03  0.00000000000E+00 0.  1.
         11    1    5    5    0    0 -0.24781625384E+02 -0.85575826107E+02  0.20143306854E+02  0.91340592190E+02  0.00000000000E+00 0. -1.
        -11    1    5    5    0    0 -0.14419366821E+03 -0.20232990753E+03 -0.70329283543E+02  0.25821582747E+03  0.00000000000E+00 0.  1.
          1    1    6    6  503    0 -0.18389823981E+02  0.87847138432E+02  0.82297090143E+02  0.12177075348E+03  0.00000000000E+00 0. -1.
         -1    1    6    6    0  503  0.86696211936E+02  0.42206572918E+03  0.27259174559E+03  0.50986466113E+03  0.00000000000E+00 0.  1.
<mgrwt>
<rscale>  0 0.12417000E+04</rscale>
<asrwt>0</asrwt>
<pdfrwt beam="1">  1        2 0.15454670E+00 0.12417000E+04</pdfrwt>
<pdfrwt beam="2">  1       -1 0.59031922E-01 0.12417000E+04</pdfrwt>
<totfact> 0.81688174E+01</totfact>
</mgrwt>
</event>
<event>
12    6  0.1611689E-007  0.1336795E+04  0.7818608E-02  0.9000885E-01
         -3   -1    0    0    0  501 -0.00000000000E+00  0.00000000000E+00  0.53310593745E+03  0.53310593745E+03  0.00000000000E+00 0.  1.
          4   -1    0    0  501    0  0.00000000000E+00 -0.00000000000E+00 -0.83802353146E+03  0.83802353146E+03  0.00000000000E+00 0. -1.
         24    2    1    2    0    0 -0.10057940173E+03 -0.19389691584E+03  0.20901840864E+03  0.31370690533E+03  0.83732295324E+02 0.  0.
        254    2    1    2    0    0  0.10057940173E+03  0.19389691584E+03 -0.51393600264E+03  0.10574225636E+04  0.89794211011E+03 0.  0.
         23    2    4    4    0    0 -0.14825738704E+03  0.49145440146E+03 -0.25042970083E+03  0.57844508305E+03  0.91520475960E+02 0.  0.
         23    2    4    4    0    0  0.24883678877E+03 -0.29755748562E+03 -0.26350630181E+03  0.47897748053E+03  0.97589195417E+02 0.  0.
          2    1    3    3  502    0 -0.26556829052E+02 -0.49714536967E+02  0.10334799433E+02  0.57302778593E+02  0.00000000000E+00 0. -1.
         -1    1    3    3    0  502 -0.74022572679E+02 -0.14418237887E+03  0.19868360920E+03  0.25640412674E+03  0.00000000000E+00 0.  1.
         11    1    5    5    0    0 -0.15170998847E+03  0.45957940149E+03 -0.25330818005E+03  0.54625468507E+03  0.00000000000E+00 0.  1.
        -11    1    5    5    0    0  0.34526014246E+01  0.31874999966E+02  0.28784792260E+01  0.32190397980E+02  0.00000000000E+00 0. -1.
          2    1    6    6  503    0  0.15006800354E+03 -0.19499238128E+03 -0.22006693591E+03  0.33010890737E+03  0.00000000000E+00 0. -1.
         -2    1    6    6    0  503  0.98768785227E+02 -0.10256510434E+03 -0.43439365905E+02  0.14886857315E+03  0.00000000000E+00 0.  1.
<mgrwt>
<rscale>  0 0.13367952E+04</rscale>
<asrwt>0</asrwt>
<pdfrwt beam="1">  1        4 0.12892670E+00 0.13367952E+04</pdfrwt>
<pdfrwt beam="2">  1       -3 0.82016299E-01 0.13367952E+04</pdfrwt>
<totfact> 0.13580367E+00</totfact>
</mgrwt>
</event>
<event>
12    6  0.1611689E-007  0.1627228E+04  0.7818608E-02  0.8803993E-01
         -1   -1    0    0    0  501 -0.00000000000E+00  0.00000000000E+00  0.50301687452E+03  0.50301687452E+03  0.00000000000E+00 0.  1.
          2   -1    0    0  501    0  0.00000000000E+00 -0.00000000000E+00 -0.13159959053E+04  0.13159959053E+04  0.00000000000E+00 0. -1.
         24    2    1    2    0    0 -0.36292255307E+03  0.29861915146E+03  0.57815128797E+02  0.48039504207E+03  0.80935963473E+02 0.  0.
        254    2    1    2    0    0  0.36292255307E+03 -0.29861915146E+03 -0.87079415953E+03  0.13386177377E+04  0.90151472662E+03 0.  0.
         23    2    4    4    0    0  0.31466090250E+03 -0.55451737834E+03 -0.84292027592E+03  0.10613688545E+04  0.97407635045E+02 0.  0.
         23    2    4    4    0    0  0.48261650566E+02  0.25589822688E+03 -0.27873883611E+02  0.27724888319E+03  0.90977471967E+02 0.  0.
          4    1    3    3  502    0 -0.11947445712E+03  0.75732534329E+02 -0.15438603810E+02  0.14229516207E+03  0.00000000000E+00 0. -1.
         -3    1    3    3    0  502 -0.24344809594E+03  0.22288661713E+03  0.73253732607E+02  0.33809988000E+03  0.00000000000E+00 0.  1.
         11    1    5    5    0    0  0.26466317783E+02 -0.55997117943E+02 -0.13721403303E+03  0.15054512299E+03  0.00000000000E+00 0. -1.
        -11    1    5    5    0    0  0.28819458472E+03 -0.49852026040E+03 -0.70570624289E+03  0.91082373154E+03  0.00000000000E+00 0.  1.
          1    1    6    6  503    0  0.70136230122E+02  0.23582425652E+03 -0.27418819398E+02  0.24755597831E+03  0.00000000000E+00 0. -1.
         -1    1    6    6    0  503 -0.21874579556E+02  0.20073970360E+02 -0.45506421322E+00  0.29692904880E+02  0.00000000000E+00 0.  1.
<mgrwt>
<rscale>  0 0.16272285E+04</rscale>
<asrwt>0</asrwt>
<pdfrwt beam="1">  1        2 0.20246091E+00 0.16272285E+04</pdfrwt>
<pdfrwt beam="2">  1       -1 0.77387213E-01 0.16272285E+04</pdfrwt>
<totfact> 0.29545264E+01</totfact>
</mgrwt>
</event>
<event>
12    6  0.1611689E-007  0.1886372E+04  0.7818608E-02  0.8661670E-01
          2   -1    0    0  501    0  0.00000000000E+00  0.00000000000E+00  0.12290600684E+04  0.12290600684E+04  0.00000000000E+00 0. -1.
         -1   -1    0    0    0  501 -0.00000000000E+00 -0.00000000000E+00 -0.72380471924E+03  0.72380471924E+03  0.00000000000E+00 0.  1.
         24    2    1    2    0    0 -0.14390563535E+03 -0.66233434801E+03 -0.10504396434E+03  0.69060077126E+03  0.80619913050E+02 0.  0.
        254    2    1    2    0    0  0.14390563535E+03  0.66233434801E+03  0.61029931350E+03  0.12622640164E+04  0.87261078066E+03 0.  0.
         23    2    4    4    0    0  0.21553041498E+03  0.62659760700E+03  0.29889799004E+02  0.66957815647E+03  0.91452647048E+02 0.  0.
         23    2    4    4    0    0 -0.71624779625E+02  0.35736741010E+02  0.58040951450E+03  0.59268585990E+03  0.89409732670E+02 0.  0.
          2    1    3    3  502    0 -0.10790048610E+02 -0.19934610312E+03 -0.49353316441E+02  0.20564786364E+03  0.00000000000E+00 0. -1.
         -1    1    3    3    0  502 -0.13311558674E+03 -0.46298824490E+03 -0.55690647897E+02  0.48495290762E+03  0.00000000000E+00 0.  1.
         11    1    5    5    0    0  0.46066532674E+02  0.15194093115E+03 -0.31457915029E+02  0.16185725936E+03  0.00000000000E+00 0. -1.
        -11    1    5    5    0    0  0.16946388231E+03  0.47465667586E+03  0.61347714033E+02  0.50772089711E+03  0.00000000000E+00 0.  1.
          1    1    6    6  503    0 -0.33570230172E+01  0.32658011234E+02  0.65558471189E+02  0.73319359284E+02  0.00000000000E+00 0. -1.
         -1    1    6    6    0  503 -0.68267756607E+02  0.30787297768E+01  0.51485104331E+03  0.51936650062E+03  0.00000000000E+00 0.  1.
<mgrwt>
<rscale>  0 0.18863716E+04</rscale>
<asrwt>0</asrwt>
<pdfrwt beam="1">  1        2 0.18908616E+00 0.18863716E+04</pdfrwt>
<pdfrwt beam="2">  1       -1 0.11135457E+00 0.18863716E+04</pdfrwt>
<totfact> 0.14424398E+01</totfact>
</mgrwt>
</event>
<event>
12    6  0.1611689E-007  0.2083164E+04  0.7818608E-02  0.8568696E-01
          2   -1    0    0  501    0  0.00000000000E+00  0.00000000000E+00  0.88965116417E+03  0.88965116417E+03  0.00000000000E+00 0. -1.
         -1   -1    0    0    0  501 -0.00000000000E+00 -0.00000000000E+00 -0.12194591697E+04  0.12194591697E+04  0.00000000000E+00 0.  1.
         24    2    1    2    0    0  0.92272043909E+02 -0.82282083190E+03  0.12981310034E+02  0.83193902908E+03  0.80036130600E+02 0.  0.
        254    2    1    2    0    0 -0.92272043909E+02  0.82282083190E+03 -0.34278931561E+03  0.12771713048E+04  0.91000756894E+03 0.  0.
         23    2    4    4    0    0  0.81177646974E+02 -0.17142658984E+03  0.51356513326E+01  0.20639322070E+03  0.81208993128E+02 0.  0.
         23    2    4    4    0    0 -0.17344969088E+03  0.99424742173E+03 -0.34792496694E+03  0.10707780841E+04  0.83073413152E+02 0.  0.
          2    1    3    3  502    0  0.77462817856E+02 -0.71466685525E+03 -0.15869024720E+02  0.71902783540E+03  0.00000000000E+00 0. -1.
         -3    1    3    3    0  502  0.14809226053E+02 -0.10815397665E+03  0.28850334755E+02  0.11291119367E+03  0.00000000000E+00 0.  1.
         11    1    5    5    0    0  0.86496951951E+02 -0.10050490217E+03  0.18935371708E+02  0.13394590833E+03  0.00000000000E+00 0. -1.
        -11    1    5    5    0    0 -0.53193049763E+01 -0.70921687668E+02 -0.13799720375E+02  0.72447312370E+02  0.00000000000E+00 0.  1.
          1    1    6    6  503    0 -0.17089767818E+03  0.99533549607E+03 -0.34686126391E+03  0.10678068657E+04  0.00000000000E+00 0. -1.
         -1    1    6    6    0  503 -0.25520127072E+01 -0.10880743349E+01 -0.10637030358E+01  0.29712183973E+01  0.00000000000E+00 0.  1.
<mgrwt>
<rscale>  0 0.20831642E+04</rscale>
<asrwt>0</asrwt>
<pdfrwt beam="1">  1        2 0.13686941E+00 0.20831642E+04</pdfrwt>
<pdfrwt beam="2">  1       -1 0.18760910E+00 0.20831642E+04</pdfrwt>
<totfact> 0.57628474E+00</totfact>
</mgrwt>
</event>
<event>
12    6  0.1611689E-007  0.2415112E+04  0.7818608E-02  0.8433868E-01
         -1   -1    0    0    0  501 -0.00000000000E+00  0.00000000000E+00  0.82599441325E+03  0.82599441325E+03  0.00000000000E+00 0.  1.
          2   -1    0    0  501    0  0.00000000000E+00 -0.00000000000E+00 -0.17653766466E+04  0.17653766466E+04  0.00000000000E+00 0. -1.
         24    2    1    2    0    0 -0.36211712366E+03  0.96872030358E+03 -0.31314838503E+03  0.10835381027E+04  0.80281200611E+02 0.  0.
        254    2    1    2    0    0  0.36211712366E+03 -0.96872030358E+03 -0.62623384828E+03  0.15078329571E+04  0.90102361564E+03 0.  0.
         23    2    4    4    0    0 -0.26521087544E+03 -0.49215588870E+03 -0.36187382055E+03  0.67191696570E+03  0.89249759471E+02 0.  0.
         23    2    4    4    0    0  0.62732799910E+03 -0.47656441489E+03 -0.26436002774E+03  0.83591599139E+03  0.90638073754E+02 0.  0.
          4    1    3    3  502    0 -0.56510302750E+02  0.12646903626E+03 -0.69722611087E+02  0.15507763845E+03  0.00000000000E+00 0. -1.
         -3    1    3    3    0  502 -0.30560682091E+03  0.84225126732E+03 -0.24342577394E+03  0.92846046427E+03  0.00000000000E+00 0.  1.
         11    1    5    5    0    0 -0.25560112346E+03 -0.48867461352E+03 -0.34025371012E+03  0.64800262303E+03  0.00000000000E+00 0.  1.
        -11    1    5    5    0    0 -0.96097519801E+01 -0.34812751780E+01 -0.21620110433E+02  0.23914342665E+02  0.00000000000E+00 0. -1.
          2    1    6    6  503    0  0.29099842330E+03 -0.16533994709E+03 -0.10540489827E+03  0.35089538761E+03  0.00000000000E+00 0. -1.
         -2    1    6    6    0  503  0.33632957580E+03 -0.31122446779E+03 -0.15895512946E+03  0.48502060378E+03  0.00000000000E+00 0.  1.
<mgrwt>
<rscale>  0 0.24151118E+04</rscale>
<asrwt>0</asrwt>
<pdfrwt beam="1">  1        2 0.27159640E+00 0.24151118E+04</pdfrwt>
<pdfrwt beam="2">  1       -1 0.12707606E+00 0.24151118E+04</pdfrwt>
<totfact> 0.49525956E+00</totfact>
</mgrwt>
</event>
<event>
12    6  0.1611689E-007  0.1386225E+04  0.7818608E-02  0.8963850E-01
          2   -1    0    0  501    0  0.00000000000E+00  0.00000000000E+00  0.12109842049E+04  0.12109842049E+04  0.00000000000E+00 0. -1.
         -1   -1    0    0    0  501 -0.00000000000E+00 -0.00000000000E+00 -0.39670626247E+03  0.39670626247E+03  0.00000000000E+00 0.  1.
         24    2    1    2    0    0  0.33963289901E+03 -0.57459830758E+02  0.32991368020E+03  0.48376550020E+03  0.80832447479E+02 0.  0.
        254    2    1    2    0    0 -0.33963289901E+03  0.57459830758E+02  0.48436426222E+03  0.11239249672E+04  0.95391113582E+03 0.  0.
         23    2    4    4    0    0 -0.29322304740E+03  0.27345045394E+03 -0.15658215368E+03  0.44006950687E+03  0.91587628763E+02 0.  0.
         23    2    4    4    0    0 -0.46409851602E+02 -0.21599062318E+03  0.64094641590E+03  0.68385546028E+03  0.89666932991E+02 0.  0.
          2    1    3    3  502    0  0.28047979958E+03 -0.37164374124E+02  0.30614464834E+03  0.41686287240E+03  0.00000000000E+00 0. -1.
         -1    1    3    3    0  502  0.59153099422E+02 -0.20295456635E+02  0.23769031858E+02  0.66902627802E+02  0.00000000000E+00 0.  1.
         11    1    5    5    0    0 -0.53566379895E+02  0.10207402028E+03 -0.60395893718E+02  0.13013887448E+03  0.00000000000E+00 0.  1.
        -11    1    5    5    0    0 -0.23965666751E+03  0.17137643365E+03 -0.96186259962E+02  0.30993063240E+03  0.00000000000E+00 0. -1.
          3    1    6    6  503    0  0.11995056395E+02 -0.14113073725E+03  0.42428483803E+03  0.44730234759E+03  0.00000000000E+00 0. -1.
         -3    1    6    6    0  503 -0.58404907997E+02 -0.74859885930E+02  0.21666157787E+03  0.23655311269E+03  0.00000000000E+00 0.  1.
<mgrwt>
<rscale>  0 0.13862251E+04</rscale>
<asrwt>0</asrwt>
<pdfrwt beam="1">  1        2 0.18630526E+00 0.13862251E+04</pdfrwt>
<pdfrwt beam="2">  1       -1 0.61031733E-01 0.13862251E+04</pdfrwt>
<totfact> 0.56425949E+01</totfact>
</mgrwt>
</event>
<event>
12    6  0.1611689E-007  0.1210289E+04  0.7818608E-02  0.9103898E-01
          2   -1    0    0  501    0  0.00000000000E+00  0.00000000000E+00  0.14940093164E+04  0.14940093164E+04  0.00000000000E+00 0. -1.
         -1   -1    0    0    0  501 -0.00000000000E+00 -0.00000000000E+00 -0.24511236404E+03  0.24511236404E+03  0.00000000000E+00 0.  1.
         24    2    1    2    0    0 -0.11149124736E+03 -0.19046395123E+03  0.37288667307E+03  0.44053016755E+03  0.79470388269E+02 0.  0.
        254    2    1    2    0    0  0.11149124736E+03  0.19046395123E+03  0.87601027934E+03  0.12985915129E+04  0.93286606380E+03 0.  0.
         23    2    4    4    0    0  0.21278922713E+03  0.20070137908E+03  0.10404853834E+04  0.10845366357E+04  0.89719464669E+02 0.  0.
         23    2    4    4    0    0 -0.10129797977E+03 -0.10237427852E+02 -0.16447510407E+03  0.21405487723E+03  0.91658851038E+02 0.  0.
          4    1    3    3  502    0 -0.11932230378E+03 -0.17609156815E+03  0.36477266568E+03  0.42226194498E+03  0.00000000000E+00 0. -1.
         -3    1    3    3    0  502  0.78310564142E+01 -0.14372383076E+02  0.81140073910E+01  0.18268222568E+02  0.00000000000E+00 0.  1.
         11    1    5    5    0    0  0.86499467394E+02  0.29164838498E+02  0.26259962580E+03  0.27801314561E+03  0.00000000000E+00 0.  1.
        -11    1    5    5    0    0  0.12628975974E+03  0.17153654058E+03  0.77788575761E+03  0.80652349009E+03  0.00000000000E+00 0. -1.
          2    1    6    6  503    0 -0.42452530017E+02 -0.25526554637E+02 -0.14001571224E+03  0.14852010628E+03  0.00000000000E+00 0. -1.
         -2    1    6    6    0  503 -0.58845449754E+02  0.15289126786E+02 -0.24459391830E+02  0.65534770948E+02  0.00000000000E+00 0.  1.
<mgrwt>
<rscale>  0 0.12102895E+04</rscale>
<asrwt>0</asrwt>
<pdfrwt beam="1">  1        2 0.22984758E+00 0.12102895E+04</pdfrwt>
<pdfrwt beam="2">  1       -1 0.37709596E-01 0.12102895E+04</pdfrwt>
<totfact> 0.97447229E+01</totfact>
</mgrwt>
</event>
<event>
12    6  0.1611689E-007  0.1468548E+04  0.7818608E-02  0.8905642E-01
          2   -1    0    0  501    0  0.00000000000E+00  0.00000000000E+00  0.34317768420E+04  0.34317768420E+04  0.00000000000E+00 0. -1.
         -1   -1    0    0    0  501 -0.00000000000E+00 -0.00000000000E+00 -0.15710766475E+03  0.15710766475E+03  0.00000000000E+00 0.  1.
         24    2    1    2    0    0  0.16575148985E+03 -0.22465302998E+02  0.20629616928E+04  0.20713110994E+04  0.80873223369E+02 0.  0.
        254    2    1    2    0    0 -0.16575148985E+03  0.22465302998E+02  0.12117074844E+04  0.15175734074E+04  0.89822924281E+03 0.  0.
         23    2    4    4    0    0 -0.44173816982E+03  0.23182136693E+03  0.45941310889E+03  0.68439855779E+03  0.92017522438E+02 0.  0.
         23    2    4    4    0    0  0.27598667997E+03 -0.20935606394E+03  0.75229437554E+03  0.83317484957E+03  0.90746313721E+02 0.  0.
          2    1    3    3  502    0  0.17452900751E+03 -0.19778951084E+02  0.19040101463E+04  0.19120947201E+04  0.00000000000E+00 0. -1.
         -1    1    3    3    0  502 -0.87775176618E+01 -0.26863519141E+01  0.15895154650E+03  0.15921637930E+03  0.00000000000E+00 0.  1.
         11    1    5    5    0    0 -0.14366942852E+03  0.61112433178E+02  0.20123481582E+03  0.25469802762E+03  0.00000000000E+00 0. -1.
        -11    1    5    5    0    0 -0.29806874130E+03  0.17070893376E+03  0.25817829308E+03  0.42970053016E+03  0.00000000000E+00 0.  1.
          1    1    6    6  503    0  0.38990122323E+02 -0.61031137447E+02  0.99843683158E+02  0.12334419501E+03  0.00000000000E+00 0. -1.
         -1    1    6    6    0  503  0.23699655764E+03 -0.14832492649E+03  0.65245069238E+03  0.70983065455E+03  0.00000000000E+00 0.  1.
<mgrwt>
<rscale>  0 0.14685482E+04</rscale>
<asrwt>0</asrwt>
<pdfrwt beam="1">  1        2 0.52796561E+00 0.14685482E+04</pdfrwt>
<pdfrwt beam="2">  1       -1 0.24170412E-01 0.14685482E+04</pdfrwt>
<totfact> 0.15049679E+01</totfact>
</mgrwt>
</event>
<event>
12    6  0.1611689E-007  0.2350554E+04  0.7818608E-02  0.8458251E-01
         -1   -1    0    0    0  501 -0.00000000000E+00  0.00000000000E+00  0.50935304112E+03  0.50935304112E+03  0.00000000000E+00 0.  1.
          2   -1    0    0  501    0  0.00000000000E+00 -0.00000000000E+00 -0.27118255069E+04  0.27118255069E+04  0.00000000000E+00 0. -1.
         24    2    1    2    0    0  0.81071490091E+01  0.43117416704E+03  0.29613545631E+03  0.52895742148E+03  0.78248687308E+02 0.  0.
        254    2    1    2    0    0 -0.81071490091E+01 -0.43117416704E+03 -0.24986079221E+04  0.26922211265E+04  0.90500616442E+03 0.  0.
         23    2    4    4    0    0  0.24536497717E+03 -0.62071488847E+03 -0.16788583263E+04  0.18089858560E+04  0.91507391580E+02 0.  0.
         23    2    4    4    0    0 -0.25347212618E+03  0.18954072143E+03 -0.81974959580E+03  0.88323527052E+03  0.89114193289E+02 0.  0.
          4    1    3    3  502    0 -0.29020354134E+02  0.12817834930E+03  0.11032849205E+03  0.17159325844E+03  0.00000000000E+00 0. -1.
         -3    1    3    3    0  502  0.37127503143E+02  0.30299581775E+03  0.18580696426E+03  0.35736416304E+03  0.00000000000E+00 0.  1.
         11    1    5    5    0    0  0.65510512904E+02 -0.28877457302E+03 -0.72721233055E+03  0.78518797433E+03  0.00000000000E+00 0. -1.
        -11    1    5    5    0    0  0.17985446427E+03 -0.33194031545E+03 -0.95164599573E+03  0.10237978817E+04  0.00000000000E+00 0.  1.
          3    1    6    6  503    0 -0.28092565960E+02  0.61381713214E+02 -0.21215348849E+03  0.22263425087E+03  0.00000000000E+00 0. -1.
         -3    1    6    6    0  503 -0.22537956022E+03  0.12815900821E+03 -0.60759610730E+03  0.66060101965E+03  0.00000000000E+00 0.  1.
<mgrwt>
<rscale>  0 0.23505545E+04</rscale>
<asrwt>0</asrwt>
<pdfrwt beam="1">  1        2 0.41720393E+00 0.23505545E+04</pdfrwt>
<pdfrwt beam="2">  1       -1 0.78362005E-01 0.23505545E+04</pdfrwt>
<totfact> 0.43749204E+00</totfact>
</mgrwt>
</event>
<event>
12    6  0.1611689E-007  0.2353360E+04  0.7818608E-02  0.8457174E-01
         -1   -1    0    0    0  501 -0.00000000000E+00  0.00000000000E+00  0.80905461234E+03  0.80905461234E+03  0.00000000000E+00 0.  1.
          2   -1    0    0  501    0  0.00000000000E+00 -0.00000000000E+00 -0.17113499145E+04  0.17113499145E+04  0.00000000000E+00 0. -1.
         24    2    1    2    0    0 -0.10002320649E+04  0.14501633784E+03 -0.45301931524E+03  0.11105207527E+04  0.80845038921E+02 0.  0.
        254    2    1    2    0    0  0.10002320649E+04 -0.14501633784E+03 -0.44927598693E+03  0.14098837742E+04  0.87431654592E+03 0.  0.
         23    2    4    4    0    0  0.75897490691E+03 -0.20467232887E+03 -0.69185258933E+03  0.10506495659E+04  0.85269182136E+02 0.  0.
         23    2    4    4    0    0  0.24125715794E+03  0.59655991028E+02  0.24257660240E+03  0.35923420829E+03  0.91880111270E+02 0.  0.
          4    1    3    3  502    0 -0.56877860732E+03  0.69283166322E+02 -0.29805694713E+03  0.64586934051E+03  0.00000000000E+00 0. -1.
         -3    1    3    3    0  502 -0.43145345753E+03  0.75733171523E+02 -0.15496236811E+03  0.46465141215E+03  0.00000000000E+00 0.  1.
         11    1    5    5    0    0  0.73119083881E+03 -0.20717085008E+03 -0.68183661717E+03  0.10210097827E+04  0.00000000000E+00 0. -1.
        -11    1    5    5    0    0  0.27784068102E+02  0.24985212112E+01 -0.10015972155E+02  0.29639783176E+02  0.00000000000E+00 0.  1.
          2    1    6    6  503    0  0.17101846911E+03  0.74875371375E+02  0.20795242173E+03  0.27945992149E+03  0.00000000000E+00 0. -1.
         -2    1    6    6    0  503  0.70238688832E+02 -0.15219380347E+02  0.34624180673E+02  0.79774286799E+02  0.00000000000E+00 0.  1.
<mgrwt>
<rscale>  0 0.23533598E+04</rscale>
<asrwt>0</asrwt>
<pdfrwt beam="1">  1        2 0.26328460E+00 0.23533598E+04</pdfrwt>
<pdfrwt beam="2">  1       -1 0.12446994E+00 0.23533598E+04</pdfrwt>
<totfact> 0.56184132E+00</totfact>
</mgrwt>
</event>
<event>
12    6  0.1611689E-007  0.2673649E+04  0.7818608E-02  0.8343606E-01
          2   -1    0    0  501    0  0.00000000000E+00  0.00000000000E+00  0.28412830671E+04  0.28412830671E+04  0.00000000000E+00 0. -1.
         -1   -1    0    0    0  501 -0.00000000000E+00 -0.00000000000E+00 -0.62897611084E+03  0.62897611084E+03  0.00000000000E+00 0.  1.
         24    2    1    2    0    0 -0.81019881555E+03 -0.35561155212E+03 -0.39046595020E+02  0.88927174361E+03  0.79986878116E+02 0.  0.
        254    2    1    2    0    0  0.81019881555E+03  0.35561155212E+03  0.22513535512E+04  0.25809874343E+04  0.90001201469E+03 0.  0.
         23    2    4    4    0    0  0.81374176417E+03  0.54694784787E+03  0.14551447391E+04  0.17570980152E+04  0.92841888119E+02 0.  0.
         23    2    4    4    0    0 -0.35429486210E+01 -0.19133629575E+03  0.79620881216E+03  0.82388941913E+03  0.90681706168E+02 0.  0.
          4    1    3    3  502    0 -0.44885714385E+01 -0.10969201079E+02 -0.28941828218E+01  0.12200284426E+02  0.00000000000E+00 0. -1.
         -3    1    3    3    0  502 -0.80571024411E+03 -0.34464235104E+03 -0.36152412198E+02  0.87707145918E+03  0.00000000000E+00 0.  1.
         11    1    5    5    0    0  0.45496828386E+03  0.35328826111E+03  0.89317511914E+03  0.10628125555E+04  0.00000000000E+00 0. -1.
        -11    1    5    5    0    0  0.35877348032E+03  0.19365958676E+03  0.56196961993E+03  0.69428545963E+03  0.00000000000E+00 0.  1.
          1    1    6    6  503    0  0.36906946992E+02 -0.14109496956E+03  0.59402377477E+03  0.61166507025E+03  0.00000000000E+00 0. -1.
         -1    1    6    6    0  503 -0.40449895613E+02 -0.50241326188E+02  0.20218503739E+03  0.21222434887E+03  0.00000000000E+00 0.  1.
<mgrwt>
<rscale>  0 0.26736486E+04</rscale>
<asrwt>0</asrwt>
<pdfrwt beam="1">  1        2 0.43712047E+00 0.26736486E+04</pdfrwt>
<pdfrwt beam="2">  1       -1 0.96765557E-01 0.26736486E+04</pdfrwt>
<totfact> 0.22402553E+00</totfact>
</mgrwt>
</event>
<event>
12    6  0.1611689E-007  0.1727580E+04  0.7818608E-02  0.8745789E-01
         -1   -1    0    0    0  501 -0.00000000000E+00  0.00000000000E+00  0.68051012821E+03  0.68051012821E+03  0.00000000000E+00 0.  1.
          2   -1    0    0  501    0  0.00000000000E+00 -0.00000000000E+00 -0.10964323597E+04  0.10964323597E+04  0.00000000000E+00 0. -1.
         24    2    1    2    0    0  0.66868901308E+02 -0.61183881417E+03 -0.38793316756E+02  0.62182588987E+03  0.79651311313E+02 0.  0.
        254    2    1    2    0    0 -0.66868901308E+02  0.61183881417E+03 -0.37712891470E+03  0.11551165980E+04  0.90180372155E+03 0.  0.
         23    2    4    4    0    0  0.29714290537E+03  0.44904487260E+03 -0.48735769452E+03  0.73200613938E+03  0.91543770186E+02 0.  0.
         23    2    4    4    0    0 -0.36401180668E+03  0.16279394158E+03  0.11022877983E+03  0.42311045863E+03  0.88688293916E+02 0.  0.
          2    1    3    3  502    0  0.69802081982E+02 -0.51479641176E+03 -0.58399445724E+02  0.52277927605E+03  0.00000000000E+00 0. -1.
         -1    1    3    3    0  502 -0.29331806741E+01 -0.97042402414E+02  0.19606128968E+02  0.99046613815E+02  0.00000000000E+00 0.  1.
         11    1    5    5    0    0  0.78920231975E+02  0.93892709146E+02 -0.65921317060E+02  0.13924749150E+03  0.00000000000E+00 0.  1.
        -11    1    5    5    0    0  0.21822267340E+03  0.35515216345E+03 -0.42143637746E+03  0.59275864788E+03  0.00000000000E+00 0. -1.
          3    1    6    6  503    0 -0.28801667557E+03  0.16498237133E+03  0.98149635903E+02  0.34613023457E+03  0.00000000000E+00 0. -1.
         -3    1    6    6    0  503 -0.75995131112E+02 -0.21884297538E+01  0.12079143925E+02  0.76980224055E+02  0.00000000000E+00 0.  1.
<mgrwt>
<rscale>  0 0.17275802E+04</rscale>
<asrwt>0</asrwt>
<pdfrwt beam="1">  1        2 0.16868190E+00 0.17275802E+04</pdfrwt>
<pdfrwt beam="2">  1       -1 0.10469387E+00 0.17275802E+04</pdfrwt>
<totfact> 0.20330390E+01</totfact>
</mgrwt>
</event>
<event>
12    6  0.1611689E-007  0.1112667E+04  0.7818608E-02  0.9192933E-01
         -1   -1    0    0    0  501 -0.00000000000E+00  0.00000000000E+00  0.11721230050E+03  0.11721230050E+03  0.00000000000E+00 0.  1.
          2   -1    0    0  501    0  0.00000000000E+00 -0.00000000000E+00 -0.26405687742E+04  0.26405687742E+04  0.00000000000E+00 0. -1.
         24    2    1    2    0    0 -0.85060587564E+02 -0.85938678058E+01 -0.31182645887E+02  0.11747020629E+03  0.74281450179E+02 0.  0.
        254    2    1    2    0    0  0.85060587564E+02  0.85938678058E+01 -0.24921738278E+04  0.26403108684E+04  0.86775684137E+03 0.  0.
         23    2    4    4    0    0 -0.18341001400E+03 -0.17005915671E+03 -0.21310435273E+04  0.21477462241E+04  0.94382083808E+02 0.  0.
         23    2    4    4    0    0  0.26847060157E+03  0.17865302452E+03 -0.36113030047E+03  0.49256464430E+03  0.90617149739E+02 0.  0.
          4    1    3    3  502    0 -0.58733423143E+00  0.43911450637E+00 -0.32496924725E+02  0.32505198040E+02  0.00000000000E+00 0. -1.
         -3    1    3    3    0  502 -0.84473253333E+02 -0.90329823122E+01  0.13142788377E+01  0.84965008250E+02  0.00000000000E+00 0.  1.
         11    1    5    5    0    0 -0.39749980054E+02  0.25834045363E+01 -0.22303230284E+03  0.22656156559E+03  0.00000000000E+00 0. -1.
        -11    1    5    5    0    0 -0.14366003395E+03 -0.17264256125E+03 -0.19080112245E+04  0.19211846585E+04  0.00000000000E+00 0.  1.
          2    1    6    6  503    0  0.90614982021E+01 -0.62563489954E+01 -0.85907583551E-02  0.11011481563E+02  0.00000000000E+00 0. -1.
         -2    1    6    6    0  503  0.25940910336E+03  0.18490937351E+03 -0.36112170971E+03  0.48155316274E+03  0.00000000000E+00 0.  1.
<mgrwt>
<rscale>  0 0.11126673E+04</rscale>
<asrwt>0</asrwt>
<pdfrwt beam="1">  1        2 0.40624131E+00 0.11126673E+04</pdfrwt>
<pdfrwt beam="2">  1       -1 0.18032663E-01 0.11126673E+04</pdfrwt>
<totfact> 0.79988105E+01</totfact>
</mgrwt>
</event>
<event>
12    6  0.1611689E-007  0.1547993E+04  0.7818608E-02  0.8853151E-01
          2   -1    0    0  501    0  0.00000000000E+00  0.00000000000E+00  0.24447477996E+04  0.24447477996E+04  0.00000000000E+00 0. -1.
         -1   -1    0    0    0  501 -0.00000000000E+00 -0.00000000000E+00 -0.24504379776E+03  0.24504379776E+03  0.00000000000E+00 0.  1.
         24    2    1    2    0    0 -0.33589951854E+03  0.25442570978E+03  0.12311065024E+04  0.13039779157E+04  0.84700980003E+02 0.  0.
        254    2    1    2    0    0  0.33589951854E+03 -0.25442570978E+03  0.96859749949E+03  0.13858136817E+04  0.89707163375E+03 0.  0.
         23    2    4    4    0    0  0.10247588368E+03  0.31704800607E+03  0.48510189308E+03  0.59640010908E+03  0.96687633889E+02 0.  0.
         23    2    4    4    0    0  0.23342363486E+03 -0.57147371585E+03  0.48349560641E+03  0.78941357265E+03  0.91307097405E+02 0.  0.
          2    1    3    3  502    0 -0.31319177212E+03  0.20273641868E+03  0.10531688679E+04  0.11172984409E+04  0.00000000000E+00 0. -1.
         -3    1    3    3    0  502 -0.22707746423E+02  0.51689291094E+02  0.17793763447E+03  0.18667947483E+03  0.00000000000E+00 0.  1.
         11    1    5    5    0    0  0.22466105969E+02  0.82802002356E+01  0.14837642916E+02  0.28168125260E+02  0.00000000000E+00 0.  1.
        -11    1    5    5    0    0  0.80009777708E+02  0.30876780584E+03  0.47026425016E+03  0.56823198382E+03  0.00000000000E+00 0. -1.
          3    1    6    6  503    0  0.17233652764E+03 -0.35252480199E+03  0.34996161525E+03  0.52578203366E+03  0.00000000000E+00 0. -1.
         -3    1    6    6    0  503  0.61087107224E+02 -0.21894891386E+03  0.13353399116E+03  0.26363153898E+03  0.00000000000E+00 0.  1.
<mgrwt>
<rscale>  0 0.15479926E+04</rscale>
<asrwt>0</asrwt>
<pdfrwt beam="1">  1        2 0.37611503E+00 0.15479926E+04</pdfrwt>
<pdfrwt beam="2">  1       -1 0.37699047E-01 0.15479926E+04</pdfrwt>
<totfact> 0.27935901E+01</totfact>
</mgrwt>
</event>
<event>
12    6  0.1611689E-007  0.1754649E+04  0.7818608E-02  0.8730796E-01
          2   -1    0    0  501    0  0.00000000000E+00  0.00000000000E+00  0.13383065624E+04  0.13383065624E+04  0.00000000000E+00 0. -1.
         -1   -1    0    0    0  501 -0.00000000000E+00 -0.00000000000E+00 -0.57512844720E+03  0.57512844720E+03  0.00000000000E+00 0.  1.
         24    2    1    2    0    0  0.12522294611E+03  0.21346080115E+03  0.92699024667E+03  0.96269468632E+03  0.78891329032E+02 0.  0.
        254    2    1    2    0    0 -0.12522294611E+03 -0.21346080115E+03 -0.16381213144E+03  0.95074032331E+03  0.90323111555E+03 0.  0.
         23    2    4    4    0    0  0.13135439710E+03 -0.71044687741E+01  0.32006748312E+03  0.35850751698E+03  0.93701626828E+02 0.  0.
         23    2    4    4    0    0 -0.25657734321E+03 -0.20635633237E+03 -0.48387961456E+03  0.59223280633E+03  0.90472905016E+02 0.  0.
          4    1    3    3  502    0  0.12066685310E+03  0.13464684276E+03  0.64569276911E+03  0.67052920427E+03  0.00000000000E+00 0. -1.
         -3    1    3    3    0  502  0.45560930072E+01  0.78813958387E+02  0.28129747756E+03  0.29216548205E+03  0.00000000000E+00 0.  1.
         11    1    5    5    0    0  0.14370400698E+03 -0.15732614322E+02  0.30314970014E+03  0.33585428012E+03  0.00000000000E+00 0.  1.
        -11    1    5    5    0    0 -0.12349609880E+02  0.86281455476E+01  0.16917782975E+02  0.22653236868E+02  0.00000000000E+00 0. -1.
          3    1    6    6  503    0 -0.51861693746E+02 -0.69077643878E+02 -0.18970858061E+03  0.20844831906E+03  0.00000000000E+00 0. -1.
         -3    1    6    6    0  503 -0.20471564946E+03 -0.13727868850E+03 -0.29417103395E+03  0.38378448727E+03  0.00000000000E+00 0.  1.
<mgrwt>
<rscale>  0 0.17546489E+04</rscale>
<asrwt>0</asrwt>
<pdfrwt beam="1">  1        2 0.20589332E+00 0.17546489E+04</pdfrwt>
<pdfrwt beam="2">  1       -1 0.88481300E-01 0.17546489E+04</pdfrwt>
<totfact> 0.21272568E+01</totfact>
</mgrwt>
</event>
<event>
12    6  0.1611689E-007  0.1792230E+04  0.7818608E-02  0.8710443E-01
         -1   -1    0    0    0  501 -0.00000000000E+00  0.00000000000E+00  0.15753967697E+04  0.15753967697E+04  0.00000000000E+00 0.  1.
          2   -1    0    0  501    0  0.00000000000E+00 -0.00000000000E+00 -0.50972671552E+03  0.50972671552E+03  0.00000000000E+00 0. -1.
         24    2    1    2    0    0  0.17160814248E+03  0.61603626266E+03  0.18035290704E+03  0.66969381362E+03  0.83741276821E+02 0.  0.
        254    2    1    2    0    0 -0.17160814248E+03 -0.61603626266E+03  0.88531714713E+03  0.14154296716E+04  0.90039139976E+03 0.  0.
         23    2    4    4    0    0  0.20784855251E+03 -0.66567216247E+03  0.48924849682E+03  0.85671188326E+03  0.90943447326E+02 0.  0.
         23    2    4    4    0    0 -0.37945669500E+03  0.49635899806E+02  0.39606865031E+03  0.55871778834E+03  0.94042997180E+02 0.  0.
          2    1    3    3  502    0  0.93479985931E+02  0.38845471357E+03  0.72759508143E+02  0.40611515398E+03  0.00000000000E+00 0. -1.
         -1    1    3    3    0  502  0.78128156553E+02  0.22758154909E+03  0.10759339890E+03  0.26357865964E+03  0.00000000000E+00 0.  1.
         11    1    5    5    0    0  0.19706236834E+03 -0.57829587468E+03  0.45696657087E+03  0.76294045808E+03  0.00000000000E+00 0. -1.
        -11    1    5    5    0    0  0.10786184169E+02 -0.87376287787E+02  0.32281925951E+02  0.93771425176E+02  0.00000000000E+00 0.  1.
          4    1    6    6  503    0 -0.22544015177E+03  0.15056345924E+02  0.29380411468E+03  0.37063568823E+03  0.00000000000E+00 0. -1.
         -4    1    6    6    0  503 -0.15401654323E+03  0.34579553882E+02  0.10226453562E+03  0.18808210011E+03  0.00000000000E+00 0.  1.
<mgrwt>
<rscale>  0 0.17922297E+04</rscale>
<asrwt>0</asrwt>
<pdfrwt beam="1">  1        2 0.78419496E-01 0.17922297E+04</pdfrwt>
<pdfrwt beam="2">  1       -1 0.24236873E+00 0.17922297E+04</pdfrwt>
<totfact> 0.50841757E+00</totfact>
</mgrwt>
</event>
<event>
12    6  0.1611689E-007  0.2107374E+04  0.7818608E-02  0.8558002E-01
         -1   -1    0    0    0  501 -0.00000000000E+00  0.00000000000E+00  0.41886245058E+03  0.41886245058E+03  0.00000000000E+00 0.  1.
          2   -1    0    0  501    0  0.00000000000E+00 -0.00000000000E+00 -0.26506467092E+04  0.26506467092E+04  0.00000000000E+00 0. -1.
         24    2    1    2    0    0  0.19146292840E+03  0.36121292569E+03  0.17457242807E+03  0.45171910925E+03  0.80260764904E+02 0.  0.
        254    2    1    2    0    0 -0.19146292840E+03 -0.36121292569E+03 -0.24063566867E+04  0.26177900506E+04  0.94611807641E+03 0.  0.
         23    2    4    4    0    0 -0.25066274461E+03 -0.18073268724E+01 -0.10631758680E+03  0.28704466574E+03  0.90863264848E+02 0.  0.
         23    2    4    4    0    0  0.59199816213E+02 -0.35940559881E+03 -0.23000390999E+04  0.23307453848E+04  0.97556061236E+02 0.  0.
          4    1    3    3  502    0  0.90922995108E+02  0.14994683294E+03  0.11688101166E+03  0.21074205711E+03  0.00000000000E+00 0. -1.
         -3    1    3    3    0  502  0.10053993329E+03  0.21126609274E+03  0.57691416413E+02  0.24097705214E+03  0.00000000000E+00 0.  1.
         11    1    5    5    0    0 -0.18701290124E+03  0.29835737150E+02 -0.10370822306E+03  0.21591524257E+03  0.00000000000E+00 0. -1.
        -11    1    5    5    0    0 -0.63649843370E+02 -0.31643064023E+02 -0.26093637438E+01  0.71129423172E+02  0.00000000000E+00 0.  1.
          2    1    6    6  503    0  0.84209176948E+02 -0.31561828417E+03 -0.19945530819E+04  0.20211254496E+04  0.00000000000E+00 0. -1.
         -2    1    6    6    0  503 -0.25009360734E+02 -0.43787314648E+02 -0.30548601806E+03  0.30961993521E+03  0.00000000000E+00 0.  1.
<mgrwt>
<rscale>  0 0.21073741E+04</rscale>
<asrwt>0</asrwt>
<pdfrwt beam="1">  1        2 0.40779180E+00 0.21073741E+04</pdfrwt>
<pdfrwt beam="2">  1       -1 0.64440377E-01 0.21073741E+04</pdfrwt>
<totfact> 0.72761174E+00</totfact>
</mgrwt>
</event>
<event>
12    6  0.1611689E-007  0.1302956E+04  0.7818608E-02  0.9027224E-01
          2   -1    0    0  501    0  0.00000000000E+00  0.00000000000E+00  0.21905400865E+04  0.21905400865E+04  0.00000000000E+00 0. -1.
         -1   -1    0    0    0  501 -0.00000000000E+00 -0.00000000000E+00 -0.19375300936E+03  0.19375300936E+03  0.00000000000E+00 0.  1.
         24    2    1    2    0    0  0.16173904059E+03  0.14192406348E+03  0.48386188900E+02  0.23399922940E+03  0.78182216879E+02 0.  0.
        254    2    1    2    0    0 -0.16173904059E+03 -0.14192406348E+03  0.19484008882E+04  0.21502938664E+04  0.88385277835E+03 0.  0.
         23    2    4    4    0    0 -0.35111589702E+03  0.22144306758E+03  0.13783326616E+04  0.14424646512E+04  0.92649546665E+02 0.  0.
         23    2    4    4    0    0  0.18937685643E+03 -0.36336713106E+03  0.57006822656E+03  0.70782921522E+03  0.90250480923E+02 0.  0.
          2    1    3    3  502    0  0.75099326878E+01  0.43842948368E+02 -0.16081638329E+01  0.44510553821E+02  0.00000000000E+00 0. -1.
         -1    1    3    3    0  502  0.15422910791E+03  0.98081115114E+02  0.49994352733E+02  0.18948867558E+03  0.00000000000E+00 0.  1.
         11    1    5    5    0    0 -0.16743428603E+03  0.56674122942E+02  0.51073800432E+03  0.54046230711E+03  0.00000000000E+00 0. -1.
        -11    1    5    5    0    0 -0.18368161099E+03  0.16476894464E+03  0.86759465732E+03  0.90200234409E+03  0.00000000000E+00 0.  1.
          1    1    6    6  503    0  0.74842467203E+02 -0.64309356375E+02  0.15160212519E+03  0.18088751360E+03  0.00000000000E+00 0. -1.
         -1    1    6    6    0  503  0.11453438923E+03 -0.29905777468E+03  0.41846610137E+03  0.52694170162E+03  0.00000000000E+00 0.  1.
<mgrwt>
<rscale>  0 0.13029562E+04</rscale>
<asrwt>0</asrwt>
<pdfrwt beam="1">  1        2 0.33700615E+00 0.13029562E+04</pdfrwt>
<pdfrwt beam="2">  1       -1 0.29808157E-01 0.13029562E+04</pdfrwt>
<totfact> 0.60338162E+01</totfact>
</mgrwt>
</event>
<event>
12    6  0.1611689E-007  0.1407784E+04  0.7818608E-02  0.8948203E-01
         -1   -1    0    0    0  501 -0.00000000000E+00  0.00000000000E+00  0.25395986927E+03  0.25395986927E+03  0.00000000000E+00 0.  1.
          2   -1    0    0  501    0  0.00000000000E+00 -0.00000000000E+00 -0.19509534258E+04  0.19509534258E+04  0.00000000000E+00 0. -1.
         24    2    1    2    0    0 -0.10386370682E+03  0.19514365409E+03  0.38334867990E+02  0.23815826915E+03  0.79881685852E+02 0.  0.
        254    2    1    2    0    0  0.10386370682E+03 -0.19514365409E+03 -0.17353284245E+04  0.19667550259E+04  0.89882805679E+03 0.  0.
         23    2    4    4    0    0 -0.28852661650E+02  0.32544077013E+03 -0.96514032231E+03  0.10232145344E+04  0.93423608670E+02 0.  0.
         23    2    4    4    0    0  0.13271636847E+03 -0.52058442422E+03 -0.77018810219E+03  0.94354049153E+03  0.91962868544E+02 0.  0.
          2    1    3    3  502    0 -0.53156222069E+02  0.66250097554E+02 -0.20965985628E+02  0.87488467377E+02  0.00000000000E+00 0. -1.
         -1    1    3    3    0  502 -0.50707484749E+02  0.12889355654E+03  0.59300853619E+02  0.15066980177E+03  0.00000000000E+00 0.  1.
         11    1    5    5    0    0  0.46962607323E+01  0.24623087005E+03 -0.79946667195E+03  0.83653969170E+03  0.00000000000E+00 0. -1.
        -11    1    5    5    0    0 -0.33548922383E+02  0.79209900074E+02 -0.16567365036E+03  0.18667484267E+03  0.00000000000E+00 0.  1.
          4    1    6    6  503    0  0.83890260717E+02 -0.43083004820E+03 -0.66588318709E+03  0.79752901209E+03  0.00000000000E+00 0. -1.
         -4    1    6    6    0  503  0.48826107751E+02 -0.89754376020E+02 -0.10430491510E+03  0.14601147944E+03  0.00000000000E+00 0.  1.
<mgrwt>
<rscale>  0 0.14077839E+04</rscale>
<asrwt>0</asrwt>
<pdfrwt beam="1">  1        2 0.30014668E+00 0.14077839E+04</pdfrwt>
<pdfrwt beam="2">  1       -1 0.39070749E-01 0.14077839E+04</pdfrwt>
<totfact> 0.50149250E+01</totfact>
</mgrwt>
</event>
<event>
12    6  0.1611689E-007  0.2430897E+04  0.7818608E-02  0.8428026E-01
          2   -1    0    0  501    0  0.00000000000E+00  0.00000000000E+00  0.38839762677E+04  0.38839762677E+04  0.00000000000E+00 0. -1.
         -1   -1    0    0    0  501 -0.00000000000E+00 -0.00000000000E+00 -0.38036143953E+03  0.38036143953E+03  0.00000000000E+00 0.  1.
         24    2    1    2    0    0  0.26852666538E+03  0.28179059832E+03 -0.19106435229E+03  0.44169462433E+03  0.84119219674E+02 0.  0.
        254    2    1    2    0    0 -0.26852666538E+03 -0.28179059832E+03  0.36946791805E+04  0.38226430829E+04  0.90024073526E+03 0.  0.
         23    2    4    4    0    0 -0.79033113633E+02  0.23636596341E+03  0.23710978408E+04  0.23858609050E+04  0.90067672803E+02 0.  0.
         23    2    4    4    0    0 -0.18949355175E+03 -0.51815656172E+03  0.13235813397E+04  0.14367821779E+04  0.89896804263E+02 0.  0.
          2    1    3    3  502    0  0.62890004084E+02  0.23092239802E+02 -0.42707372827E+02  0.79450134340E+02  0.00000000000E+00 0. -1.
         -1    1    3    3    0  502  0.20563666130E+03  0.25869835851E+03 -0.14835697947E+03  0.36224448999E+03  0.00000000000E+00 0.  1.
         11    1    5    5    0    0 -0.12546840879E+02  0.10969610367E+03  0.70038529134E+03  0.70903470628E+03  0.00000000000E+00 0. -1.
        -11    1    5    5    0    0 -0.66486272753E+02  0.12666985974E+03  0.16707125494E+04  0.16768261987E+04  0.00000000000E+00 0.  1.
          4    1    6    6  503    0 -0.19500914994E+03 -0.46955388330E+03  0.12355516505E+04  0.13360753343E+04  0.00000000000E+00 0. -1.
         -4    1    6    6    0  503  0.55155981874E+01 -0.48602678423E+02  0.88029689182E+02  0.10070684361E+03  0.00000000000E+00 0.  1.
<mgrwt>
<rscale>  0 0.24308968E+04</rscale>
<asrwt>0</asrwt>
<pdfrwt beam="1">  1        2 0.59753478E+00 0.24308968E+04</pdfrwt>
<pdfrwt beam="2">  1       -1 0.58517147E-01 0.24308968E+04</pdfrwt>
<totfact> 0.12820295E+00</totfact>
</mgrwt>
</event>
<event>
12    6  0.1611689E-007  0.2154945E+04  0.7818608E-02  0.8537419E-01
          4   -1    0    0  501    0  0.00000000000E+00  0.00000000000E+00  0.43190563962E+03  0.43190563962E+03  0.00000000000E+00 0. -1.
         -3   -1    0    0    0  501 -0.00000000000E+00 -0.00000000000E+00 -0.26879640219E+04  0.26879640219E+04  0.00000000000E+00 0.  1.
         24    2    1    2    0    0 -0.71706494400E+03  0.49015788631E+03 -0.11445933856E+04  0.14390724616E+04  0.79991524156E+02 0.  0.
        254    2    1    2    0    0  0.71706494400E+03 -0.49015788631E+03 -0.11114649967E+04  0.16807971999E+04  0.91394086298E+03 0.  0.
         23    2    4    4    0    0  0.53895933692E+02 -0.57514023909E+03 -0.47176301539E+03  0.75124629587E+03  0.90108756930E+02 0.  0.
         23    2    4    4    0    0  0.66316901031E+03  0.84982352776E+02 -0.63970198131E+03  0.92955090408E+03  0.88493626100E+02 0.  0.
          2    1    3    3  502    0 -0.11240194945E+03  0.45783811211E+02 -0.17670008015E+03  0.21436714751E+03  0.00000000000E+00 0. -1.
         -1    1    3    3    0  502 -0.60466299455E+03  0.44437407510E+03 -0.96789330542E+03  0.12247053141E+04  0.00000000000E+00 0.  1.
         11    1    5    5    0    0  0.69888381400E+02 -0.32753566889E+03 -0.24319818302E+03  0.41389534483E+03  0.00000000000E+00 0. -1.
        -11    1    5    5    0    0 -0.15992447708E+02 -0.24760457020E+03 -0.22856483237E+03  0.33735095104E+03  0.00000000000E+00 0.  1.
          1    1    6    6  503    0 -0.71140224559E+00 -0.41268329210E+01 -0.17727512943E+01  0.45474707546E+01  0.00000000000E+00 0.  1.
         -1    1    6    6    0  503  0.66388041256E+03  0.89109185697E+02 -0.63792923002E+03  0.92500343332E+03  0.00000000000E+00 0. -1.
<mgrwt>
<rscale>  0 0.21549448E+04</rscale>
<asrwt>0</asrwt>
<pdfrwt beam="1">  1        4 0.66447022E-01 0.21549448E+04</pdfrwt>
<pdfrwt beam="2">  1       -3 0.41353292E+00 0.21549448E+04</pdfrwt>
<totfact> 0.39415245E-02</totfact>
</mgrwt>
</event>
<event>
12    6  0.1611689E-007  0.1683465E+04  0.7818608E-02  0.8770851E-01
          2   -1    0    0  501    0  0.00000000000E+00  0.00000000000E+00  0.14434086818E+04  0.14434086818E+04  0.00000000000E+00 0. -1.
         -1   -1    0    0    0  501 -0.00000000000E+00 -0.00000000000E+00 -0.49086164847E+03  0.49086164847E+03  0.00000000000E+00 0.  1.
         24    2    1    2    0    0  0.80428302252E+02  0.44957530824E+03  0.78403042837E+03  0.91080324679E+03  0.79197046404E+02 0.  0.
        254    2    1    2    0    0 -0.80428302252E+02 -0.44957530824E+03  0.16851660496E+03  0.10234670835E+04  0.90027793223E+03 0.  0.
         23    2    4    4    0    0  0.14377476319E+03 -0.29126998428E+03  0.48734644341E+03  0.59300362477E+03  0.92937381190E+02 0.  0.
         23    2    4    4    0    0 -0.22420306544E+03 -0.15830532396E+03 -0.31882983845E+03  0.43046345872E+03  0.91207089944E+02 0.  0.
          4    1    3    3  502    0  0.46419557825E+02  0.36802350485E+03  0.67747759428E+03  0.77238071326E+03  0.00000000000E+00 0. -1.
         -3    1    3    3    0  502  0.34008744427E+02  0.81551803387E+02  0.10655283410E+03  0.13842253353E+03  0.00000000000E+00 0.  1.
         11    1    5    5    0    0  0.43828399311E+02 -0.16127305358E+03  0.30489450380E+03  0.34769323382E+03  0.00000000000E+00 0. -1.
        -11    1    5    5    0    0  0.99946363878E+02 -0.12999693070E+03  0.18245193961E+03  0.24531039095E+03  0.00000000000E+00 0.  1.
          3    1    6    6  503    0 -0.12663567122E+03 -0.12778448492E+03 -0.24678228522E+03  0.30539640487E+03  0.00000000000E+00 0. -1.
         -3    1    6    6    0  503 -0.97567394218E+02 -0.30520839040E+02 -0.72047553236E+02  0.12506705384E+03  0.00000000000E+00 0.  1.
<mgrwt>
<rscale>  0 0.16834654E+04</rscale>
<asrwt>0</asrwt>
<pdfrwt beam="1">  1        2 0.22206287E+00 0.16834654E+04</pdfrwt>
<pdfrwt beam="2">  1       -1 0.75517177E-01 0.16834654E+04</pdfrwt>
<totfact> 0.26153983E+01</totfact>
</mgrwt>
</event>
<event>
12    6  0.1611689E-007  0.1157662E+04  0.7818608E-02  0.9150744E-01
          2   -1    0    0  501    0  0.00000000000E+00  0.00000000000E+00  0.18348795980E+04  0.18348795980E+04  0.00000000000E+00 0. -1.
         -1   -1    0    0    0  501 -0.00000000000E+00 -0.00000000000E+00 -0.18259784583E+03  0.18259784583E+03  0.00000000000E+00 0.  1.
         24    2    1    2    0    0 -0.19271384349E+03 -0.10482037147E+03  0.32962234121E+03  0.40454112676E+03  0.82925868484E+02 0.  0.
        254    2    1    2    0    0  0.19271384349E+03  0.10482037147E+03  0.13226594109E+04  0.16129363170E+04  0.89666588524E+03 0.  0.
         23    2    4    4    0    0  0.42511903029E+03  0.35764447414E+02  0.23602171911E+03  0.49596443966E+03  0.90935075178E+02 0.  0.
         23    2    4    4    0    0 -0.23240518680E+03  0.69055924056E+02  0.10866376918E+04  0.11169718774E+04  0.89798719787E+02 0.  0.
          4    1    3    3  502    0 -0.16482274991E+03 -0.76446112187E+02  0.31195558942E+03  0.36100808402E+03  0.00000000000E+00 0. -1.
         -3    1    3    3    0  502 -0.27891093587E+02 -0.28374259283E+02  0.17666751789E+02  0.43533042739E+02  0.00000000000E+00 0.  1.
         11    1    5    5    0    0  0.93381946638E+02 -0.78399598841E+01  0.93201364567E+02  0.13216711878E+03  0.00000000000E+00 0. -1.
        -11    1    5    5    0    0  0.33173708366E+03  0.43604407298E+02  0.14282035454E+03  0.36379732088E+03  0.00000000000E+00 0.  1.
          2    1    6    6  503    0 -0.56638414788E+02  0.45020963649E+01  0.12546572043E+03  0.13773099108E+03  0.00000000000E+00 0. -1.
         -2    1    6    6    0  503 -0.17576677201E+03  0.64553827691E+02  0.96117197137E+03  0.97924088628E+03  0.00000000000E+00 0.  1.
<mgrwt>
<rscale>  0 0.11576615E+04</rscale>
<asrwt>0</asrwt>
<pdfrwt beam="1">  1        2 0.28228916E+00 0.11576615E+04</pdfrwt>
<pdfrwt beam="2">  1       -1 0.28091978E-01 0.11576615E+04</pdfrwt>
<totfact> 0.10654266E+02</totfact>
</mgrwt>
</event>
<event>
12    6  0.1611689E-007  0.2291300E+04  0.7818608E-02  0.8481359E-01
         -1   -1    0    0    0  501 -0.00000000000E+00  0.00000000000E+00  0.76907663346E+03  0.76907663346E+03  0.00000000000E+00 0.  1.
          2   -1    0    0  501    0  0.00000000000E+00 -0.00000000000E+00 -0.17066097833E+04  0.17066097833E+04  0.00000000000E+00 0. -1.
         24    2    1    2    0    0 -0.74644922651E+03 -0.34164954161E+03  0.15036348867E+03  0.83839010471E+03  0.79861955313E+02 0.  0.
        254    2    1    2    0    0  0.74644922651E+03  0.34164954161E+03 -0.10878966385E+04  0.16372963121E+04  0.90736390733E+03 0.  0.
         23    2    4    4    0    0  0.59464182349E+03  0.58643754488E+03 -0.50219109251E+03  0.97878628902E+03  0.91207531879E+02 0.  0.
         23    2    4    4    0    0  0.15180740302E+03 -0.24478800328E+03 -0.58570554601E+03  0.65851002304E+03  0.87280064464E+02 0.  0.
          2    1    3    3  502    0 -0.19396878688E+03 -0.60336814628E+02  0.60357632552E+02  0.21191381571E+03  0.00000000000E+00 0. -1.
         -1    1    3    3    0  502 -0.55248043964E+03 -0.28131272698E+03  0.90005856120E+02  0.62647628900E+03  0.00000000000E+00 0.  1.
         11    1    5    5    0    0  0.12967160922E+03  0.18385517275E+03 -0.12735539097E+03  0.25852823132E+03  0.00000000000E+00 0.  1.
        -11    1    5    5    0    0  0.46497021428E+03  0.40258237214E+03 -0.37483570154E+03  0.72025805769E+03  0.00000000000E+00 0. -1.
          4    1    6    6  503    0  0.14996899094E+03 -0.23094802962E+03 -0.58231656557E+03  0.64414305334E+03  0.00000000000E+00 0. -1.
         -4    1    6    6    0  503  0.18384120775E+01 -0.13839973659E+02 -0.33889804406E+01  0.14366969697E+02  0.00000000000E+00 0.  1.
<mgrwt>
<rscale>  0 0.22912998E+04</rscale>
<asrwt>0</asrwt>
<pdfrwt beam="1">  1        2 0.26255535E+00 0.22912998E+04</pdfrwt>
<pdfrwt beam="2">  1       -1 0.11831948E+00 0.22912998E+04</pdfrwt>
<totfact> 0.64374845E+00</totfact>
</mgrwt>
</event>
<event>
12    6  0.1611689E-007  0.2729598E+04  0.7818608E-02  0.8325465E-01
          2   -1    0    0  501    0  0.00000000000E+00  0.00000000000E+00  0.21605966704E+04  0.21605966704E+04  0.00000000000E+00 0. -1.
         -1   -1    0    0    0  501 -0.00000000000E+00 -0.00000000000E+00 -0.86211223769E+03  0.86211223769E+03  0.00000000000E+00 0.  1.
         24    2    1    2    0    0  0.11393912073E+04 -0.69471985330E+02  0.10486116439E+04  0.15519972090E+04  0.77911982521E+02 0.  0.
        254    2    1    2    0    0 -0.11393912073E+04  0.69471985330E+02  0.24987278884E+03  0.14707116991E+04  0.89303852741E+03 0.  0.
         23    2    4    4    0    0 -0.29920863867E+03  0.42717382506E+03  0.12978133710E+03  0.54508760042E+03  0.90961587441E+02 0.  0.
         23    2    4    4    0    0 -0.84018256859E+03 -0.35770183973E+03  0.12009145173E+03  0.92562409872E+03  0.92199027337E+02 0.  0.
          4    1    3    3  502    0  0.11128818219E+04 -0.70954531883E+02  0.10063770303E+04  0.15021102563E+04  0.00000000000E+00 0. -1.
         -1    1    3    3    0  502  0.26509385397E+02  0.14825465524E+01  0.42234613653E+02  0.49886952691E+02  0.00000000000E+00 0.  1.
         11    1    5    5    0    0 -0.56364129623E+02  0.10780264671E+03  0.67346552474E+02  0.13904633715E+03  0.00000000000E+00 0. -1.
        -11    1    5    5    0    0 -0.24284450905E+03  0.31937117835E+03  0.62434784630E+02  0.40604126326E+03  0.00000000000E+00 0.  1.
          2    1    6    6  503    0 -0.37330328716E+03 -0.15436759837E+03  0.72018093995E+01  0.40402545179E+03  0.00000000000E+00 0. -1.
         -2    1    6    6    0  503 -0.46687928143E+03 -0.20333424136E+03  0.11288964233E+03  0.52159864693E+03  0.00000000000E+00 0.  1.
<mgrwt>
<rscale>  0 0.27295984E+04</rscale>
<asrwt>0</asrwt>
<pdfrwt beam="1">  1        2 0.33239949E+00 0.27295984E+04</pdfrwt>
<pdfrwt beam="2">  1       -1 0.13263265E+00 0.27295984E+04</pdfrwt>
<totfact> 0.26067784E+00</totfact>
</mgrwt>
</event>
<event>
12    6  0.1611689E-007  0.1438991E+04  0.7818608E-02  0.8926069E-01
         -1   -1    0    0    0  501 -0.00000000000E+00  0.00000000000E+00  0.43650257562E+03  0.43650257562E+03  0.00000000000E+00 0.  1.
          2   -1    0    0  501    0  0.00000000000E+00 -0.00000000000E+00 -0.11859575286E+04  0.11859575286E+04  0.00000000000E+00 0. -1.
         24    2    1    2    0    0 -0.46596691824E+02  0.10577985759E+03  0.24000581062E+03  0.27733703217E+03  0.77151865293E+02 0.  0.
        254    2    1    2    0    0  0.46596691824E+02 -0.10577985759E+03 -0.98946076361E+03  0.13451230721E+04  0.90385997053E+03 0.  0.
         23    2    4    4    0    0  0.25847060414E+03  0.19179431482E+03 -0.89641538258E+03  0.95679112593E+03  0.91085718590E+02 0.  0.
         23    2    4    4    0    0 -0.21187391231E+03 -0.29757417241E+03 -0.93045381033E+02  0.38833194614E+03  0.93291557301E+02 0.  0.
          4    1    3    3  502    0  0.33866095461E+01  0.13618327374E+02 -0.14437303573E+01  0.14107172716E+02  0.00000000000E+00 0. -1.
         -3    1    3    3    0  502 -0.49983301370E+02  0.92161530213E+02  0.24144954098E+03  0.26322985945E+03  0.00000000000E+00 0.  1.
         11    1    5    5    0    0  0.58746786243E+02  0.95980300221E+02 -0.27895292678E+03  0.30079584153E+03  0.00000000000E+00 0. -1.
        -11    1    5    5    0    0  0.19972381789E+03  0.95814014598E+02 -0.61746245580E+03  0.65599528439E+03  0.00000000000E+00 0.  1.
          1    1    6    6  503    0 -0.13882466508E+02 -0.69736527290E+02  0.41443722332E+01  0.71225570801E+02  0.00000000000E+00 0. -1.
         -1    1    6    6    0  503 -0.19799144580E+03 -0.22783764512E+03 -0.97189753266E+02  0.31710637534E+03  0.00000000000E+00 0.  1.
<mgrwt>
<rscale>  0 0.14389906E+04</rscale>
<asrwt>0</asrwt>
<pdfrwt beam="1">  1        2 0.18245500E+00 0.14389906E+04</pdfrwt>
<pdfrwt beam="2">  1       -1 0.67154244E-01 0.14389906E+04</pdfrwt>
<totfact> 0.48008181E+01</totfact>
</mgrwt>
</event>
<event>
12    6  0.1611689E-007  0.1083105E+04  0.7818608E-02  0.9221817E-01
          2   -1    0    0  501    0  0.00000000000E+00  0.00000000000E+00  0.24555266533E+04  0.24555266533E+04  0.00000000000E+00 0. -1.
         -1   -1    0    0    0  501 -0.00000000000E+00 -0.00000000000E+00 -0.11943632071E+03  0.11943632071E+03  0.00000000000E+00 0.  1.
         24    2    1    2    0    0 -0.89139770180E+02 -0.11498721181E+03  0.32010145061E+03  0.36503581879E+03  0.98072691444E+02 0.  0.
        254    2    1    2    0    0  0.89139770180E+02  0.11498721181E+03  0.20159888820E+04  0.22099271552E+04  0.89353170151E+03 0.  0.
         23    2    4    4    0    0  0.27020645910E+03  0.29388807688E+03  0.40295384860E+03  0.57433358421E+03  0.90030714626E+02 0.  0.
         23    2    4    4    0    0 -0.18106668892E+03 -0.17890086508E+03  0.16130350334E+04  0.16355935710E+04  0.92160974568E+02 0.  0.
          4    1    3    3  502    0 -0.74320730463E+01  0.10888389701E+02  0.20285018254E+01  0.13338199268E+02  0.00000000000E+00 0. -1.
         -3    1    3    3    0  502 -0.81707697134E+02 -0.12587560151E+03  0.31807294879E+03  0.35169761952E+03  0.00000000000E+00 0.  1.
         11    1    5    5    0    0  0.38272691875E+02  0.42121769269E+02  0.19139310887E+02  0.60044613505E+02  0.00000000000E+00 0. -1.
        -11    1    5    5    0    0  0.23193376723E+03  0.25176630762E+03  0.38381453771E+03  0.51428897070E+03  0.00000000000E+00 0.  1.
          3    1    6    6  503    0  0.15294352436E+01 -0.36004201791E+02  0.14800474308E+03  0.15232874218E+03  0.00000000000E+00 0. -1.
         -3    1    6    6    0  503 -0.18259612417E+03 -0.14289666328E+03  0.14650302903E+04  0.14832648289E+04  0.00000000000E+00 0.  1.
<mgrwt>
<rscale>  0 0.10831049E+04</rscale>
<asrwt>0</asrwt>
<pdfrwt beam="1">  1        2 0.37777329E+00 0.10831049E+04</pdfrwt>
<pdfrwt beam="2">  1       -1 0.18374820E-01 0.10831049E+04</pdfrwt>
<totfact> 0.99370665E+01</totfact>
</mgrwt>
</event>
<event>
12    6  0.1611689E-007  0.2117491E+04  0.7818608E-02  0.8553578E-01
          2   -1    0    0  501    0  0.00000000000E+00  0.00000000000E+00  0.17354609146E+04  0.17354609146E+04  0.00000000000E+00 0. -1.
         -1   -1    0    0    0  501 -0.00000000000E+00 -0.00000000000E+00 -0.64590423866E+03  0.64590423866E+03  0.00000000000E+00 0.  1.
         24    2    1    2    0    0 -0.50352035506E+03  0.10903751364E+03 -0.33396855029E+03  0.61892242523E+03  0.78154005199E+02 0.  0.
        254    2    1    2    0    0  0.50352035506E+03 -0.10903751364E+03  0.14235252262E+04  0.17624427280E+04  0.90241806972E+03 0.  0.
         23    2    4    4    0    0  0.54178243886E+03  0.27855763185E+03  0.68448859887E+03  0.92145693464E+03  0.97137403150E+02 0.  0.
         23    2    4    4    0    0 -0.38262083799E+02 -0.38759514549E+03  0.73903662733E+03  0.84098579338E+03  0.96891610891E+02 0.  0.
          2    1    3    3  502    0 -0.20022751490E+03  0.58542511437E+01 -0.14045664510E+03  0.24464954350E+03  0.00000000000E+00 0. -1.
         -1    1    3    3    0  502 -0.30329284016E+03  0.10318326250E+03 -0.19351190519E+03  0.37427288173E+03  0.00000000000E+00 0.  1.
         11    1    5    5    0    0  0.22720761540E+03  0.14804999202E+03  0.24512345114E+03  0.36555110030E+03  0.00000000000E+00 0. -1.
        -11    1    5    5    0    0  0.31457482346E+03  0.13050763983E+03  0.43936514774E+03  0.55590583434E+03  0.00000000000E+00 0.  1.
          4    1    6    6  503    0 -0.28187233602E+02 -0.38912860120E+03  0.72806783698E+03  0.82601353721E+03  0.00000000000E+00 0. -1.
         -4    1    6    6    0  503 -0.10074850196E+02  0.15334557146E+01  0.10968790355E+02  0.14972256168E+02  0.00000000000E+00 0.  1.
<mgrwt>
<rscale>  0 0.21174906E+04</rscale>
<asrwt>0</asrwt>
<pdfrwt beam="1">  1        2 0.26699399E+00 0.21174906E+04</pdfrwt>
<pdfrwt beam="2">  1       -1 0.99369884E-01 0.21174906E+04</pdfrwt>
<totfact> 0.94963095E+00</totfact>
</mgrwt>
</event>
<event>
12    6  0.1611689E-007  0.2051980E+04  0.7818608E-02  0.8582697E-01
          2   -1    0    0  501    0  0.00000000000E+00  0.00000000000E+00  0.89870655415E+03  0.89870655415E+03  0.00000000000E+00 0. -1.
         -1   -1    0    0    0  501 -0.00000000000E+00 -0.00000000000E+00 -0.11713003114E+04  0.11713003114E+04  0.00000000000E+00 0.  1.
         24    2    1    2    0    0  0.63106162393E+03  0.11892540444E+03  0.40886661751E+03  0.76527215484E+03  0.78022657208E+02 0.  0.
        254    2    1    2    0    0 -0.63106162393E+03 -0.11892540444E+03 -0.68146037479E+03  0.13047347107E+04  0.90860464338E+03 0.  0.
         23    2    4    4    0    0 -0.13148715080E+02  0.32836521700E+03 -0.25114292664E+03  0.42384574357E+03  0.92605832913E+02 0.  0.
         23    2    4    4    0    0 -0.61791290885E+03 -0.44729062144E+03 -0.43031744814E+03  0.88088896717E+03  0.94376921713E+02 0.  0.
          2    1    3    3  502    0  0.57967942375E+03  0.13056686018E+03  0.37645217255E+03  0.70341465546E+03  0.00000000000E+00 0. -1.
         -1    1    3    3    0  502  0.51382200181E+02 -0.11641455747E+02  0.32414444959E+02  0.61857499378E+02  0.00000000000E+00 0.  1.
         11    1    5    5    0    0 -0.64104979197E+01 -0.16091740061E+01  0.30326738486E+01  0.72719347655E+01  0.00000000000E+00 0.  1.
        -11    1    5    5    0    0 -0.67382171602E+01  0.32997439101E+03 -0.25417560049E+03  0.41657380880E+03  0.00000000000E+00 0. -1.
          3    1    6    6  503    0 -0.54528659242E+03 -0.41342096259E+03 -0.35491535016E+03  0.77085619019E+03  0.00000000000E+00 0. -1.
         -3    1    6    6    0  503 -0.72626316435E+02 -0.33869658854E+02 -0.75402097982E+02  0.11003277698E+03  0.00000000000E+00 0.  1.
<mgrwt>
<rscale>  0 0.20519798E+04</rscale>
<asrwt>0</asrwt>
<pdfrwt beam="1">  1        2 0.13826255E+00 0.20519798E+04</pdfrwt>
<pdfrwt beam="2">  1       -1 0.18020005E+00 0.20519798E+04</pdfrwt>
<totfact> 0.64324071E+00</totfact>
</mgrwt>
</event>
<event>
12    6  0.1611689E-007  0.1552510E+04  0.7818608E-02  0.8850266E-01
          2   -1    0    0  501    0  0.00000000000E+00  0.00000000000E+00  0.45124656718E+03  0.45124656718E+03  0.00000000000E+00 0. -1.
         -1   -1    0    0    0  501 -0.00000000000E+00 -0.00000000000E+00 -0.13353502394E+04  0.13353502394E+04  0.00000000000E+00 0.  1.
         24    2    1    2    0    0  0.33392072699E+03  0.36690314550E+03 -0.19827712862E+03  0.53976016599E+03  0.76852111012E+02 0.  0.
        254    2    1    2    0    0 -0.33392072699E+03 -0.36690314550E+03 -0.68582654363E+03  0.12468366406E+04  0.91549035513E+03 0.  0.
         23    2    4    4    0    0 -0.33166960543E+03 -0.57185887376E+03 -0.75899825520E+03  0.10104643120E+04  0.89064447583E+02 0.  0.
         23    2    4    4    0    0 -0.22511215575E+01  0.20495572826E+03  0.73171711568E+02  0.23637232858E+03  0.92227220766E+02 0.  0.
          4    1    3    3  502    0  0.75713355369E+02  0.43624100554E+02 -0.47092290853E+02  0.99263579364E+02  0.00000000000E+00 0. -1.
         -3    1    3    3    0  502  0.25820737162E+03  0.32327904494E+03 -0.15118483776E+03  0.44049658663E+03  0.00000000000E+00 0.  1.
         11    1    5    5    0    0 -0.15294053936E+03 -0.29718225644E+03 -0.32071040041E+03  0.46320973981E+03  0.00000000000E+00 0. -1.
        -11    1    5    5    0    0 -0.17872906607E+03 -0.27467661732E+03 -0.43828785479E+03  0.54725457222E+03  0.00000000000E+00 0.  1.
          4    1    6    6  503    0 -0.62792559990E+01  0.20079734697E+03  0.88844682173E+02  0.21966424642E+03  0.00000000000E+00 0. -1.
         -4    1    6    6    0  503  0.40281344415E+01  0.41583812982E+01 -0.15672970604E+02  0.16708082166E+02  0.00000000000E+00 0.  1.
<mgrwt>
<rscale>  0 0.15525105E+04</rscale>
<asrwt>0</asrwt>
<pdfrwt beam="1">  1        2 0.69422550E-01 0.15525105E+04</pdfrwt>
<pdfrwt beam="2">  1       -1 0.20543849E+00 0.15525105E+04</pdfrwt>
<totfact> 0.10534752E+01</totfact>
</mgrwt>
</event>
<event>
12    6  0.1611689E-007  0.3066681E+04  0.7818608E-02  0.8224942E-01
          2   -1    0    0  501    0  0.00000000000E+00  0.00000000000E+00  0.30296787866E+04  0.30296787866E+04  0.00000000000E+00 0. -1.
         -1   -1    0    0    0  501 -0.00000000000E+00 -0.00000000000E+00 -0.77603380098E+03  0.77603380098E+03  0.00000000000E+00 0.  1.
         24    2    1    2    0    0  0.22602954474E+03 -0.28642368007E+03  0.27718799266E+04  0.27968771426E+04  0.77945771571E+02 0.  0.
        254    2    1    2    0    0 -0.22602954474E+03  0.28642368007E+03 -0.51823494098E+03  0.10088354451E+04  0.78489083417E+03 0.  0.
         23    2    4    4    0    0 -0.43631428270E+03  0.15188945458E+01 -0.10667384943E+03  0.45814542952E+03  0.90252224934E+02 0.  0.
         23    2    4    4    0    0  0.21028473796E+03  0.28490478552E+03 -0.41156109155E+03  0.55069001554E+03  0.92122490781E+02 0.  0.
          4    1    3    3  502    0  0.21574534533E+03 -0.27382211429E+03  0.24604676695E+04  0.24850403934E+04  0.00000000000E+00 0. -1.
         -3    1    3    3    0  502  0.10284199409E+02 -0.12601565780E+02  0.31141225717E+03  0.31183674917E+03  0.00000000000E+00 0.  1.
         11    1    5    5    0    0 -0.85415065358E+02  0.23834568180E+02 -0.50585972015E+02  0.10209192228E+03  0.00000000000E+00 0. -1.
        -11    1    5    5    0    0 -0.35089921734E+03 -0.22315673634E+02 -0.56087877412E+02  0.35605350724E+03  0.00000000000E+00 0.  1.
          3    1    6    6  503    0  0.19668540119E+03  0.20688933276E+03 -0.30269957128E+03  0.41607135626E+03  0.00000000000E+00 0. -1.
         -3    1    6    6    0  503  0.13599336773E+02  0.78015452766E+02 -0.10886152027E+03  0.13461865928E+03  0.00000000000E+00 0.  1.
<mgrwt>
<rscale>  0 0.30666810E+04</rscale>
<asrwt>0</asrwt>
<pdfrwt beam="1">  1        2 0.46610442E+00 0.30666810E+04</pdfrwt>
<pdfrwt beam="2">  1       -1 0.11938982E+00 0.30666810E+04</pdfrwt>
<totfact> 0.10105470E+00</totfact>
</mgrwt>
</event>
<event>
12    6  0.1611689E-007  0.1430881E+04  0.7818608E-02  0.8931764E-01
         -1   -1    0    0    0  501 -0.00000000000E+00  0.00000000000E+00  0.33352398604E+03  0.33352398604E+03  0.00000000000E+00 0.  1.
          2   -1    0    0  501    0  0.00000000000E+00 -0.00000000000E+00 -0.15346882079E+04  0.15346882079E+04  0.00000000000E+00 0. -1.
         24    2    1    2    0    0  0.21204579117E+03 -0.71539045193E+02  0.12293245392E+03  0.26612285625E+03  0.75018223452E+02 0.  0.
        254    2    1    2    0    0 -0.21204579117E+03  0.71539045193E+02 -0.13240966758E+04  0.16020893377E+04  0.87371447658E+03 0.  0.
         23    2    4    4    0    0 -0.17914985401E+02  0.22680774582E+03  0.68157145791E+01  0.24536716104E+03  0.91629086451E+02 0.  0.
         23    2    4    4    0    0 -0.19413080577E+03 -0.15526870063E+03 -0.13309123904E+04  0.13567221767E+04  0.87018013296E+02 0.  0.
          4    1    3    3  502    0  0.19589611732E+02 -0.25347428549E+02  0.40706690149E+02  0.51800382670E+02  0.00000000000E+00 0. -1.
         -3    1    3    3    0  502  0.19245617944E+03 -0.46191616644E+02  0.82225763773E+02  0.21432247358E+03  0.00000000000E+00 0.  1.
         11    1    5    5    0    0 -0.21382148415E+01  0.22486040482E+02 -0.29592907441E+02  0.37228136538E+02  0.00000000000E+00 0. -1.
        -11    1    5    5    0    0 -0.15776770559E+02  0.20432170534E+03  0.36408622020E+02  0.20813902450E+03  0.00000000000E+00 0.  1.
          4    1    6    6  503    0 -0.12995970459E+02 -0.35378830907E+02 -0.35129904586E+03  0.35331512358E+03  0.00000000000E+00 0. -1.
         -4    1    6    6    0  503 -0.18113483531E+03 -0.11988986972E+03 -0.97961334453E+03  0.10034070531E+04  0.00000000000E+00 0.  1.
<mgrwt>
<rscale>  0 0.14308813E+04</rscale>
<asrwt>0</asrwt>
<pdfrwt beam="1">  1        2 0.23610588E+00 0.14308813E+04</pdfrwt>
<pdfrwt beam="2">  1       -1 0.51311382E-01 0.14308813E+04</pdfrwt>
<totfact> 0.51288215E+01</totfact>
</mgrwt>
</event>
<event>
12    6  0.1611689E-007  0.2898651E+04  0.7818608E-02  0.8273279E-01
          2   -1    0    0  501    0  0.00000000000E+00  0.00000000000E+00  0.19256634067E+04  0.19256634067E+04  0.00000000000E+00 0. -1.
         -3   -1    0    0    0  501 -0.00000000000E+00 -0.00000000000E+00 -0.10908160474E+04  0.10908160474E+04  0.00000000000E+00 0.  1.
         24    2    1    2    0    0  0.98119140155E+03 -0.96698161287E+02  0.12714204150E+04  0.16108429274E+04  0.78854069138E+02 0.  0.
        254    2    1    2    0    0 -0.98119140155E+03  0.96698161287E+02 -0.43657305575E+03  0.14056365266E+04  0.90173771747E+03 0.  0.
         23    2    4    4    0    0 -0.31146248041E+03 -0.14103847698E+03 -0.57565478249E+03  0.67524423171E+03  0.87610588199E+02 0.  0.
         23    2    4    4    0    0 -0.66972892114E+03  0.23773663827E+03  0.13908172674E+03  0.73039229491E+03  0.95255660066E+02 0.  0.
          2    1    3    3  502    0  0.62463130838E+03 -0.24214709677E+02  0.79054293057E+03  0.10078237686E+04  0.00000000000E+00 0. -1.
         -1    1    3    3    0  502  0.35656009317E+03 -0.72483451610E+02  0.48087748444E+03  0.60301915877E+03  0.00000000000E+00 0.  1.
         11    1    5    5    0    0 -0.15823730584E+03 -0.65328900964E+02 -0.37112833195E+03  0.40870912522E+03  0.00000000000E+00 0. -1.
        -11    1    5    5    0    0 -0.15322517457E+03 -0.75709576015E+02 -0.20452645054E+03  0.26653510649E+03  0.00000000000E+00 0.  1.
          3    1    6    6  503    0 -0.46130356907E+03  0.20574597896E+03  0.79971738675E+02  0.51139795628E+03  0.00000000000E+00 0. -1.
         -3    1    6    6    0  503 -0.20842535206E+03  0.31990659307E+02  0.59109988064E+02  0.21899433864E+03  0.00000000000E+00 0.  1.
<mgrwt>
<rscale>  0 0.28986511E+04</rscale>
<asrwt>0</asrwt>
<pdfrwt beam="1">  1        2 0.29625591E+00 0.28986511E+04</pdfrwt>
<pdfrwt beam="2">  1       -3 0.16781785E+00 0.28986511E+04</pdfrwt>
<totfact> 0.96312115E-01</totfact>
</mgrwt>
</event>
<event>
12    6  0.1611689E-007  0.2232539E+04  0.7818608E-02  0.8505005E-01
          2   -1    0    0  501    0  0.00000000000E+00  0.00000000000E+00  0.13454181679E+04  0.13454181679E+04  0.00000000000E+00 0. -1.
         -1   -1    0    0    0  501 -0.00000000000E+00 -0.00000000000E+00 -0.92614893903E+03  0.92614893903E+03  0.00000000000E+00 0.  1.
         24    2    1    2    0    0 -0.46704304900E+03  0.15284026832E+03 -0.61802456673E+03  0.79369060271E+03  0.80629092238E+02 0.  0.
        254    2    1    2    0    0  0.46704304900E+03 -0.15284026832E+03  0.10372937956E+04  0.14778765042E+04  0.93094102181E+03 0.  0.
         23    2    4    4    0    0  0.42086944329E+03  0.50511940956E+02  0.18252760192E+02  0.43373571418E+03  0.90060879555E+02 0.  0.
         23    2    4    4    0    0  0.46173605709E+02 -0.20335220927E+03  0.10190410354E+04  0.10441407900E+04  0.91111111875E+02 0.  0.
          2    1    3    3  502    0 -0.39313343517E+03  0.11996216641E+03 -0.55760247784E+03  0.69272313554E+03  0.00000000000E+00 0. -1.
         -1    1    3    3    0  502 -0.73909613828E+02  0.32878101913E+02 -0.60422088889E+02  0.10096746717E+03  0.00000000000E+00 0.  1.
         11    1    5    5    0    0  0.19636993673E+03  0.45494450731E+02  0.48030306487E+02  0.20721439970E+03  0.00000000000E+00 0. -1.
        -11    1    5    5    0    0  0.22449950656E+03  0.50174902247E+01 -0.29777546295E+02  0.22652131448E+03  0.00000000000E+00 0.  1.
          1    1    6    6  503    0 -0.13245237430E+01 -0.15654477033E+03  0.79999861291E+03  0.81517225182E+03  0.00000000000E+00 0. -1.
         -1    1    6    6    0  503  0.47498129452E+02 -0.46807438948E+02  0.21904242247E+03  0.22896853820E+03  0.00000000000E+00 0.  1.
<mgrwt>
<rscale>  0 0.22325390E+04</rscale>
<asrwt>0</asrwt>
<pdfrwt beam="1">  1        2 0.20698741E+00 0.22325390E+04</pdfrwt>
<pdfrwt beam="2">  1       -1 0.14248445E+00 0.22325390E+04</pdfrwt>
<totfact> 0.64682605E+00</totfact>
</mgrwt>
</event>
<event>
12    6  0.1611689E-007  0.1633137E+04  0.7818608E-02  0.8800446E-01
         -1   -1    0    0    0  501 -0.00000000000E+00  0.00000000000E+00  0.64150727396E+03  0.64150727396E+03  0.00000000000E+00 0.  1.
          2   -1    0    0  501    0  0.00000000000E+00 -0.00000000000E+00 -0.10394017920E+04  0.10394017920E+04  0.00000000000E+00 0. -1.
         24    2    1    2    0    0 -0.13167401535E+03  0.12422469073E+03  0.41987760956E+03  0.46383598773E+03  0.77953809397E+02 0.  0.
        254    2    1    2    0    0  0.13167401535E+03 -0.12422469073E+03 -0.81777212759E+03  0.12170730782E+04  0.88303216530E+03 0.  0.
         23    2    4    4    0    0 -0.36166636453E+02 -0.46385880587E+03 -0.61848034824E+03  0.77919812801E+03  0.90325877568E+02 0.  0.
         23    2    4    4    0    0  0.16784065180E+03  0.33963411514E+03 -0.19929177936E+03  0.43787495021E+03  0.92170722762E+02 0.  0.
          4    1    3    3  502    0 -0.44409539230E+02  0.44303352932E+00  0.74881951502E+02  0.87061530622E+02  0.00000000000E+00 0. -1.
         -3    1    3    3    0  502 -0.87264476120E+02  0.12378165720E+03  0.34499565806E+03  0.37677445711E+03  0.00000000000E+00 0.  1.
         11    1    5    5    0    0  0.18737328655E+02 -0.70637514864E+02 -0.63466682706E+02  0.96792385057E+02  0.00000000000E+00 0. -1.
        -11    1    5    5    0    0 -0.54903965108E+02 -0.39322129101E+03 -0.55501366553E+03  0.68240574295E+03  0.00000000000E+00 0.  1.
          2    1    6    6  503    0  0.13647800136E+02  0.11772260472E+03 -0.45439377861E+02  0.12692364307E+03  0.00000000000E+00 0. -1.
         -2    1    6    6    0  503  0.15419285167E+03  0.22191151043E+03 -0.15385240150E+03  0.31095130714E+03  0.00000000000E+00 0.  1.
<mgrwt>
<rscale>  0 0.16331366E+04</rscale>
<asrwt>0</asrwt>
<pdfrwt beam="1">  1        2 0.15990797E+00 0.16331366E+04</pdfrwt>
<pdfrwt beam="2">  1       -1 0.98693427E-01 0.16331366E+04</pdfrwt>
<totfact> 0.25481923E+01</totfact>
</mgrwt>
</event>
<event>
12    6  0.1611689E-007  0.1713122E+04  0.7818608E-02  0.8753916E-01
         -1   -1    0    0    0  501 -0.00000000000E+00  0.00000000000E+00  0.50312800917E+03  0.50312800917E+03  0.00000000000E+00 0.  1.
          2   -1    0    0  501    0  0.00000000000E+00 -0.00000000000E+00 -0.14582702085E+04  0.14582702085E+04  0.00000000000E+00 0. -1.
         24    2    1    2    0    0  0.49428463730E+03 -0.15621986012E+03  0.32323979510E+02  0.52544011008E+03  0.79501712321E+02 0.  0.
        254    2    1    2    0    0 -0.49428463730E+03  0.15621986012E+03 -0.98746617880E+03  0.14359581076E+04  0.90452434185E+03 0.  0.
         23    2    4    4    0    0  0.16075937071E+03 -0.21222345249E+03 -0.21860987632E+03  0.35707949232E+03  0.93984662297E+02 0.  0.
         23    2    4    4    0    0 -0.65504400801E+03  0.36844331261E+03 -0.76885630248E+03  0.10788786152E+04  0.89475837593E+02 0.  0.
          4    1    3    3  502    0  0.20847210038E+03 -0.64384379449E+02 -0.25646367094E+02  0.21969001138E+03  0.00000000000E+00 0. -1.
         -3    1    3    3    0  502  0.28581253691E+03 -0.91835480669E+02  0.57970346604E+02  0.30575009869E+03  0.00000000000E+00 0.  1.
         11    1    5    5    0    0  0.42589428541E+02 -0.72521439476E+01 -0.52522781906E+02  0.68008055658E+02  0.00000000000E+00 0. -1.
        -11    1    5    5    0    0  0.11816994217E+03 -0.20497130855E+03 -0.16608709442E+03  0.28907143666E+03  0.00000000000E+00 0.  1.
          2    1    6    6  503    0 -0.33003554610E+03  0.17206835742E+03 -0.31912694189E+03  0.49027847838E+03  0.00000000000E+00 0.  1.
         -2    1    6    6    0  503 -0.32500846191E+03  0.19637495519E+03 -0.44972936059E+03  0.58860013686E+03  0.00000000000E+00 0. -1.
<mgrwt>
<rscale>  0 0.17131218E+04</rscale>
<asrwt>0</asrwt>
<pdfrwt beam="1">  1        2 0.22434926E+00 0.17131218E+04</pdfrwt>
<pdfrwt beam="2">  1       -1 0.77404310E-01 0.17131218E+04</pdfrwt>
<totfact> 0.24293318E+01</totfact>
</mgrwt>
</event>
<event>
12    6  0.1611689E-007  0.1636275E+04  0.7818608E-02  0.8798567E-01
          2   -1    0    0  501    0  0.00000000000E+00  0.00000000000E+00  0.19765861362E+04  0.19765861362E+04  0.00000000000E+00 0. -1.
         -1   -1    0    0    0  501 -0.00000000000E+00 -0.00000000000E+00 -0.33863910997E+03  0.33863910997E+03  0.00000000000E+00 0.  1.
         24    2    1    2    0    0 -0.47450894543E+03  0.24789921531E+03  0.46255099691E+03  0.71209088610E+03  0.80667497116E+02 0.  0.
        254    2    1    2    0    0  0.47450894543E+03 -0.24789921531E+03  0.11753960293E+04  0.16031343600E+04  0.94966898992E+03 0.  0.
         23    2    4    4    0    0 -0.25138962473E+03 -0.12177986350E+03  0.58527972570E+03  0.65502918598E+03  0.92107538220E+02 0.  0.
         23    2    4    4    0    0  0.72589857016E+03 -0.12611935180E+03  0.59011630361E+03  0.94810517406E+03  0.88494882650E+02 0.  0.
          4    1    3    3  502    0 -0.39717150730E+03  0.19409352913E+03  0.34098250030E+03  0.55828896619E+03  0.00000000000E+00 0. -1.
         -3    1    3    3    0  502 -0.77337438129E+02  0.53805686175E+02  0.12156849661E+03  0.15380191991E+03  0.00000000000E+00 0.  1.
         11    1    5    5    0    0 -0.15476548260E+03 -0.25398536749E+02  0.28851968973E+03  0.32839161323E+03  0.00000000000E+00 0.  1.
        -11    1    5    5    0    0 -0.96624142129E+02 -0.96381326755E+02  0.29676003596E+03  0.32663757275E+03  0.00000000000E+00 0. -1.
          4    1    6    6  503    0  0.53050811027E+02  0.12937675365E+02  0.35613203046E+02  0.65192577995E+02  0.00000000000E+00 0. -1.
         -4    1    6    6    0  503  0.67284775913E+03 -0.13905702717E+03  0.55450310056E+03  0.88291259607E+03  0.00000000000E+00 0.  1.
<mgrwt>
<rscale>  0 0.16362755E+04</rscale>
<asrwt>0</asrwt>
<pdfrwt beam="1">  1        2 0.30409017E+00 0.16362755E+04</pdfrwt>
<pdfrwt beam="2">  1       -1 0.52098326E-01 0.16362755E+04</pdfrwt>
<totfact> 0.27825323E+01</totfact>
</mgrwt>
</event>
<event>
12    6  0.1611689E-007  0.2621693E+04  0.7818608E-02  0.8360870E-01
          2   -1    0    0  501    0  0.00000000000E+00  0.00000000000E+00  0.45630602941E+03  0.45630602941E+03  0.00000000000E+00 0. -1.
         -1   -1    0    0    0  501 -0.00000000000E+00 -0.00000000000E+00 -0.37657145546E+04  0.37657145546E+04  0.00000000000E+00 0.  1.
         24    2    1    2    0    0  0.62008849809E+03  0.49015289770E+03 -0.27332949838E+04  0.28465275401E+04  0.84011662492E+02 0.  0.
        254    2    1    2    0    0 -0.62008849809E+03 -0.49015289770E+03 -0.57611354143E+03  0.13754930440E+04  0.96711669035E+03 0.  0.
         23    2    4    4    0    0  0.10278096435E+03 -0.32226126333E+03  0.10454484860E+03  0.36420239073E+03  0.85425450376E+02 0.  0.
         23    2    4    4    0    0 -0.72286946244E+03 -0.16789163437E+03 -0.68065839003E+03  0.10112906532E+04  0.93193780634E+02 0.  0.
          4    1    3    3  502    0  0.91835232206E+02  0.10184753843E+03 -0.39891566591E+03  0.42182975176E+03  0.00000000000E+00 0. -1.
         -3    1    3    3    0  502  0.52825326589E+03  0.38830535927E+03 -0.23343793179E+04  0.24246977883E+04  0.00000000000E+00 0.  1.
         11    1    5    5    0    0  0.81058416005E+02 -0.31079284608E+03  0.10911292850E+03  0.33921717401E+03  0.00000000000E+00 0. -1.
        -11    1    5    5    0    0  0.21722548340E+02 -0.11468417251E+02 -0.45680798988E+01  0.24985216721E+02  0.00000000000E+00 0.  1.
          3    1    6    6  503    0 -0.55183426667E+03 -0.13095414932E+03 -0.57091792787E+03  0.80474674740E+03  0.00000000000E+00 0. -1.
         -3    1    6    6    0  503 -0.17103519577E+03 -0.36937485055E+02 -0.10974046217E+03  0.20654390582E+03  0.00000000000E+00 0.  1.
<mgrwt>
<rscale>  0 0.26216928E+04</rscale>
<asrwt>0</asrwt>
<pdfrwt beam="1">  1        2 0.70200927E-01 0.26216928E+04</pdfrwt>
<pdfrwt beam="2">  1       -1 0.57934070E+00 0.26216928E+04</pdfrwt>
<totfact> 0.36664674E-02</totfact>
</mgrwt>
</event>
<event>
12    6  0.1611689E-007  0.1553720E+04  0.7818608E-02  0.8849495E-01
         -1   -1    0    0    0  501 -0.00000000000E+00  0.00000000000E+00  0.94109147645E+03  0.94109147645E+03  0.00000000000E+00 0.  1.
          2   -1    0    0  501    0  0.00000000000E+00 -0.00000000000E+00 -0.64128859527E+03  0.64128859527E+03  0.00000000000E+00 0. -1.
         24    2    1    2    0    0  0.32087836234E+03 -0.39640081993E+03  0.25015371752E+03  0.57387572505E+03  0.81608406109E+02 0.  0.
        254    2    1    2    0    0 -0.32087836234E+03  0.39640081993E+03  0.49649163661E+02  0.10085043467E+04  0.86863078713E+03 0.  0.
         23    2    4    4    0    0 -0.42662735344E+03  0.46988191089E+03 -0.23674765696E+03  0.68370977796E+03  0.92788461109E+02 0.  0.
         23    2    4    4    0    0  0.10574899110E+03 -0.73481090958E+02  0.28639682062E+03  0.32479456872E+03  0.82982246067E+02 0.  0.
          2    1    3    3  502    0  0.95408310298E+02 -0.12686328623E+03  0.12058088589E+03  0.19934088670E+03  0.00000000000E+00 0. -1.
         -1    1    3    3    0  502  0.22547005204E+03 -0.26953753370E+03  0.12957283164E+03  0.37453483835E+03  0.00000000000E+00 0.  1.
         11    1    5    5    0    0 -0.22944084747E+03  0.31638696440E+03 -0.15994639406E+03  0.42228741717E+03  0.00000000000E+00 0. -1.
        -11    1    5    5    0    0 -0.19718650597E+03  0.15349494649E+03 -0.76801262893E+02  0.26142236078E+03  0.00000000000E+00 0.  1.
          4    1    6    6  503    0  0.62672032135E+02  0.56958366672E+01  0.11128321432E+03  0.12784435833E+03  0.00000000000E+00 0. -1.
         -4    1    6    6    0  503  0.43076958966E+02 -0.79176927626E+02  0.17511360630E+03  0.19695021039E+03  0.00000000000E+00 0.  1.
<mgrwt>
<rscale>  0 0.15537197E+04</rscale>
<asrwt>0</asrwt>
<pdfrwt beam="1">  1        2 0.98659784E-01 0.15537197E+04</pdfrwt>
<pdfrwt beam="2">  1       -1 0.14478330E+00 0.15537197E+04</pdfrwt>
<totfact> 0.19282386E+01</totfact>
</mgrwt>
</event>
<event>
12    6  0.1611689E-007  0.1362539E+04  0.7818608E-02  0.8981390E-01
          2   -1    0    0  501    0  0.00000000000E+00  0.00000000000E+00  0.24758488525E+04  0.24758488525E+04  0.00000000000E+00 0. -1.
         -1   -1    0    0    0  501 -0.00000000000E+00 -0.00000000000E+00 -0.18746230701E+03  0.18746230701E+03  0.00000000000E+00 0.  1.
         24    2    1    2    0    0 -0.85350134950E+02 -0.10531540372E+03 -0.40906965414E+02  0.16250260156E+03  0.79735411824E+02 0.  0.
        254    2    1    2    0    0  0.85350134950E+02  0.10531540372E+03  0.23292935109E+04  0.25008085579E+04  0.90003289034E+03 0.  0.
         23    2    4    4    0    0  0.36039869889E+03 -0.25180663710E+03  0.11440072142E+04  0.12294577403E+04  0.97570612518E+02 0.  0.
         23    2    4    4    0    0 -0.27504856394E+03  0.35712204082E+03  0.11852862967E+04  0.12713508176E+04  0.90782331685E+02 0.  0.
          2    1    3    3  502    0 -0.29602490179E+02  0.41413321159E+01  0.69254799384E+01  0.30682573700E+02  0.00000000000E+00 0. -1.
         -3    1    3    3    0  502 -0.55747644771E+02 -0.10945673584E+03 -0.47832445353E+02  0.13182002786E+03  0.00000000000E+00 0.  1.
         11    1    5    5    0    0  0.27504215114E+03 -0.22773155972E+03  0.83924717180E+03  0.91205573491E+03  0.00000000000E+00 0.  1.
        -11    1    5    5    0    0  0.85356547749E+02 -0.24075077377E+02  0.30476004240E+03  0.31740200541E+03  0.00000000000E+00 0. -1.
          2    1    6    6  503    0 -0.21104319429E+03  0.22039918865E+03  0.86562636381E+03  0.91783660525E+03  0.00000000000E+00 0. -1.
         -2    1    6    6    0  503 -0.64005369651E+02  0.13672285217E+03  0.31965993285E+03  0.35351421233E+03  0.00000000000E+00 0.  1.
<mgrwt>
<rscale>  0 0.13625393E+04</rscale>
<asrwt>0</asrwt>
<pdfrwt beam="1">  1        2 0.38089980E+00 0.13625393E+04</pdfrwt>
<pdfrwt beam="2">  1       -1 0.28840357E-01 0.13625393E+04</pdfrwt>
<totfact> 0.43860310E+01</totfact>
</mgrwt>
</event>
<event>
12    6  0.1611689E-007  0.2876468E+04  0.7818608E-02  0.8279914E-01
         -1   -1    0    0    0  501 -0.00000000000E+00  0.00000000000E+00  0.11715024419E+04  0.11715024419E+04  0.00000000000E+00 0.  1.
          2   -1    0    0  501    0  0.00000000000E+00 -0.00000000000E+00 -0.17656953683E+04  0.17656953683E+04  0.00000000000E+00 0. -1.
         24    2    1    2    0    0 -0.31764054071E+03 -0.11618136745E+04  0.24239404590E+03  0.12312596248E+04  0.80863234758E+02 0.  0.
        254    2    1    2    0    0  0.31764054071E+03  0.11618136745E+04 -0.83658697224E+03  0.17059381854E+04  0.87157375078E+03 0.  0.
         23    2    4    4    0    0 -0.21065208526E+03  0.81883257915E+03 -0.48000125071E+03  0.97657123860E+03  0.91810073931E+02 0.  0.
         23    2    4    4    0    0  0.52829262597E+03  0.34298109535E+03 -0.35658572153E+03  0.72936694684E+03  0.89964637028E+02 0.  0.
          2    1    3    3  502    0 -0.54282287777E+02 -0.26214572849E+03  0.24341173613E+02  0.26881116507E+03  0.00000000000E+00 0. -1.
         -1    1    3    3    0  502 -0.26335825293E+03 -0.89966794601E+03  0.21805287229E+03  0.96244845970E+03  0.00000000000E+00 0.  1.
         11    1    5    5    0    0 -0.14701972930E+03  0.62887259880E+03 -0.32330565133E+03  0.72223409675E+03  0.00000000000E+00 0. -1.
        -11    1    5    5    0    0 -0.63632355965E+02  0.18995998034E+03 -0.15669559938E+03  0.25433714185E+03  0.00000000000E+00 0.  1.
          1    1    6    6  503    0  0.41093243597E+03  0.24730738612E+03 -0.22952840957E+03  0.53170452411E+03  0.00000000000E+00 0. -1.
         -1    1    6    6    0  503  0.11736019000E+03  0.95673709231E+02 -0.12705731196E+03  0.19766242273E+03  0.00000000000E+00 0.  1.
<mgrwt>
<rscale>  0 0.28764676E+04</rscale>
<asrwt>0</asrwt>
<pdfrwt beam="1">  1        2 0.27164544E+00 0.28764676E+04</pdfrwt>
<pdfrwt beam="2">  1       -1 0.18023115E+00 0.28764676E+04</pdfrwt>
<totfact> 0.18395723E+00</totfact>
</mgrwt>
</event>
<event>
12    6  0.1611689E-007  0.2536591E+04  0.7818608E-02  0.8390065E-01
         -1   -1    0    0    0  501 -0.00000000000E+00  0.00000000000E+00  0.85746017170E+03  0.85746017170E+03  0.00000000000E+00 0.  1.
          2   -1    0    0  501    0  0.00000000000E+00 -0.00000000000E+00 -0.18759744923E+04  0.18759744923E+04  0.00000000000E+00 0. -1.
         24    2    1    2    0    0  0.19890526498E+03 -0.62174528028E+03 -0.14080023727E+04  0.15540277898E+04  0.80007448548E+02 0.  0.
        254    2    1    2    0    0 -0.19890526498E+03  0.62174528028E+03  0.38948805206E+03  0.11794068743E+04  0.90175891147E+03 0.  0.
         23    2    4    4    0    0 -0.28469352482E+03  0.69346979843E+01  0.46070557961E+03  0.54842706549E+03  0.86163344654E+02 0.  0.
         23    2    4    4    0    0  0.85788259844E+02  0.61481058229E+03 -0.71217527550E+02  0.63097980879E+03  0.87817454093E+02 0.  0.
          4    1    3    3  502    0  0.18145224878E+03 -0.49608421854E+03 -0.10775204197E+04  0.12000311352E+04  0.00000000000E+00 0. -1.
         -3    1    3    3    0  502  0.17453016204E+02 -0.12566106174E+03 -0.33048195297E+03  0.35399665457E+03  0.00000000000E+00 0.  1.
         11    1    5    5    0    0 -0.47714619756E+02  0.33868706334E+02  0.10401529108E+03  0.11934385189E+03  0.00000000000E+00 0. -1.
        -11    1    5    5    0    0 -0.23697890507E+03 -0.26934008350E+02  0.35669028854E+03  0.42908321359E+03  0.00000000000E+00 0.  1.
          4    1    6    6  503    0  0.43011908912E+02  0.83613439994E+02 -0.99506913336E+01  0.94552884218E+02  0.00000000000E+00 0. -1.
         -4    1    6    6    0  503  0.42776350932E+02  0.53119714230E+03 -0.61266836216E+02  0.53642692457E+03  0.00000000000E+00 0.  1.
<mgrwt>
<rscale>  0 0.25365909E+04</rscale>
<asrwt>0</asrwt>
<pdfrwt beam="1">  1        2 0.28861146E+00 0.25365909E+04</pdfrwt>
<pdfrwt beam="2">  1       -1 0.13191695E+00 0.25365909E+04</pdfrwt>
<totfact> 0.38721360E+00</totfact>
</mgrwt>
</event>
<event>
12    6  0.1769001E-007  0.2504019E+04  0.7818608E-02  0.8401555E-01
         -1   -1    0    0    0  501 -0.00000000000E+00  0.00000000000E+00  0.53324042135E+03  0.53324042135E+03  0.00000000000E+00 0.  1.
          2   -1    0    0  501    0  0.00000000000E+00 -0.00000000000E+00 -0.29396277880E+04  0.29396277880E+04  0.00000000000E+00 0. -1.
         24    2    1    2    0    0 -0.62488600366E+02 -0.72709758909E+03 -0.20983953849E+04  0.22231076914E+04  0.79805305734E+02 0.  0.
        254    2    1    2    0    0  0.62488600366E+02  0.72709758909E+03 -0.30799198176E+03  0.12497605180E+04  0.96667810685E+03 0.  0.
         23    2    4    4    0    0  0.47263704165E+03  0.59710838700E+03 -0.25275792445E+03  0.80668163648E+03  0.83213552356E+02 0.  0.
         23    2    4    4    0    0 -0.41014844129E+03  0.12998920209E+03 -0.55234057310E+02  0.44307888151E+03  0.90272684692E+02 0.  0.
          2    1    3    3  502    0 -0.69952711428E+02 -0.68972766214E+03 -0.19386154384E+04  0.20588461448E+04  0.00000000000E+00 0. -1.
         -1    1    3    3    0  502  0.74641110625E+01 -0.37369926953E+02 -0.15977994647E+03  0.16426154660E+03  0.00000000000E+00 0.  1.
         11    1    5    5    0    0  0.10480678066E+03  0.14667264275E+03 -0.24414325593E+02  0.18191587259E+03  0.00000000000E+00 0.  1.
        -11    1    5    5    0    0  0.36783026099E+03  0.45043574425E+03 -0.22834359886E+03  0.62476576390E+03  0.00000000000E+00 0. -1.
          1    1    6    6  503    0 -0.34200893463E+03  0.11517986522E+03 -0.12099789401E+02  0.36108574829E+03  0.00000000000E+00 0. -1.
         -1    1    6    6    0  503 -0.68139506660E+02  0.14809336869E+02 -0.43134267909E+02  0.81993133215E+02  0.00000000000E+00 0.  1.
<mgrwt>
<rscale>  0 0.25040195E+04</rscale>
<asrwt>0</asrwt>
<pdfrwt beam="1">  1        2 0.45225043E+00 0.25040195E+04</pdfrwt>
<pdfrwt beam="2">  1       -1 0.82036988E-01 0.25040195E+04</pdfrwt>
<totfact> 0.28461824E+00</totfact>
</mgrwt>
</event>
<event>
12    6  0.1611689E-007  0.1301838E+04  0.7818608E-02  0.9028109E-01
         -1   -1    0    0    0  501 -0.00000000000E+00  0.00000000000E+00  0.92740946769E+03  0.92740946769E+03  0.00000000000E+00 0.  1.
          2   -1    0    0  501    0  0.00000000000E+00 -0.00000000000E+00 -0.45685911305E+03  0.45685911305E+03  0.00000000000E+00 0. -1.
         24    2    1    2    0    0 -0.17321697495E+02  0.27864790172E+03 -0.59398337370E+02  0.29644304371E+03  0.80035125698E+02 0.  0.
        254    2    1    2    0    0  0.17321697495E+02 -0.27864790172E+03  0.52994869201E+03  0.10878255370E+04  0.90806061941E+03 0.  0.
         23    2    4    4    0    0  0.40813104201E+03 -0.19185168887E+03  0.61287764493E+02  0.46446871201E+03  0.92719881321E+02 0.  0.
         23    2    4    4    0    0 -0.39080934451E+03 -0.86796212846E+02  0.46866092752E+03  0.62335682502E+03  0.93086733734E+02 0.  0.
          4    1    3    3  502    0 -0.42487786198E+02  0.24363711052E+03 -0.50636824016E+02  0.25244472968E+03  0.00000000000E+00 0. -1.
         -3    1    3    3    0  502  0.25166088703E+02  0.35010791200E+02 -0.87615133536E+01  0.43998314028E+02  0.00000000000E+00 0.  1.
         11    1    5    5    0    0  0.10703493187E+03 -0.13080005409E+02  0.34765378562E+02  0.11329693168E+03  0.00000000000E+00 0. -1.
        -11    1    5    5    0    0  0.30109611014E+03 -0.17877168346E+03  0.26522385931E+02  0.35117178033E+03  0.00000000000E+00 0.  1.
          4    1    6    6  503    0 -0.15461099214E+03 -0.15483285224E+02  0.24627058481E+03  0.29119322099E+03  0.00000000000E+00 0.  1.
         -4    1    6    6    0  503 -0.23619835237E+03 -0.71312927622E+02  0.22239034271E+03  0.33216360403E+03  0.00000000000E+00 0. -1.
<mgrwt>
<rscale>  0 0.13018379E+04</rscale>
<asrwt>0</asrwt>
<pdfrwt beam="1">  1        2 0.70286017E-01 0.13018379E+04</pdfrwt>
<pdfrwt beam="2">  1       -1 0.14267838E+00 0.13018379E+04</pdfrwt>
<totfact> 0.30561758E+01</totfact>
</mgrwt>
</event>
<event>
12    6  0.1611689E-007  0.2029521E+04  0.7818608E-02  0.8592941E-01
          2   -1    0    0  501    0  0.00000000000E+00  0.00000000000E+00  0.17498036545E+04  0.17498036545E+04  0.00000000000E+00 0. -1.
         -1   -1    0    0    0  501 -0.00000000000E+00 -0.00000000000E+00 -0.58848852413E+03  0.58848852413E+03  0.00000000000E+00 0.  1.
         24    2    1    2    0    0  0.71821394420E+03 -0.21475799850E+03  0.83466940597E+03  0.11256076235E+04  0.91472603905E+02 0.  0.
        254    2    1    2    0    0 -0.71821394420E+03  0.21475799850E+03  0.32664572440E+03  0.12126845551E+04  0.89551891851E+03 0.  0.
         23    2    4    4    0    0 -0.48670353364E+03  0.50745802575E+03  0.40934952154E+03  0.81950788772E+03  0.98143617719E+02 0.  0.
         23    2    4    4    0    0 -0.23151041056E+03 -0.29270002726E+03 -0.82703797139E+02  0.39317666740E+03  0.92073870208E+02 0.  0.
          4    1    3    3  502    0  0.55185122438E+03 -0.13952586591E+03  0.67583152990E+03  0.88360369958E+03  0.00000000000E+00 0. -1.
         -3    1    3    3    0  502  0.16636271982E+03 -0.75232132583E+02  0.15883787607E+03  0.24200392392E+03  0.00000000000E+00 0.  1.
         11    1    5    5    0    0 -0.39791252689E+03  0.41682436896E+03  0.37681189371E+03  0.68852315637E+03  0.00000000000E+00 0. -1.
        -11    1    5    5    0    0 -0.88791006747E+02  0.90633656796E+02  0.32537627828E+02  0.13098473135E+03  0.00000000000E+00 0.  1.
          4    1    6    6  503    0 -0.90806368147E+02 -0.56317519751E+02 -0.43243435154E+02  0.11527122022E+03  0.00000000000E+00 0. -1.
         -4    1    6    6    0  503 -0.14070404241E+03 -0.23638250751E+03 -0.39460361985E+02  0.27790544719E+03  0.00000000000E+00 0.  1.
<mgrwt>
<rscale>  0 0.20295215E+04</rscale>
<asrwt>0</asrwt>
<pdfrwt beam="1">  1        2 0.26920056E+00 0.20295215E+04</pdfrwt>
<pdfrwt beam="2">  1       -1 0.90536697E-01 0.20295215E+04</pdfrwt>
<totfact> 0.11577512E+01</totfact>
</mgrwt>
</event>
<event>
12    6  0.1611689E-007  0.2137684E+04  0.7818608E-02  0.8544823E-01
         -1   -1    0    0    0  501 -0.00000000000E+00  0.00000000000E+00  0.62544748686E+03  0.62544748686E+03  0.00000000000E+00 0.  1.
          2   -1    0    0  501    0  0.00000000000E+00 -0.00000000000E+00 -0.18265694398E+04  0.18265694398E+04  0.00000000000E+00 0. -1.
         24    2    1    2    0    0  0.14594371409E+03 -0.48170573254E+03 -0.13199752844E+04  0.14149849248E+04  0.80669731420E+02 0.  0.
        254    2    1    2    0    0 -0.14594371409E+03  0.48170573254E+03  0.11885333146E+03  0.10370320019E+04  0.89887111313E+03 0.  0.
         23    2    4    4    0    0 -0.18605163574E+03 -0.31794822385E+02  0.39368991742E+03  0.44614970329E+03  0.91824205827E+02 0.  0.
         23    2    4    4    0    0  0.40107921645E+02  0.51350055493E+03 -0.27483658596E+03  0.59088229857E+03  0.91188137870E+02 0.  0.
          4    1    3    3  502    0  0.13213847587E+03 -0.32351213191E+03 -0.85581862020E+03  0.92441667390E+03  0.00000000000E+00 0. -1.
         -3    1    3    3    0  502  0.13805238225E+02 -0.15819360064E+03 -0.46415666419E+03  0.49056825091E+03  0.00000000000E+00 0.  1.
         11    1    5    5    0    0 -0.16832920556E+03  0.56605415053E+01  0.31250682702E+03  0.35500321140E+03  0.00000000000E+00 0. -1.
        -11    1    5    5    0    0 -0.17722430175E+02 -0.37455363890E+02  0.81183090399E+02  0.91146491881E+02  0.00000000000E+00 0.  1.
          1    1    6    6  503    0  0.66599299689E+01  0.38544464376E+03 -0.23969421238E+03  0.45394409735E+03  0.00000000000E+00 0. -1.
         -1    1    6    6    0  503  0.33447991676E+02  0.12805591116E+03 -0.35142373584E+02  0.13693820122E+03  0.00000000000E+00 0.  1.
<mgrwt>
<rscale>  0 0.21376840E+04</rscale>
<asrwt>0</asrwt>
<pdfrwt beam="1">  1        2 0.28101068E+00 0.21376840E+04</pdfrwt>
<pdfrwt beam="2">  1       -1 0.96222691E-01 0.21376840E+04</pdfrwt>
<totfact> 0.90761507E+00</totfact>
</mgrwt>
</event>
<event>
12    6  0.1611689E-007  0.1090662E+04  0.7818608E-02  0.9214342E-01
         -1   -1    0    0    0  501 -0.00000000000E+00  0.00000000000E+00  0.41163979796E+03  0.41163979796E+03  0.00000000000E+00 0.  1.
          2   -1    0    0  501    0  0.00000000000E+00 -0.00000000000E+00 -0.72244145421E+03  0.72244145421E+03  0.00000000000E+00 0. -1.
         24    2    1    2    0    0  0.10823379312E+03 -0.10291585893E+03  0.99691741955E+00  0.16977532919E+03  0.80724473138E+02 0.  0.
        254    2    1    2    0    0 -0.10823379312E+03  0.10291585893E+03 -0.31179857367E+03  0.96430592298E+03  0.90020071904E+03 0.  0.
         23    2    4    4    0    0 -0.46960716085E+03  0.14839640114E+03 -0.44876153257E+02  0.50359214139E+03  0.95072595108E+02 0.  0.
         23    2    4    4    0    0  0.36137336773E+03 -0.45480542211E+02 -0.26692242041E+03  0.46071378160E+03  0.91380629303E+02 0.  0.
          2    1    3    3  502    0  0.43280989225E+02  0.52505111776E+01  0.78106037081E+00  0.43605297284E+02  0.00000000000E+00 0. -1.
         -1    1    3    3    0  502  0.64952803899E+02 -0.10816637011E+03  0.21585704874E+00  0.12617003190E+03  0.00000000000E+00 0.  1.
         11    1    5    5    0    0 -0.31853333039E+03  0.53314541905E+02 -0.23627709099E+02  0.32382741018E+03  0.00000000000E+00 0. -1.
        -11    1    5    5    0    0 -0.15107383047E+03  0.95081859237E+02 -0.21248444158E+02  0.17976473121E+03  0.00000000000E+00 0.  1.
          4    1    6    6  503    0  0.96938976486E+02  0.22765674083E+02 -0.47190735260E+02  0.11019258856E+03  0.00000000000E+00 0. -1.
         -4    1    6    6    0  503  0.26443439124E+03 -0.68246216295E+02 -0.21973168515E+03  0.35052119304E+03  0.00000000000E+00 0.  1.
<mgrwt>
<rscale>  0 0.10906616E+04</rscale>
<asrwt>0</asrwt>
<pdfrwt beam="1">  1        2 0.11114484E+00 0.10906616E+04</pdfrwt>
<pdfrwt beam="2">  1       -1 0.63329200E-01 0.10906616E+04</pdfrwt>
<totfact> 0.11292982E+02</totfact>
</mgrwt>
</event>
<event>
12    6  0.1611689E-007  0.1780948E+04  0.7818608E-02  0.8716497E-01
         -1   -1    0    0    0  501 -0.00000000000E+00  0.00000000000E+00  0.49551509197E+03  0.49551509197E+03  0.00000000000E+00 0.  1.
          2   -1    0    0  501    0  0.00000000000E+00 -0.00000000000E+00 -0.16002418760E+04  0.16002418760E+04  0.00000000000E+00 0. -1.
         24    2    1    2    0    0 -0.56931207518E+02  0.24261083830E+01  0.36122302640E+03  0.37565461534E+03  0.85949210757E+02 0.  0.
        254    2    1    2    0    0  0.56931207518E+02 -0.24261083830E+01 -0.14659498104E+04  0.17201023526E+04  0.89805133954E+03 0.  0.
         23    2    4    4    0    0  0.20409959203E+03 -0.18983749979E+03 -0.72318760682E+02  0.30321569873E+03  0.94946495557E+02 0.  0.
         23    2    4    4    0    0 -0.14716838452E+03  0.18741139141E+03 -0.13936310497E+04  0.14168866539E+04  0.92621402183E+02 0.  0.
          4    1    3    3  502    0 -0.42275264757E+01 -0.32638037025E+02  0.66354277239E+02  0.74067560706E+02  0.00000000000E+00 0. -1.
         -3    1    3    3    0  502 -0.52703681042E+02  0.35064145408E+02  0.29486874916E+03  0.30158705463E+03  0.00000000000E+00 0.  1.
         11    1    5    5    0    0  0.19377517825E+03 -0.19624772856E+03 -0.53685864086E+02  0.28097003875E+03  0.00000000000E+00 0. -1.
        -11    1    5    5    0    0  0.10324413778E+02  0.64102287672E+01 -0.18632896596E+02  0.22245659987E+02  0.00000000000E+00 0.  1.
          2    1    6    6  503    0 -0.23462586486E+02  0.72032305580E+02 -0.64204958363E+03  0.64650352965E+03  0.00000000000E+00 0.  1.
         -2    1    6    6    0  503 -0.12370579803E+03  0.11537908583E+03 -0.75158146612E+03  0.77038312425E+03  0.00000000000E+00 0. -1.
<mgrwt>
<rscale>  0 0.17809481E+04</rscale>
<asrwt>0</asrwt>
<pdfrwt beam="1">  1        2 0.24619106E+00 0.17809481E+04</pdfrwt>
<pdfrwt beam="2">  1       -1 0.76233091E-01 0.17809481E+04</pdfrwt>
<totfact> 0.20747425E+01</totfact>
</mgrwt>
</event>
<event>
12    6  0.1611689E-007  0.2359370E+04  0.7818608E-02  0.8454873E-01
          2   -1    0    0  501    0  0.00000000000E+00  0.00000000000E+00  0.19041101462E+04  0.19041101462E+04  0.00000000000E+00 0. -1.
         -1   -1    0    0    0  501 -0.00000000000E+00 -0.00000000000E+00 -0.73086978844E+03  0.73086978844E+03  0.00000000000E+00 0.  1.
         24    2    1    2    0    0 -0.97631241171E+03 -0.17265742883E+03  0.69312311048E+03  0.12125951079E+04  0.83490935546E+02 0.  0.
        254    2    1    2    0    0  0.97631241171E+03  0.17265742883E+03  0.48011724730E+03  0.14223848268E+04  0.89981637651E+03 0.  0.
         23    2    4    4    0    0  0.66234150642E+02  0.37637659258E+03  0.68414311907E+02  0.39886169590E+03  0.91453989687E+02 0.  0.
         23    2    4    4    0    0  0.91007826106E+03 -0.20371916375E+03  0.41170293540E+03  0.10235231309E+04  0.91413093028E+02 0.  0.
          4    1    3    3  502    0 -0.58680009659E+03 -0.10864948147E+03  0.36721779664E+03  0.70070533989E+03  0.00000000000E+00 0. -1.
         -3    1    3    3    0  502 -0.38951231512E+03 -0.64007947363E+02  0.32590531384E+03  0.51188976796E+03  0.00000000000E+00 0.  1.
         11    1    5    5    0    0 -0.14846866710E+02  0.90924043191E+02 -0.78851667286E+01  0.92465057917E+02  0.00000000000E+00 0.  1.
        -11    1    5    5    0    0  0.81081017352E+02  0.28545254939E+03  0.76299478636E+02  0.30639663799E+03  0.00000000000E+00 0. -1.
          1    1    6    6  503    0  0.15294982054E+03 -0.62317231275E+02  0.49695556039E+02  0.17247241289E+03  0.00000000000E+00 0.  1.
         -1    1    6    6    0  503  0.75712844052E+03 -0.14140193248E+03  0.36200737936E+03  0.85105071803E+03  0.00000000000E+00 0. -1.
<mgrwt>
<rscale>  0 0.23593699E+04</rscale>
<asrwt>0</asrwt>
<pdfrwt beam="1">  1        2 0.29294002E+00 0.23593699E+04</pdfrwt>
<pdfrwt beam="2">  1       -1 0.11244151E+00 0.23593699E+04</pdfrwt>
<totfact> 0.56187863E+00</totfact>
</mgrwt>
</event>
<event>
12    6  0.1611689E-007  0.2910164E+04  0.7818608E-02  0.8269860E-01
         -1   -1    0    0    0  501 -0.00000000000E+00  0.00000000000E+00  0.11929942210E+04  0.11929942210E+04  0.00000000000E+00 0.  1.
          2   -1    0    0  501    0  0.00000000000E+00 -0.00000000000E+00 -0.17747474199E+04  0.17747474199E+04  0.00000000000E+00 0. -1.
         24    2    1    2    0    0 -0.92849899535E+03 -0.84631461222E+03  0.13159024834E+03  0.12656893647E+04  0.79339568491E+02 0.  0.
        254    2    1    2    0    0  0.92849899535E+03  0.84631461222E+03 -0.71334344729E+03  0.17020522763E+04  0.89986902945E+03 0.  0.
         23    2    4    4    0    0  0.70715695120E+03  0.78194909863E+03 -0.12856879988E+03  0.10669011407E+04  0.10115711167E+03 0.  0.
         23    2    4    4    0    0  0.22134204414E+03  0.64365513584E+02 -0.58477464741E+03  0.63515113557E+03  0.91215990468E+02 0.  0.
          4    1    3    3  502    0 -0.45825445848E+02 -0.40277939669E+02 -0.10634519317E+02  0.61930419926E+02  0.00000000000E+00 0. -1.
         -3    1    3    3    0  502 -0.88267354950E+03 -0.80603667255E+03  0.14222476766E+03  0.12037589447E+04  0.00000000000E+00 0.  1.
         11    1    5    5    0    0  0.10418105942E+03  0.16331203203E+03 -0.14579694913E+01  0.19371793573E+03  0.00000000000E+00 0. -1.
        -11    1    5    5    0    0  0.60297589178E+03  0.61863706660E+03 -0.12711083039E+03  0.87318320497E+03  0.00000000000E+00 0.  1.
          2    1    6    6  503    0  0.20002833666E+03  0.65943971070E+02 -0.42895594283E+03  0.47787356453E+03  0.00000000000E+00 0. -1.
         -2    1    6    6    0  503  0.21313707478E+02 -0.15784574864E+01 -0.15581870458E+03  0.15727757103E+03  0.00000000000E+00 0.  1.
<mgrwt>
<rscale>  0 0.29101639E+04</rscale>
<asrwt>0</asrwt>
<pdfrwt beam="1">  1        2 0.27303806E+00 0.29101639E+04</pdfrwt>
<pdfrwt beam="2">  1       -1 0.18353757E+00 0.29101639E+04</pdfrwt>
<totfact> 0.17171551E+00</totfact>
</mgrwt>
</event>
<event>
12    6  0.1611689E-007  0.1390009E+04  0.7818608E-02  0.8961082E-01
         -1   -1    0    0    0  501 -0.00000000000E+00  0.00000000000E+00  0.48456396920E+03  0.48456396920E+03  0.00000000000E+00 0.  1.
          2   -1    0    0  501    0  0.00000000000E+00 -0.00000000000E+00 -0.99683692813E+03  0.99683692813E+03  0.00000000000E+00 0. -1.
         24    2    1    2    0    0 -0.88145170820E+02  0.15909844076E+03  0.21907520068E+03  0.29534647963E+03  0.78445614838E+02 0.  0.
        254    2    1    2    0    0  0.88145170820E+02 -0.15909844076E+03 -0.73134815961E+03  0.11860544177E+04  0.91584554712E+03 0.  0.
         23    2    4    4    0    0 -0.27536774231E+03 -0.34688673958E+03 -0.16468037991E+03  0.48120017929E+03  0.90973520436E+02 0.  0.
         23    2    4    4    0    0  0.36351291313E+03  0.18778829882E+03 -0.56666777970E+03  0.70485423841E+03  0.91110052499E+02 0.  0.
          4    1    3    3  502    0  0.14430350405E+02  0.28186647376E+02  0.31639428516E+02  0.44763551467E+02  0.00000000000E+00 0. -1.
         -3    1    3    3    0  502 -0.10257552122E+03  0.13091179339E+03  0.18743577216E+03  0.25058292817E+03  0.00000000000E+00 0.  1.
         11    1    5    5    0    0 -0.86172828975E+02 -0.94243985737E+02 -0.57923863907E+01  0.12783284805E+03  0.00000000000E+00 0. -1.
        -11    1    5    5    0    0 -0.18919491333E+03 -0.25264275385E+03 -0.15888799352E+03  0.35336733124E+03  0.00000000000E+00 0.  1.
          3    1    6    6  503    0  0.24305594792E+03  0.85714091776E+02 -0.39474874452E+03  0.47143363334E+03  0.00000000000E+00 0. -1.
         -3    1    6    6    0  503  0.12045696520E+03  0.10207420705E+03 -0.17191903518E+03  0.23342060506E+03  0.00000000000E+00 0.  1.
<mgrwt>
<rscale>  0 0.13900090E+04</rscale>
<asrwt>0</asrwt>
<pdfrwt beam="1">  1        2 0.15335953E+00 0.13900090E+04</pdfrwt>
<pdfrwt beam="2">  1       -1 0.74548304E-01 0.13900090E+04</pdfrwt>
<totfact> 0.50930302E+01</totfact>
</mgrwt>
</event>
<event>
12    6  0.1611689E-007  0.1569152E+04  0.7818608E-02  0.8839727E-01
          2   -1    0    0  501    0  0.00000000000E+00  0.00000000000E+00  0.23686927088E+04  0.23686927088E+04  0.00000000000E+00 0. -1.
         -1   -1    0    0    0  501 -0.00000000000E+00 -0.00000000000E+00 -0.25987306738E+03  0.25987306738E+03  0.00000000000E+00 0.  1.
         24    2    1    2    0    0 -0.87321153529E+02  0.26902197181E+01  0.15496344307E+04  0.15538186554E+04  0.73166414483E+02 0.  0.
        254    2    1    2    0    0  0.87321153529E+02 -0.26902197181E+01  0.55918521073E+03  0.10747471207E+04  0.91365258846E+03 0.  0.
         23    2    4    4    0    0  0.11951193749E+03 -0.13819306253E+02 -0.23244466887E+03  0.27724038136E+03  0.91420066430E+02 0.  0.
         23    2    4    4    0    0 -0.32190783959E+02  0.11129086535E+02  0.79162987959E+03  0.79750673932E+03  0.90437989067E+02 0.  0.
          2    1    3    3  502    0 -0.83928215864E+02 -0.65292856690E+01  0.15246492677E+04  0.15269715015E+04  0.00000000000E+00 0. -1.
         -1    1    3    3    0  502 -0.33929376648E+01  0.92195053871E+01  0.24985162974E+02  0.26847153935E+02  0.00000000000E+00 0.  1.
         11    1    5    5    0    0  0.70399548209E+02  0.28701562099E+02 -0.17389193649E+03  0.18978482983E+03  0.00000000000E+00 0.  1.
        -11    1    5    5    0    0  0.49112389278E+02 -0.42520868352E+02 -0.58552732373E+02  0.87455551535E+02  0.00000000000E+00 0. -1.
          4    1    6    6  503    0 -0.45239804084E+01  0.49293291950E+02  0.40360849967E+03  0.40663265491E+03  0.00000000000E+00 0. -1.
         -4    1    6    6    0  503 -0.27666803550E+02 -0.38164205415E+02  0.38802137992E+03  0.39087408442E+03  0.00000000000E+00 0.  1.
<mgrwt>
<rscale>  0 0.15691519E+04</rscale>
<asrwt>0</asrwt>
<pdfrwt beam="1">  1        2 0.36441425E+00 0.15691519E+04</pdfrwt>
<pdfrwt beam="2">  1       -1 0.39980473E-01 0.15691519E+04</pdfrwt>
<totfact> 0.27692245E+01</totfact>
</mgrwt>
</event>
<event>
12    6  0.1611689E-007  0.1314283E+04  0.7818608E-02  0.9018314E-01
         -1   -1    0    0    0  501 -0.00000000000E+00  0.00000000000E+00  0.28103698704E+03  0.28103698704E+03  0.00000000000E+00 0.  1.
          2   -1    0    0  501    0  0.00000000000E+00 -0.00000000000E+00 -0.15365775307E+04  0.15365775307E+04  0.00000000000E+00 0. -1.
         24    2    1    2    0    0  0.15475113542E+03 -0.28739176023E+03 -0.18981871327E+03  0.38589575761E+03  0.79639525813E+02 0.  0.
        254    2    1    2    0    0 -0.15475113542E+03  0.28739176023E+03 -0.10657218304E+04  0.14317187602E+04  0.89861763315E+03 0.  0.
         23    2    4    4    0    0  0.68035841794E+02  0.55360273383E+03 -0.82233330543E+03  0.99754838551E+03  0.88124080409E+02 0.  0.
         23    2    4    4    0    0 -0.22278697721E+03 -0.26621097360E+03 -0.24338852499E+03  0.43417037465E+03  0.93614210712E+02 0.  0.
          4    1    3    3  502    0  0.32734764727E+01 -0.99292671462E+01 -0.29806295399E+02  0.31586725688E+02  0.00000000000E+00 0. -1.
         -3    1    3    3    0  502  0.15147765895E+03 -0.27746249309E+03 -0.16001241787E+03  0.35430903192E+03  0.00000000000E+00 0.  1.
         11    1    5    5    0    0  0.13382425701E+02  0.14494379015E+02 -0.52888181436E+02  0.56447640130E+02  0.00000000000E+00 0.  1.
        -11    1    5    5    0    0  0.54653416093E+02  0.53910835482E+03 -0.76944512399E+03  0.94110074538E+03  0.00000000000E+00 0. -1.
          1    1    6    6  503    0 -0.22438185290E+03 -0.22333536766E+03 -0.21656160432E+03  0.38356854775E+03  0.00000000000E+00 0. -1.
         -1    1    6    6    0  503  0.15948756839E+01 -0.42875605939E+02 -0.26826920672E+02  0.50601826902E+02  0.00000000000E+00 0.  1.
<mgrwt>
<rscale>  0 0.13142833E+04</rscale>
<asrwt>0</asrwt>
<pdfrwt beam="1">  1        2 0.23639654E+00 0.13142833E+04</pdfrwt>
<pdfrwt beam="2">  1       -1 0.43236460E-01 0.13142833E+04</pdfrwt>
<totfact> 0.71242549E+01</totfact>
</mgrwt>
</event>
<event>
12    6  0.1611689E-007  0.2515766E+04  0.7818608E-02  0.8397390E-01
         -1   -1    0    0    0  501 -0.00000000000E+00  0.00000000000E+00  0.54780708786E+03  0.54780708786E+03  0.00000000000E+00 0.  1.
          2   -1    0    0  501    0  0.00000000000E+00 -0.00000000000E+00 -0.28883712999E+04  0.28883712999E+04  0.00000000000E+00 0. -1.
         24    2    1    2    0    0 -0.54118062411E+03  0.94491493280E+03 -0.12889545952E+04  0.16891269304E+04  0.77492839562E+02 0.  0.
        254    2    1    2    0    0  0.54118062411E+03 -0.94491493280E+03 -0.10516096169E+04  0.17470514574E+04  0.87210395627E+03 0.  0.
         23    2    4    4    0    0  0.20882464929E+03  0.45737039607E+02 -0.52107309956E+03  0.57152675565E+03  0.97087828236E+02 0.  0.
         23    2    4    4    0    0  0.33235597481E+03 -0.99065197240E+03 -0.53053651730E+03  0.11755247018E+04  0.92398614282E+02 0.  0.
          4    1    3    3  502    0 -0.47566435543E+03  0.86601373638E+03 -0.11885682258E+04  0.15456166401E+04  0.00000000000E+00 0. -1.
         -3    1    3    3    0  502 -0.65516268676E+02  0.78901196420E+02 -0.10038636940E+03  0.14351029029E+03  0.00000000000E+00 0.  1.
         11    1    5    5    0    0  0.11701720946E+03  0.74125602110E+02 -0.31835588261E+03  0.34718597350E+03  0.00000000000E+00 0. -1.
        -11    1    5    5    0    0  0.91807439834E+02 -0.28388562503E+02 -0.20271721695E+03  0.22434078215E+03  0.00000000000E+00 0.  1.
          1    1    6    6  503    0  0.31468577731E+03 -0.94064448174E+03 -0.52483557400E+03  0.11221816071E+04  0.00000000000E+00 0. -1.
         -1    1    6    6    0  503  0.17670197503E+02 -0.50007490667E+02 -0.57009432995E+01  0.53343094746E+02  0.00000000000E+00 0.  1.
<mgrwt>
<rscale>  0 0.25157665E+04</rscale>
<asrwt>0</asrwt>
<pdfrwt beam="1">  1        2 0.44436482E+00 0.25157665E+04</pdfrwt>
<pdfrwt beam="2">  1       -1 0.84278013E-01 0.25157665E+04</pdfrwt>
<totfact> 0.28853657E+00</totfact>
</mgrwt>
</event>
<event>
12    6  0.1611689E-007  0.1720120E+04  0.7818608E-02  0.8749972E-01
         -1   -1    0    0    0  501 -0.00000000000E+00  0.00000000000E+00  0.35467551184E+03  0.35467551184E+03  0.00000000000E+00 0.  1.
          2   -1    0    0  501    0  0.00000000000E+00 -0.00000000000E+00 -0.20855763916E+04  0.20855763916E+04  0.00000000000E+00 0. -1.
         24    2    1    2    0    0  0.18595040617E+03 -0.24780829355E+03  0.13026347687E+03  0.34521017591E+03  0.78835196686E+02 0.  0.
        254    2    1    2    0    0 -0.18595040617E+03  0.24780829355E+03 -0.18611643566E+04  0.20950417275E+04  0.91064843587E+03 0.  0.
         23    2    4    4    0    0 -0.32169818808E+02  0.57622512380E+03 -0.12228960616E+04  0.13553915278E+04  0.92418210197E+02 0.  0.
         23    2    4    4    0    0 -0.15378058736E+03 -0.32841683025E+03 -0.63826829501E+03  0.73965019972E+03  0.90498166231E+02 0.  0.
          2    1    3    3  502    0 -0.26172615238E+00 -0.70576864169E+01  0.20465178351E+02  0.21649548796E+02  0.00000000000E+00 0. -1.
         -1    1    3    3    0  502  0.18621213232E+03 -0.24075060714E+03  0.10979829852E+03  0.32356062711E+03  0.00000000000E+00 0.  1.
         11    1    5    5    0    0  0.53511876452E+01  0.49337740646E+03 -0.10224037775E+04  0.11352353873E+04  0.00000000000E+00 0. -1.
        -11    1    5    5    0    0 -0.37521006453E+02  0.82847717337E+02 -0.20049228413E+03  0.22015614047E+03  0.00000000000E+00 0.  1.
          3    1    6    6  503    0 -0.15273792708E+03 -0.33126146848E+03 -0.60656398252E+03  0.70780145504E+03  0.00000000000E+00 0. -1.
         -3    1    6    6    0  503 -0.10426602745E+01  0.28446382308E+01 -0.31704312485E+02  0.31848744673E+02  0.00000000000E+00 0.  1.
<mgrwt>
<rscale>  0 0.17201196E+04</rscale>
<asrwt>0</asrwt>
<pdfrwt beam="1">  1        2 0.32085791E+00 0.17201196E+04</pdfrwt>
<pdfrwt beam="2">  1       -1 0.54565463E-01 0.17201196E+04</pdfrwt>
<totfact> 0.21980220E+01</totfact>
</mgrwt>
</event>
<event>
12    6  0.1611689E-007  0.1372020E+04  0.7818608E-02  0.8974324E-01
          2   -1    0    0  501    0  0.00000000000E+00  0.00000000000E+00  0.37660907735E+04  0.37660907735E+04  0.00000000000E+00 0. -1.
         -1   -1    0    0    0  501 -0.00000000000E+00 -0.00000000000E+00 -0.12495979072E+03  0.12495979072E+03  0.00000000000E+00 0.  1.
         24    2    1    2    0    0  0.21971877845E+03 -0.31773546352E+03  0.91635250441E+03  0.99767393765E+03  0.80119954733E+02 0.  0.
        254    2    1    2    0    0 -0.21971877845E+03  0.31773546352E+03  0.27247784784E+04  0.28933766266E+04  0.89329635655E+03 0.  0.
         23    2    4    4    0    0 -0.20014177247E+03  0.56379739243E+03  0.23990746943E+04  0.24744883037E+04  0.98024219300E+02 0.  0.
         23    2    4    4    0    0 -0.19577005984E+02 -0.24606192892E+03  0.32570378407E+03  0.41888832287E+03  0.91949660403E+02 0.  0.
          4    1    3    3  502    0  0.16561196733E+02 -0.76745174412E+02  0.20955840027E+03  0.22378297111E+03  0.00000000000E+00 0. -1.
         -3    1    3    3    0  502  0.20315758172E+03 -0.24099028910E+03  0.70679410414E+03  0.77389096654E+03  0.00000000000E+00 0.  1.
         11    1    5    5    0    0  0.25736419351E+01  0.28848825660E+02  0.20610305862E+03  0.20812820364E+03  0.00000000000E+00 0.  1.
        -11    1    5    5    0    0 -0.20271541440E+03  0.53494856677E+03  0.21929716357E+04  0.22663601001E+04  0.00000000000E+00 0. -1.
          2    1    6    6  503    0  0.92915981487E+00 -0.21423585942E+02  0.90473715217E+02  0.92980247998E+02  0.00000000000E+00 0.  1.
         -2    1    6    6    0  503 -0.20506165799E+02 -0.22463834297E+03  0.23523006886E+03  0.32590807487E+03  0.00000000000E+00 0. -1.
<mgrwt>
<rscale>  0 0.13720203E+04</rscale>
<asrwt>0</asrwt>
<pdfrwt beam="1">  1        2 0.57939849E+00 0.13720203E+04</pdfrwt>
<pdfrwt beam="2">  1       -1 0.19224586E-01 0.13720203E+04</pdfrwt>
<totfact> 0.12952072E+01</totfact>
</mgrwt>
</event>
<event>
12    6  0.1611689E-007  0.2604469E+04  0.7818608E-02  0.8366685E-01
          2   -1    0    0  501    0  0.00000000000E+00  0.00000000000E+00  0.88357316763E+03  0.88357316763E+03  0.00000000000E+00 0. -1.
         -1   -1    0    0    0  501 -0.00000000000E+00 -0.00000000000E+00 -0.19192694874E+04  0.19192694874E+04  0.00000000000E+00 0.  1.
         24    2    1    2    0    0 -0.38281259838E+03 -0.57344234857E+03  0.52419900622E+03  0.87128336226E+03  0.94702094045E+02 0.  0.
        254    2    1    2    0    0  0.38281259838E+03  0.57344234857E+03 -0.15598953260E+04  0.19315592928E+04  0.90678898366E+03 0.  0.
         23    2    4    4    0    0  0.55891978323E+03  0.21279002002E+03 -0.13274508125E+04  0.14587644364E+04  0.90537862586E+02 0.  0.
         23    2    4    4    0    0 -0.17610718485E+03  0.36065232854E+03 -0.23244451349E+03  0.47279485639E+03  0.91764272657E+02 0.  0.
          4    1    3    3  502    0 -0.27774906376E+03 -0.39481170869E+03  0.41734417692E+03  0.63811988666E+03  0.00000000000E+00 0. -1.
         -3    1    3    3    0  502 -0.10506353462E+03 -0.17863063987E+03  0.10685482930E+03  0.23316347560E+03  0.00000000000E+00 0.  1.
         11    1    5    5    0    0  0.17999683784E+03  0.30580162416E+02 -0.45573880085E+03  0.49094995932E+03  0.00000000000E+00 0.  1.
        -11    1    5    5    0    0  0.37892294540E+03  0.18220985761E+03 -0.87171201167E+03  0.96781447708E+03  0.00000000000E+00 0. -1.
          4    1    6    6  503    0 -0.85943890908E+02  0.87194125323E+02 -0.87102905507E+02  0.15025339937E+03  0.00000000000E+00 0. -1.
         -4    1    6    6    0  503 -0.90163293946E+02  0.27345820322E+03 -0.14534160798E+03  0.32254145701E+03  0.00000000000E+00 0.  1.
<mgrwt>
<rscale>  0 0.26044693E+04</rscale>
<asrwt>0</asrwt>
<pdfrwt beam="1">  1        2 0.13593433E+00 0.26044693E+04</pdfrwt>
<pdfrwt beam="2">  1       -1 0.29527223E+00 0.26044693E+04</pdfrwt>
<totfact> 0.10750675E+00</totfact>
</mgrwt>
</event>
<event>
12    6  0.1611689E-007  0.1356184E+04  0.7818608E-02  0.8986160E-01
          2   -1    0    0  501    0  0.00000000000E+00  0.00000000000E+00  0.27739400180E+04  0.27739400180E+04  0.00000000000E+00 0. -1.
         -1   -1    0    0    0  501 -0.00000000000E+00 -0.00000000000E+00 -0.16576027140E+03  0.16576027140E+03  0.00000000000E+00 0.  1.
         24    2    1    2    0    0 -0.55089635165E+02 -0.23565351292E+03  0.12287016242E+03  0.28248787788E+03  0.78325463813E+02 0.  0.
        254    2    1    2    0    0  0.55089635165E+02  0.23565351292E+03  0.24853095842E+04  0.26572124116E+04  0.90854093178E+03 0.  0.
         23    2    4    4    0    0  0.23089475298E+03 -0.28294040817E+03  0.11814928343E+04  0.12401017725E+04  0.92517172556E+02 0.  0.
         23    2    4    4    0    0 -0.17580511782E+03  0.51859392109E+03  0.13038167499E+04  0.14171106390E+04  0.91746124976E+02 0.  0.
          4    1    3    3  502    0 -0.95997483022E+01 -0.18445064374E+03  0.77310500881E+02  0.20022764217E+03  0.00000000000E+00 0. -1.
         -3    1    3    3    0  502 -0.45489886863E+02 -0.51202869182E+02  0.45559661540E+02  0.82260235709E+02  0.00000000000E+00 0.  1.
         11    1    5    5    0    0  0.17183919588E+03 -0.21733653303E+03  0.10088319846E+04  0.10461863367E+04  0.00000000000E+00 0.  1.
        -11    1    5    5    0    0  0.59055557101E+02 -0.65603875132E+02  0.17266084968E+03  0.19391543587E+03  0.00000000000E+00 0. -1.
          3    1    6    6  503    0  0.80276444887E+01  0.13012395288E+02  0.60440508428E+02  0.62344370766E+02  0.00000000000E+00 0. -1.
         -3    1    6    6    0  503 -0.18383276231E+03  0.50558152580E+03  0.12433762415E+04  0.13547662683E+04  0.00000000000E+00 0.  1.
<mgrwt>
<rscale>  0 0.13561844E+04</rscale>
<asrwt>0</asrwt>
<pdfrwt beam="1">  1        2 0.42675997E+00 0.13561844E+04</pdfrwt>
<pdfrwt beam="2">  1       -1 0.25501582E-01 0.13561844E+04</pdfrwt>
<totfact> 0.36348159E+01</totfact>
</mgrwt>
</event>
<event>
12    6  0.1611689E-007  0.1845777E+04  0.7818608E-02  0.8682328E-01
          2   -1    0    0  501    0  0.00000000000E+00  0.00000000000E+00  0.15264684414E+04  0.15264684414E+04  0.00000000000E+00 0. -1.
         -1   -1    0    0    0  501 -0.00000000000E+00 -0.00000000000E+00 -0.55796955081E+03  0.55796955081E+03  0.00000000000E+00 0.  1.
         24    2    1    2    0    0 -0.36506542694E+03  0.56222436474E+03  0.60487787896E+03  0.90639557912E+03  0.79414703452E+02 0.  0.
        254    2    1    2    0    0  0.36506542694E+03 -0.56222436474E+03  0.36362101161E+03  0.11780424131E+04  0.89788344715E+03 0.  0.
         23    2    4    4    0    0  0.43084764396E+03 -0.10767286277E+03 -0.15540404664E+03  0.47900167621E+03  0.89827893333E+02 0.  0.
         23    2    4    4    0    0 -0.65782217021E+02 -0.45455150198E+03  0.51902505826E+03  0.69904073687E+03  0.91250055746E+02 0.  0.
          2    1    3    3  502    0 -0.35254947394E+03  0.55938217808E+03  0.58567035293E+03  0.88329457999E+03  0.00000000000E+00 0. -1.
         -1    1    3    3    0  502 -0.12515953002E+02  0.28421866623E+01  0.19207526033E+02  0.23100999132E+02  0.00000000000E+00 0.  1.
         11    1    5    5    0    0  0.40779262543E+03 -0.11827417691E+03 -0.15895962449E+03  0.45337817382E+03  0.00000000000E+00 0. -1.
        -11    1    5    5    0    0  0.23055018532E+02  0.10601314144E+02  0.35555778500E+01  0.25623502394E+02  0.00000000000E+00 0.  1.
          2    1    6    6  503    0 -0.56373100694E+01 -0.18119319693E+03  0.26490367396E+03  0.32099331824E+03  0.00000000000E+00 0. -1.
         -2    1    6    6    0  503 -0.60144906951E+02 -0.27335830505E+03  0.25412138429E+03  0.37804741862E+03  0.00000000000E+00 0.  1.
<mgrwt>
<rscale>  0 0.18457767E+04</rscale>
<asrwt>0</asrwt>
<pdfrwt beam="1">  1        2 0.23484130E+00 0.18457767E+04</pdfrwt>
<pdfrwt beam="2">  1       -1 0.85841470E-01 0.18457767E+04</pdfrwt>
<totfact> 0.17614213E+01</totfact>
</mgrwt>
</event>
<event>
12    6  0.1611689E-007  0.1809728E+04  0.7818608E-02  0.8701143E-01
         -3   -1    0    0    0  501 -0.00000000000E+00  0.00000000000E+00  0.83411497393E+03  0.83411497393E+03  0.00000000000E+00 0.  1.
          4   -1    0    0  501    0  0.00000000000E+00 -0.00000000000E+00 -0.98161354037E+03  0.98161354037E+03  0.00000000000E+00 0. -1.
         24    2    1    2    0    0 -0.24301147986E+02  0.10056065762E+03  0.61880512644E+03  0.63230217718E+03  0.78633752981E+02 0.  0.
        254    2    1    2    0    0  0.24301147986E+02 -0.10056065762E+03 -0.76630369288E+03  0.11834263371E+04  0.89586469625E+03 0.  0.
         23    2    4    4    0    0  0.31729666215E+03  0.24293073647E+03 -0.51708491563E+03  0.65961000115E+03  0.89532279664E+02 0.  0.
         23    2    4    4    0    0 -0.29299551417E+03 -0.34349139409E+03 -0.24921877725E+03  0.52381633597E+03  0.91874075520E+02 0.  0.
          2    1    3    3  502    0 -0.12861841160E+02 -0.10526467332E+02  0.12022458401E+03  0.12136796972E+03  0.00000000000E+00 0. -1.
         -3    1    3    3    0  502 -0.11439306826E+02  0.11108712495E+03  0.49858054243E+03  0.51093420747E+03  0.00000000000E+00 0.  1.
         11    1    5    5    0    0  0.25985872164E+03  0.19203663411E+03 -0.46730724929E+03  0.56813791397E+03  0.00000000000E+00 0. -1.
        -11    1    5    5    0    0  0.57437940510E+02  0.50894102364E+02 -0.49777666340E+02  0.91472087173E+02  0.00000000000E+00 0.  1.
          1    1    6    6  503    0 -0.18781348568E+03 -0.24865478521E+03 -0.12610953484E+03  0.33616472508E+03  0.00000000000E+00 0. -1.
         -1    1    6    6    0  503 -0.10518202849E+03 -0.94836608887E+02 -0.12310924241E+03  0.18765161089E+03  0.00000000000E+00 0.  1.
<mgrwt>
<rscale>  0 0.18097277E+04</rscale>
<asrwt>0</asrwt>
<pdfrwt beam="1">  1        4 0.15101747E+00 0.18097277E+04</pdfrwt>
<pdfrwt beam="2">  1       -3 0.12832538E+00 0.18097277E+04</pdfrwt>
<totfact> 0.30237169E-01</totfact>
</mgrwt>
</event>
<event>
12    6  0.1611689E-007  0.2075549E+04  0.7818608E-02  0.8572091E-01
         -1   -1    0    0    0  501 -0.00000000000E+00  0.00000000000E+00  0.94201643001E+03  0.94201643001E+03  0.00000000000E+00 0.  1.
          2   -1    0    0  501    0  0.00000000000E+00 -0.00000000000E+00 -0.11432668967E+04  0.11432668967E+04  0.00000000000E+00 0. -1.
         24    2    1    2    0    0 -0.40105908163E+03 -0.19362681594E+03 -0.79987214691E+03  0.91887960200E+03  0.78768907304E+02 0.  0.
        254    2    1    2    0    0  0.40105908163E+03  0.19362681594E+03  0.59862168017E+03  0.11664037248E+04  0.89655451722E+03 0.  0.
         23    2    4    4    0    0  0.52121663763E+03  0.45503790550E+03  0.39707313411E+03  0.80291680907E+03  0.91005767279E+02 0.  0.
         23    2    4    4    0    0 -0.12015755599E+03 -0.26141108956E+03  0.20154854606E+03  0.36348691569E+03  0.93420155475E+02 0.  0.
          2    1    3    3  502    0 -0.30448788287E+03 -0.13533917289E+03 -0.52564968496E+03  0.62236416496E+03  0.00000000000E+00 0. -1.
         -1    1    3    3    0  502 -0.96571198766E+02 -0.58287643057E+02 -0.27422246195E+03  0.29651543704E+03  0.00000000000E+00 0.  1.
         11    1    5    5    0    0  0.24164708008E+03  0.15870282438E+03  0.14026476395E+03  0.32133176280E+03  0.00000000000E+00 0.  1.
        -11    1    5    5    0    0  0.27956955754E+03  0.29633508112E+03  0.25680837016E+03  0.48158504627E+03  0.00000000000E+00 0. -1.
          1    1    6    6  503    0 -0.31373944488E+02 -0.17675926367E+03  0.12760314441E+03  0.22025150203E+03  0.00000000000E+00 0. -1.
         -1    1    6    6    0  503 -0.88783611506E+02 -0.84651825889E+02  0.73945401656E+02  0.14323541365E+03  0.00000000000E+00 0.  1.
<mgrwt>
<rscale>  0 0.20755493E+04</rscale>
<asrwt>0</asrwt>
<pdfrwt beam="1">  1        2 0.17588721E+00 0.20755493E+04</pdfrwt>
<pdfrwt beam="2">  1       -1 0.14492560E+00 0.20755493E+04</pdfrwt>
<totfact> 0.82566543E+00</totfact>
</mgrwt>
</event>
<event>
12    6  0.1611689E-007  0.1549820E+04  0.7818608E-02  0.8851983E-01
          2   -1    0    0  501    0  0.00000000000E+00  0.00000000000E+00  0.19934123789E+04  0.19934123789E+04  0.00000000000E+00 0. -1.
         -1   -1    0    0    0  501 -0.00000000000E+00 -0.00000000000E+00 -0.30123498503E+03  0.30123498503E+03  0.00000000000E+00 0.  1.
         24    2    1    2    0    0 -0.15004201536E+03  0.22519897731E+03  0.12269189383E+04  0.12589926628E+04  0.80655180042E+02 0.  0.
        254    2    1    2    0    0  0.15004201536E+03 -0.22519897731E+03  0.46525845549E+03  0.10356547011E+04  0.88480960871E+03 0.  0.
         23    2    4    4    0    0  0.45436122032E+03  0.24576019411E+02  0.42553822044E+03  0.62972890462E+03  0.91802053357E+02 0.  0.
         23    2    4    4    0    0 -0.30431920496E+03 -0.24977499672E+03  0.39720235053E+02  0.40592579644E+03  0.90555660509E+02 0.  0.
          2    1    3    3  502    0 -0.13154132227E+03  0.22781592944E+03  0.11223439485E+04  0.11527615347E+04  0.00000000000E+00 0. -1.
         -1    1    3    3    0  502 -0.18500693084E+02 -0.26169521336E+01  0.10457498986E+03  0.10623112815E+03  0.00000000000E+00 0.  1.
         11    1    5    5    0    0  0.77354116673E+02 -0.29688595142E+02  0.65717844662E+02  0.10575399356E+03  0.00000000000E+00 0. -1.
        -11    1    5    5    0    0  0.37700710364E+03  0.54264614553E+02  0.35982037578E+03  0.52397491106E+03  0.00000000000E+00 0.  1.
          1    1    6    6  503    0 -0.24501113124E+02 -0.56751686553E+02 -0.91746275438E+01  0.62491857561E+02  0.00000000000E+00 0. -1.
         -1    1    6    6    0  503 -0.27981809184E+03 -0.19302331017E+03  0.48894862597E+02  0.34343393888E+03  0.00000000000E+00 0.  1.
<mgrwt>
<rscale>  0 0.15498201E+04</rscale>
<asrwt>0</asrwt>
<pdfrwt beam="1">  1        2 0.30667882E+00 0.15498201E+04</pdfrwt>
<pdfrwt beam="2">  1       -1 0.46343845E-01 0.15498201E+04</pdfrwt>
<totfact> 0.34247978E+01</totfact>
</mgrwt>
</event>
<event>
12    6  0.1911892E-007  0.1970571E+04  0.7818608E-02  0.8620505E-01
          2   -1    0    0  501    0  0.00000000000E+00  0.00000000000E+00  0.15066599837E+04  0.15066599837E+04  0.00000000000E+00 0. -1.
         -1   -1    0    0    0  501 -0.00000000000E+00 -0.00000000000E+00 -0.64433085082E+03  0.64433085082E+03  0.00000000000E+00 0.  1.
         24    2    1    2    0    0  0.58050625060E+03 -0.15520318954E+01  0.90649827477E+03  0.10787823609E+04  0.71009466396E+02 0.  0.
        254    2    1    2    0    0 -0.58050625060E+03  0.15520318954E+01 -0.44169141897E+02  0.10722084736E+04  0.90038335275E+03 0.  0.
         23    2    4    4    0    0 -0.64334450265E+03 -0.21152932022E+03 -0.27488268105E+03  0.73659174070E+03  0.91488260017E+02 0.  0.
         23    2    4    4    0    0  0.62838252054E+02  0.21308135211E+03  0.23071353915E+03  0.33561673287E+03  0.10028731572E+03 0.  0.
          2    1    3    3  502    0  0.53150931174E+03  0.14476911191E+02  0.84696382295E+03  0.10000297230E+04  0.00000000000E+00 0. -1.
         -1    1    3    3    0  502  0.48996938861E+02 -0.16028943087E+02  0.59534451816E+02  0.78752637970E+02  0.00000000000E+00 0.  1.
         11    1    5    5    0    0 -0.14742385300E+03 -0.30838329442E+02 -0.99031068084E+02  0.18025522861E+03  0.00000000000E+00 0. -1.
        -11    1    5    5    0    0 -0.49592064965E+03 -0.18069099078E+03 -0.17585161297E+03  0.55633651209E+03  0.00000000000E+00 0.  1.
          1    1    6    6  503    0 -0.60185187916E+01  0.41725516894E+02  0.27634478593E+01  0.42247816187E+02  0.00000000000E+00 0. -1.
         -1    1    6    6    0  503  0.68856770846E+02  0.17135583522E+03  0.22795009129E+03  0.29336891668E+03  0.00000000000E+00 0.  1.
<mgrwt>
<rscale>  0 0.19705710E+04</rscale>
<asrwt>0</asrwt>
<pdfrwt beam="1">  1        2 0.23179384E+00 0.19705710E+04</pdfrwt>
<pdfrwt beam="2">  1       -1 0.99127824E-01 0.19705710E+04</pdfrwt>
<totfact> 0.12984450E+01</totfact>
</mgrwt>
</event>
<event>
12    6  0.1611689E-007  0.1116008E+04  0.7818608E-02  0.9189728E-01
         -1   -1    0    0    0  501 -0.00000000000E+00  0.00000000000E+00  0.18365519718E+03  0.18365519718E+03  0.00000000000E+00 0.  1.
          2   -1    0    0  501    0  0.00000000000E+00 -0.00000000000E+00 -0.16953966970E+04  0.16953966970E+04  0.00000000000E+00 0. -1.
         24    2    1    2    0    0  0.38065786347E+02  0.36025385974E+02 -0.55822946564E+03  0.56537897137E+03  0.72707719234E+02 0.  0.
        254    2    1    2    0    0 -0.38065786347E+02 -0.36025385974E+02 -0.95351203416E+03  0.13136729228E+04  0.90211114407E+03 0.  0.
         23    2    4    4    0    0 -0.32866958638E+03 -0.10319232070E+03 -0.49297998356E+02  0.35716639053E+03  0.80406379236E+02 0.  0.
         23    2    4    4    0    0  0.29060380003E+03  0.67166934726E+02 -0.90421403580E+03  0.95650653225E+03  0.91322275449E+02 0.  0.
          2    1    3    3  502    0  0.16910036194E+02  0.26047119074E+02 -0.51734476547E+03  0.51827599607E+03  0.00000000000E+00 0. -1.
         -1    1    3    3    0  502  0.21155750153E+02  0.99782669001E+01 -0.40884700163E+02  0.47102975301E+02  0.00000000000E+00 0.  1.
         11    1    5    5    0    0 -0.25776822605E+03 -0.94140077251E+02 -0.78324215768E+01  0.27453261980E+03  0.00000000000E+00 0. -1.
        -11    1    5    5    0    0 -0.70901360325E+02 -0.90522434493E+01 -0.41465576779E+02  0.82633770730E+02  0.00000000000E+00 0.  1.
          3    1    6    6  503    0  0.24071803642E+03  0.31270166672E+02 -0.79446232727E+03  0.83071859605E+03  0.00000000000E+00 0. -1.
         -3    1    6    6    0  503  0.49885763608E+02  0.35896768054E+02 -0.10975170853E+03  0.12578793620E+03  0.00000000000E+00 0.  1.
<mgrwt>
<rscale>  0 0.11160079E+04</rscale>
<asrwt>0</asrwt>
<pdfrwt beam="1">  1        2 0.26083025E+00 0.11160079E+04</pdfrwt>
<pdfrwt beam="2">  1       -1 0.28254647E-01 0.11160079E+04</pdfrwt>
<totfact> 0.12633586E+02</totfact>
</mgrwt>
</event>
<event>
12    6  0.1611689E-007  0.1520409E+04  0.7818608E-02  0.8870994E-01
          2   -1    0    0  501    0  0.00000000000E+00  0.00000000000E+00  0.60767085731E+03  0.60767085731E+03  0.00000000000E+00 0. -1.
         -1   -1    0    0    0  501 -0.00000000000E+00 -0.00000000000E+00 -0.95102572921E+03  0.95102572921E+03  0.00000000000E+00 0.  1.
         24    2    1    2    0    0  0.39580198045E+03  0.25772045957E+03  0.11921980396E+01  0.47916114653E+03  0.80715178242E+02 0.  0.
        254    2    1    2    0    0 -0.39580198045E+03 -0.25772045957E+03 -0.34454706994E+03  0.10795354400E+04  0.90752688101E+03 0.  0.
         23    2    4    4    0    0  0.22712524555E+03  0.12502441019E+03 -0.17360258293E+03  0.32319297516E+03  0.84254745151E+02 0.  0.
         23    2    4    4    0    0 -0.62292722600E+03 -0.38274486976E+03 -0.17094448701E+03  0.75634246483E+03  0.91104018768E+02 0.  0.
          4    1    3    3  502    0  0.33417434791E+03  0.21290421586E+03  0.30760434111E+02  0.39742534423E+03  0.00000000000E+00 0. -1.
         -3    1    3    3    0  502  0.61627632541E+02  0.44816243709E+02 -0.29568236071E+02  0.81735802298E+02  0.00000000000E+00 0.  1.
         11    1    5    5    0    0  0.91775712931E+02  0.54049336644E+02 -0.23689415602E+02  0.10911141410E+03  0.00000000000E+00 0. -1.
        -11    1    5    5    0    0  0.13534953262E+03  0.70975073549E+02 -0.14991316733E+03  0.21408156105E+03  0.00000000000E+00 0.  1.
          4    1    6    6  503    0 -0.53202012137E+03 -0.30538842944E+03 -0.11340917037E+03  0.62383422662E+03  0.00000000000E+00 0. -1.
         -4    1    6    6    0  503 -0.90907104631E+02 -0.77356440322E+02 -0.57535316634E+02  0.13250823820E+03  0.00000000000E+00 0.  1.
<mgrwt>
<rscale>  0 0.15204087E+04</rscale>
<asrwt>0</asrwt>
<pdfrwt beam="1">  1        2 0.93487824E-01 0.15204087E+04</pdfrwt>
<pdfrwt beam="2">  1       -1 0.14631165E+00 0.15204087E+04</pdfrwt>
<totfact> 0.20082810E+01</totfact>
</mgrwt>
</event>
<event>
12    6  0.1611689E-007  0.2245405E+04  0.7818608E-02  0.8499764E-01
          2   -1    0    0  501    0  0.00000000000E+00  0.00000000000E+00  0.18814102404E+04  0.18814102404E+04  0.00000000000E+00 0. -1.
         -1   -1    0    0    0  501 -0.00000000000E+00 -0.00000000000E+00 -0.66995531689E+03  0.66995531689E+03  0.00000000000E+00 0.  1.
         24    2    1    2    0    0 -0.67211803499E+03 -0.17708841847E+03  0.12366579740E+04  0.14211099966E+04  0.84425807198E+02 0.  0.
        254    2    1    2    0    0  0.67211803499E+03  0.17708841847E+03 -0.25203050483E+02  0.11302555607E+04  0.89092057883E+03 0.  0.
         23    2    4    4    0    0  0.87408088229E+03  0.14005370519E+03 -0.95756966531E+02  0.89515937221E+03  0.92241400161E+02 0.  0.
         23    2    4    4    0    0 -0.20196284730E+03  0.37034713278E+02  0.70553916048E+02  0.23509618846E+03  0.90176499615E+02 0.  0.
          4    1    3    3  502    0 -0.54872136843E+03 -0.17691218555E+03  0.10044113537E+04  0.11581171051E+04  0.00000000000E+00 0. -1.
         -3    1    3    3    0  502 -0.12339666656E+03 -0.17623292045E+00  0.23224662025E+03  0.26299289153E+03  0.00000000000E+00 0.  1.
         11    1    5    5    0    0  0.57803128854E+03  0.11367075869E+03 -0.10201954197E+03  0.59787055360E+03  0.00000000000E+00 0. -1.
        -11    1    5    5    0    0  0.29604959374E+03  0.26382946503E+02  0.62625754405E+01  0.29728881862E+03  0.00000000000E+00 0.  1.
          4    1    6    6  503    0 -0.10072298617E+03 -0.83686425253E+01  0.72065027980E+02  0.12413106935E+03  0.00000000000E+00 0. -1.
         -4    1    6    6    0  503 -0.10123986114E+03  0.45403355803E+02 -0.15111119322E+01  0.11096511911E+03  0.00000000000E+00 0.  1.
<mgrwt>
<rscale>  0 0.22454049E+04</rscale>
<asrwt>0</asrwt>
<pdfrwt beam="1">  1        2 0.28944773E+00 0.22454049E+04</pdfrwt>
<pdfrwt beam="2">  1       -1 0.10307005E+00 0.22454049E+04</pdfrwt>
<totfact> 0.71651285E+00</totfact>
</mgrwt>
</event>
<event>
12    6  0.1611689E-007  0.3860675E+04  0.7818608E-02  0.8033258E-01
          2   -1    0    0  501    0  0.00000000000E+00  0.00000000000E+00  0.35382590626E+04  0.35382590626E+04  0.00000000000E+00 0. -1.
         -1   -1    0    0    0  501 -0.00000000000E+00 -0.00000000000E+00 -0.10531174890E+04  0.10531174890E+04  0.00000000000E+00 0.  1.
         24    2    1    2    0    0 -0.93689676266E+02  0.12019662216E+04 -0.45351388391E+03  0.12906274659E+04  0.80894125795E+02 0.  0.
        254    2    1    2    0    0  0.93689676266E+02 -0.12019662216E+04  0.29386554576E+04  0.33007490857E+04  0.89763471140E+03 0.  0.
         23    2    4    4    0    0  0.44466511066E+03 -0.89733623009E+03  0.17197187453E+04  0.19922816428E+04  0.93884027555E+02 0.  0.
         23    2    4    4    0    0 -0.35097543439E+03 -0.30462999150E+03  0.12189367123E+04  0.13084674429E+04  0.10147489077E+03 0.  0.
          2    1    3    3  502    0  0.11044326803E+01  0.98700348885E+01 -0.12671025045E+02  0.16099448312E+02  0.00000000000E+00 0. -1.
         -3    1    3    3    0  502 -0.94794108946E+02  0.11920961867E+04 -0.44084285886E+03  0.12745280176E+04  0.00000000000E+00 0.  1.
         11    1    5    5    0    0  0.68209652964E+02 -0.22460888899E+03  0.38376174098E+03  0.44986084916E+03  0.00000000000E+00 0. -1.
        -11    1    5    5    0    0  0.37645545769E+03 -0.67272734110E+03  0.13359570043E+04  0.15424207936E+04  0.00000000000E+00 0.  1.
          3    1    6    6  503    0 -0.59063890067E-01  0.30716483451E+00 -0.19956663677E+01  0.20200304527E+01  0.00000000000E+00 0. -1.
         -3    1    6    6    0  503 -0.35091637050E+03 -0.30493715634E+03  0.12209323786E+04  0.13064474125E+04  0.00000000000E+00 0.  1.
<mgrwt>
<rscale>  0 0.38606748E+04</rscale>
<asrwt>0</asrwt>
<pdfrwt beam="1">  1        2 0.54434754E+00 0.38606748E+04</pdfrwt>
<pdfrwt beam="2">  1       -1 0.16201808E+00 0.38606748E+04</pdfrwt>
<totfact> 0.19482798E-01</totfact>
</mgrwt>
</event>
<event>
12    6  0.1611689E-007  0.1573088E+04  0.7818608E-02  0.8837254E-01
         -1   -1    0    0    0  501 -0.00000000000E+00  0.00000000000E+00  0.39892649010E+03  0.39892649010E+03  0.00000000000E+00 0.  1.
          2   -1    0    0  501    0  0.00000000000E+00 -0.00000000000E+00 -0.15507910732E+04  0.15507910732E+04  0.00000000000E+00 0. -1.
         24    2    1    2    0    0 -0.22469932015E+03 -0.42799407724E+03 -0.61352162276E+03  0.78531857440E+03  0.81533840031E+02 0.  0.
        254    2    1    2    0    0  0.22469932015E+03  0.42799407724E+03 -0.53834296035E+03  0.11643989889E+04  0.91232842102E+03 0.  0.
         23    2    4    4    0    0 -0.90373019839E+02  0.57390466908E+03 -0.55010469530E+03  0.80521028653E+03  0.90634308298E+02 0.  0.
         23    2    4    4    0    0  0.31507233999E+03 -0.14591059184E+03  0.11761734944E+02  0.35918870238E+03  0.91201454351E+02 0.  0.
          2    1    3    3  502    0 -0.21571426285E+03 -0.39966024514E+03 -0.60041197669E+03  0.75283165216E+03  0.00000000000E+00 0. -1.
         -1    1    3    3    0  502 -0.89850572993E+01 -0.28333832103E+02 -0.13109646067E+02  0.32486922235E+02  0.00000000000E+00 0.  1.
         11    1    5    5    0    0 -0.85270476015E+02  0.57475158965E+03 -0.53726737112E+03  0.79137012324E+03  0.00000000000E+00 0.  1.
        -11    1    5    5    0    0 -0.51025438239E+01 -0.84692056812E+00 -0.12837324182E+02  0.13840163297E+02  0.00000000000E+00 0. -1.
          3    1    6    6  503    0  0.18094263284E+03 -0.11995901382E+03  0.37097164384E+02  0.22024214170E+03  0.00000000000E+00 0. -1.
         -3    1    6    6    0  503  0.13412970715E+03 -0.25951578025E+02 -0.25335429440E+02  0.13894656069E+03  0.00000000000E+00 0.  1.
<mgrwt>
<rscale>  0 0.15730882E+04</rscale>
<asrwt>0</asrwt>
<pdfrwt beam="1">  1        2 0.23858324E+00 0.15730882E+04</pdfrwt>
<pdfrwt beam="2">  1       -1 0.61373307E-01 0.15730882E+04</pdfrwt>
<totfact> 0.35033161E+01</totfact>
</mgrwt>
</event>
<event>
12    6  0.1611689E-007  0.2066908E+04  0.7818608E-02  0.8575963E-01
         -1   -1    0    0    0  501 -0.00000000000E+00  0.00000000000E+00  0.90305381386E+03  0.90305381386E+03  0.00000000000E+00 0.  1.
          2   -1    0    0  501    0  0.00000000000E+00 -0.00000000000E+00 -0.11826835398E+04  0.11826835398E+04  0.00000000000E+00 0. -1.
         24    2    1    2    0    0  0.41236044570E+03 -0.66255031081E+03  0.18841398056E+03  0.80676994748E+03  0.79773858863E+02 0.  0.
        254    2    1    2    0    0 -0.41236044570E+03  0.66255031081E+03 -0.46804370647E+03  0.12789674061E+04  0.89870944320E+03 0.  0.
         23    2    4    4    0    0 -0.78667890317E+01 -0.17094229782E+03 -0.26017216787E+03  0.32514392484E+03  0.93519299439E+02 0.  0.
         23    2    4    4    0    0 -0.40449365667E+03  0.83349260863E+03 -0.20787153859E+03  0.95382348131E+03  0.90794328096E+02 0.  0.
          4    1    3    3  502    0  0.85683672940E+02 -0.17720263426E+03  0.76156197343E+02  0.21105030631E+03  0.00000000000E+00 0. -1.
         -3    1    3    3    0  502  0.32667677276E+03 -0.48534767655E+03  0.11225778322E+03  0.59571964118E+03  0.00000000000E+00 0.  1.
         11    1    5    5    0    0  0.32102843272E+02 -0.13617494766E+03 -0.20888148228E+03  0.25140740355E+03  0.00000000000E+00 0. -1.
        -11    1    5    5    0    0 -0.39969632304E+02 -0.34767350160E+02 -0.51290685588E+02  0.73736521288E+02  0.00000000000E+00 0.  1.
          2    1    6    6  503    0 -0.19433102604E+03  0.36436627656E+03 -0.13602810229E+03  0.43477692647E+03  0.00000000000E+00 0. -1.
         -2    1    6    6    0  503 -0.21016263062E+03  0.46912633207E+03 -0.71843436307E+02  0.51904655484E+03  0.00000000000E+00 0.  1.
<mgrwt>
<rscale>  0 0.20669077E+04</rscale>
<asrwt>0</asrwt>
<pdfrwt beam="1">  1        2 0.18195131E+00 0.20669077E+04</pdfrwt>
<pdfrwt beam="2">  1       -1 0.13893136E+00 0.20669077E+04</pdfrwt>
<totfact> 0.87409118E+00</totfact>
</mgrwt>
</event>
<event>
12    6  0.1611689E-007  0.1664581E+04  0.7818608E-02  0.8781827E-01
          2   -1    0    0  501    0  0.00000000000E+00  0.00000000000E+00  0.18636127203E+04  0.18636127203E+04  0.00000000000E+00 0. -1.
         -1   -1    0    0    0  501 -0.00000000000E+00 -0.00000000000E+00 -0.37170134515E+03  0.37170134515E+03  0.00000000000E+00 0.  1.
         24    2    1    2    0    0 -0.16951442936E+03  0.42344020719E+02 -0.22208740589E+03  0.29341431557E+03  0.78999916937E+02 0.  0.
        254    2    1    2    0    0  0.16951442936E+03 -0.42344020719E+02  0.17139987810E+04  0.19418997499E+04  0.89590996162E+03 0.  0.
         23    2    4    4    0    0 -0.30195419398E+03 -0.23541915869E+03  0.80842052936E+03  0.89891927164E+03  0.88958355899E+02 0.  0.
         23    2    4    4    0    0  0.47146862334E+03  0.19307513797E+03  0.90557825165E+03  0.10429804782E+04  0.90419225787E+02 0.  0.
          2    1    3    3  502    0 -0.18067094917E+02 -0.18543432722E+02 -0.15690840248E+02  0.30273441884E+02  0.00000000000E+00 0. -1.
         -1    1    3    3    0  502 -0.15144733444E+03  0.60887453441E+02 -0.20639656564E+03  0.26314087368E+03  0.00000000000E+00 0.  1.
         11    1    5    5    0    0 -0.30378291267E+03 -0.24016614979E+03  0.78999631761E+03  0.87980567137E+03  0.00000000000E+00 0.  1.
        -11    1    5    5    0    0  0.18287186940E+01  0.47469910934E+01  0.18424211754E+02  0.19113600270E+02  0.00000000000E+00 0. -1.
          4    1    6    6  503    0  0.23518337988E+02  0.15762098311E+02  0.10382105109E+03  0.10761211183E+03  0.00000000000E+00 0. -1.
         -4    1    6    6    0  503  0.44795028535E+03  0.17731303966E+03  0.80175720056E+03  0.93536836638E+03  0.00000000000E+00 0.  1.
<mgrwt>
<rscale>  0 0.16645809E+04</rscale>
<asrwt>0</asrwt>
<pdfrwt beam="1">  1        2 0.28670964E+00 0.16645809E+04</pdfrwt>
<pdfrwt beam="2">  1       -1 0.57184824E-01 0.16645809E+04</pdfrwt>
<totfact> 0.26772390E+01</totfact>
</mgrwt>
</event>
<event>
12    6  0.1611689E-007  0.1297518E+04  0.7818608E-02  0.9031536E-01
         -1   -1    0    0    0  501 -0.00000000000E+00  0.00000000000E+00  0.38404640593E+03  0.38404640593E+03  0.00000000000E+00 0.  1.
          2   -1    0    0  501    0  0.00000000000E+00 -0.00000000000E+00 -0.10959300894E+04  0.10959300894E+04  0.00000000000E+00 0. -1.
         24    2    1    2    0    0 -0.14412137487E+03  0.25452276489E+02  0.15003291539E+03  0.22508002060E+03  0.82050904326E+02 0.  0.
        254    2    1    2    0    0  0.14412137487E+03 -0.25452276489E+02 -0.86191659890E+03  0.12548964748E+04  0.90024782691E+03 0.  0.
         23    2    4    4    0    0  0.65915534604E+02  0.36146456392E+03 -0.74335434434E+03  0.83417553627E+03  0.90948641455E+02 0.  0.
         23    2    4    4    0    0  0.78205840262E+02 -0.38691684041E+03 -0.11856225456E+03  0.42072093850E+03  0.84429290185E+02 0.  0.
          4    1    3    3  502    0 -0.40912281364E+02 -0.22256836127E+02  0.15841655101E+02  0.49194913936E+02  0.00000000000E+00 0. -1.
         -3    1    3    3    0  502 -0.10320909350E+03  0.47709112616E+02  0.13419126029E+03  0.17588510666E+03  0.00000000000E+00 0.  1.
         11    1    5    5    0    0 -0.12320853734E+02  0.12923010190E+03 -0.31456540347E+03  0.34029930317E+03  0.00000000000E+00 0. -1.
        -11    1    5    5    0    0  0.78236388338E+02  0.23223446202E+03 -0.42878894087E+03  0.49387623310E+03  0.00000000000E+00 0.  1.
          4    1    6    6  503    0  0.13518591948E+02 -0.19981485496E+03 -0.93999331854E+02  0.22123427171E+03  0.00000000000E+00 0.  1.
         -4    1    6    6    0  503  0.64687248315E+02 -0.18710198545E+03 -0.24562922704E+02  0.19948666679E+03  0.00000000000E+00 0. -1.
<mgrwt>
<rscale>  0 0.12975176E+04</rscale>
<asrwt>0</asrwt>
<pdfrwt beam="1">  1        2 0.16860463E+00 0.12975176E+04</pdfrwt>
<pdfrwt beam="2">  1       -1 0.59084062E-01 0.12975176E+04</pdfrwt>
<totfact> 0.71133786E+01</totfact>
</mgrwt>
</event>
<event>
12    6  0.1611689E-007  0.1388257E+04  0.7818608E-02  0.8962363E-01
          2   -1    0    0  501    0  0.00000000000E+00  0.00000000000E+00  0.12736568159E+04  0.12736568159E+04  0.00000000000E+00 0. -1.
         -1   -1    0    0    0  501 -0.00000000000E+00 -0.00000000000E+00 -0.37829212617E+03  0.37829212617E+03  0.00000000000E+00 0.  1.
         24    2    1    2    0    0 -0.22769567264E+03  0.10087651169E+03  0.63102472561E+03  0.68323646151E+03  0.81230955051E+02 0.  0.
        254    2    1    2    0    0  0.22769567264E+03 -0.10087651169E+03  0.26433996417E+03  0.96871248060E+03  0.89805727182E+03 0.  0.
         23    2    4    4    0    0  0.68218707803E+02 -0.43728713804E+03 -0.74436895882E+02  0.45713953702E+03  0.86959022842E+02 0.  0.
         23    2    4    4    0    0  0.15947696483E+03  0.33641062635E+03  0.33877686005E+03  0.51157294357E+03  0.91280358569E+02 0.  0.
          2    1    3    3  502    0 -0.18804491772E+03  0.91411266841E+02  0.43023415693E+03  0.47834960079E+03  0.00000000000E+00 0. -1.
         -1    1    3    3    0  502 -0.39650754916E+02  0.94652448474E+01  0.20079056868E+03  0.20488686072E+03  0.00000000000E+00 0.  1.
         11    1    5    5    0    0  0.24801240373E+02 -0.33012540359E+03 -0.26970717330E+02  0.33215253004E+03  0.00000000000E+00 0. -1.
        -11    1    5    5    0    0  0.43417467431E+02 -0.10716173445E+03 -0.47466178552E+02  0.12498700698E+03  0.00000000000E+00 0.  1.
          4    1    6    6  503    0  0.63870003766E+02  0.17303620190E+03  0.11046835658E+03  0.21499805198E+03  0.00000000000E+00 0. -1.
         -4    1    6    6    0  503  0.95606961069E+02  0.16337442445E+03  0.22830850347E+03  0.29657489160E+03  0.00000000000E+00 0.  1.
<mgrwt>
<rscale>  0 0.13882570E+04</rscale>
<asrwt>0</asrwt>
<pdfrwt beam="1">  1        2 0.19594720E+00 0.13882570E+04</pdfrwt>
<pdfrwt beam="2">  1       -1 0.58198789E-01 0.13882570E+04</pdfrwt>
<totfact> 0.56897479E+01</totfact>
</mgrwt>
</event>
<event>
12    6  0.1611689E-007  0.2009681E+04  0.7818608E-02  0.8602108E-01
         -1   -1    0    0    0  501 -0.00000000000E+00  0.00000000000E+00  0.34838430394E+03  0.34838430394E+03  0.00000000000E+00 0.  1.
          2   -1    0    0  501    0  0.00000000000E+00 -0.00000000000E+00 -0.28982488308E+04  0.28982488308E+04  0.00000000000E+00 0. -1.
         24    2    1    2    0    0  0.35009437006E+03 -0.34565697189E+03 -0.20538955681E+04  0.21135022723E+04  0.79749862329E+02 0.  0.
        254    2    1    2    0    0 -0.35009437006E+03  0.34565697189E+03 -0.49596895879E+03  0.11331308624E+04  0.89216340040E+03 0.  0.
         23    2    4    4    0    0  0.30130227561E+02  0.53049627851E+03 -0.10240121632E+03  0.54880509656E+03  0.91470720869E+02 0.  0.
         23    2    4    4    0    0 -0.38022459762E+03 -0.18483930662E+03 -0.39356774247E+03  0.58432576582E+03  0.88344319452E+02 0.  0.
          4    1    3    3  502    0  0.26977179250E+03 -0.30623632681E+03 -0.16360308059E+04  0.16861655630E+04  0.00000000000E+00 0. -1.
         -3    1    3    3    0  502  0.80322577557E+02 -0.39420645075E+02 -0.41786476214E+03  0.42733670936E+03  0.00000000000E+00 0.  1.
         11    1    5    5    0    0  0.92236868248E+01  0.27774039720E+03 -0.74463212400E+01  0.27799325952E+03  0.00000000000E+00 0. -1.
        -11    1    5    5    0    0  0.20906540736E+02  0.25275588131E+03 -0.94954895077E+02  0.27081183704E+03  0.00000000000E+00 0.  1.
          4    1    6    6  503    0 -0.24526729790E+03 -0.14658599998E+03 -0.30745560007E+03  0.41972901833E+03  0.00000000000E+00 0. -1.
         -4    1    6    6    0  503 -0.13495729972E+03 -0.38253306641E+02 -0.86112142395E+02  0.16459674749E+03  0.00000000000E+00 0.  1.
<mgrwt>
<rscale>  0 0.20096810E+04</rscale>
<asrwt>0</asrwt>
<pdfrwt beam="1">  1        2 0.44588445E+00 0.20096810E+04</pdfrwt>
<pdfrwt beam="2">  1       -1 0.53597584E-01 0.20096810E+04</pdfrwt>
<totfact> 0.74892986E+00</totfact>
</mgrwt>
</event>
<event>
12    6  0.1611689E-007  0.1449306E+04  0.7818608E-02  0.8918882E-01
          2   -1    0    0  501    0  0.00000000000E+00  0.00000000000E+00  0.45564362925E+04  0.45564362925E+04  0.00000000000E+00 0. -1.
         -1   -1    0    0    0  501 -0.00000000000E+00 -0.00000000000E+00 -0.11524843612E+03  0.11524843612E+03  0.00000000000E+00 0.  1.
         24    2    1    2    0    0 -0.11460168789E+03 -0.95613896107E+02  0.26702066240E+04  0.26755226521E+04  0.78373994489E+02 0.  0.
        254    2    1    2    0    0  0.11460168789E+03  0.95613896107E+02  0.17709812324E+04  0.19961620766E+04  0.90885254380E+03 0.  0.
         23    2    4    4    0    0 -0.25869830580E+02 -0.30675765453E+03  0.13570468602E+04  0.13945021857E+04  0.91053052892E+02 0.  0.
         23    2    4    4    0    0  0.14047151847E+03  0.40237155063E+03  0.41393437229E+03  0.60165989092E+03  0.94962347906E+02 0.  0.
          2    1    3    3  502    0 -0.65591208687E+02 -0.54814974391E+01  0.98708025430E+03  0.98927229917E+03  0.00000000000E+00 0. -1.
         -3    1    3    3    0  502 -0.49010479206E+02 -0.90132398668E+02  0.16831263697E+04  0.16862503529E+04  0.00000000000E+00 0.  1.
         11    1    5    5    0    0  0.26362866582E+02 -0.13014989852E+03  0.46210328095E+03  0.48080499070E+03  0.00000000000E+00 0. -1.
        -11    1    5    5    0    0 -0.52232697161E+02 -0.17660775601E+03  0.89494357921E+03  0.91369719498E+03  0.00000000000E+00 0.  1.
          4    1    6    6  503    0 -0.11463830630E+02  0.64107897361E+02  0.50187458191E+02  0.82219358283E+02  0.00000000000E+00 0. -1.
         -4    1    6    6    0  503  0.15193534910E+03  0.33826365327E+03  0.36374691409E+03  0.51944053264E+03  0.00000000000E+00 0.  1.
<mgrwt>
<rscale>  0 0.14493063E+04</rscale>
<asrwt>0</asrwt>
<pdfrwt beam="1">  1        2 0.70099006E+00 0.14493063E+04</pdfrwt>
<pdfrwt beam="2">  1       -1 0.17730532E-01 0.14493063E+04</pdfrwt>
<totfact> 0.31103406E+00</totfact>
</mgrwt>
</event>
<event>
12    6  0.1611689E-007  0.1330879E+04  0.7818608E-02  0.9005430E-01
         -1   -1    0    0    0  501 -0.00000000000E+00  0.00000000000E+00  0.28373018191E+03  0.28373018191E+03  0.00000000000E+00 0.  1.
          2   -1    0    0  501    0  0.00000000000E+00 -0.00000000000E+00 -0.15606708443E+04  0.15606708443E+04  0.00000000000E+00 0. -1.
         24    2    1    2    0    0 -0.25936656284E+03  0.40150161424E+01 -0.69846818358E+03  0.75004709923E+03  0.86172578680E+02 0.  0.
        254    2    1    2    0    0  0.25936656284E+03 -0.40150161424E+01 -0.57847247880E+03  0.10943539270E+04  0.89201624115E+03 0.  0.
         23    2    4    4    0    0  0.46940643890E+03 -0.87156568249E+02 -0.21759834451E+02  0.48655979791E+03  0.91259379103E+02 0.  0.
         23    2    4    4    0    0 -0.21003987606E+03  0.83141552106E+02 -0.55671264435E+03  0.60779412906E+03  0.91953617218E+02 0.  0.
          4    1    3    3  502    0 -0.22719672065E+03  0.13724043982E+02 -0.50831691050E+03  0.55694953161E+03  0.00000000000E+00 0. -1.
         -3    1    3    3    0  502 -0.32169842190E+02 -0.97090278398E+01 -0.19015127308E+03  0.19309756762E+03  0.00000000000E+00 0.  1.
         11    1    5    5    0    0  0.31899184398E+02 -0.22513060846E+02 -0.20934687186E+02  0.44301884853E+02  0.00000000000E+00 0.  1.
        -11    1    5    5    0    0  0.43750725450E+03 -0.64643507403E+02 -0.82514726471E+00  0.44225791306E+03  0.00000000000E+00 0. -1.
          1    1    6    6  503    0 -0.16994967906E+03  0.23373651131E+02 -0.40725535741E+03  0.44191192235E+03  0.00000000000E+00 0. -1.
         -1    1    6    6    0  503 -0.40090197006E+02  0.59767900976E+02 -0.14945728695E+03  0.16588220671E+03  0.00000000000E+00 0.  1.
<mgrwt>
<rscale>  0 0.13308785E+04</rscale>
<asrwt>0</asrwt>
<pdfrwt beam="1">  1        2 0.24010320E+00 0.13308785E+04</pdfrwt>
<pdfrwt beam="2">  1       -1 0.43650798E-01 0.13308785E+04</pdfrwt>
<totfact> 0.67763462E+01</totfact>
</mgrwt>
</event>
<event>
12    6  0.1611689E-007  0.2124621E+04  0.7818608E-02  0.8550475E-01
          4   -1    0    0  501    0  0.00000000000E+00  0.00000000000E+00  0.93431190908E+03  0.93431190908E+03  0.00000000000E+00 0. -1.
         -3   -1    0    0    0  501 -0.00000000000E+00 -0.00000000000E+00 -0.12078446344E+04  0.12078446344E+04  0.00000000000E+00 0.  1.
         24    2    1    2    0    0  0.22212208011E+03 -0.85888153766E+03 -0.25382637881E+02  0.89128257309E+03  0.82003857148E+02 0.  0.
        254    2    1    2    0    0 -0.22212208011E+03  0.85888153766E+03 -0.24815008740E+03  0.12508739703E+04  0.84622190329E+03 0.  0.
         23    2    4    4    0    0 -0.51374315209E+03  0.67696302572E+03 -0.83313978511E+02  0.85864300132E+03  0.90086736994E+02 0.  0.
         23    2    4    4    0    0  0.29162107199E+03  0.18191851195E+03 -0.16483610889E+03  0.39223096903E+03  0.92395863839E+02 0.  0.
          2    1    3    3  502    0  0.35447203843E+02 -0.19414875080E+03 -0.36706417969E+02  0.20074262830E+03  0.00000000000E+00 0. -1.
         -1    1    3    3    0  502  0.18667487626E+03 -0.66473278686E+03  0.11323780088E+02  0.69053994479E+03  0.00000000000E+00 0.  1.
         11    1    5    5    0    0 -0.86353472515E+02  0.12540732551E+03 -0.49318086391E+02  0.16005059560E+03  0.00000000000E+00 0.  1.
        -11    1    5    5    0    0 -0.42738967958E+03  0.55155570021E+03 -0.33995892120E+02  0.69859240572E+03  0.00000000000E+00 0. -1.
          2    1    6    6  503    0  0.26954298951E+03  0.17432798451E+03 -0.17628966791E+03  0.36622631854E+03  0.00000000000E+00 0. -1.
         -2    1    6    6    0  503  0.22078082476E+02  0.75905274401E+01  0.11453559027E+02  0.26004650488E+02  0.00000000000E+00 0.  1.
<mgrwt>
<rscale>  0 0.21246210E+04</rscale>
<asrwt>0</asrwt>
<pdfrwt beam="1">  1        4 0.14374029E+00 0.21246210E+04</pdfrwt>
<pdfrwt beam="2">  1       -3 0.18582225E+00 0.21246210E+04</pdfrwt>
<totfact> 0.12671153E-01</totfact>
</mgrwt>
</event>
<event>
12    6  0.1611689E-007  0.2058861E+04  0.7818608E-02  0.8579585E-01
         -1   -1    0    0    0  501 -0.00000000000E+00  0.00000000000E+00  0.11640180940E+04  0.11640180940E+04  0.00000000000E+00 0.  1.
          2   -1    0    0  501    0  0.00000000000E+00 -0.00000000000E+00 -0.91040471975E+03  0.91040471975E+03  0.00000000000E+00 0. -1.
         24    2    1    2    0    0  0.25290342266E+03 -0.71736952078E+03  0.36618602498E+03  0.84769764901E+03  0.76941072918E+02 0.  0.
        254    2    1    2    0    0 -0.25290342266E+03  0.71736952078E+03 -0.11257265068E+03  0.12267251648E+04  0.95582574651E+03 0.  0.
         23    2    4    4    0    0  0.32535593548E+03  0.16262364185E+03 -0.18332984548E+03  0.41735772230E+03  0.90965391647E+02 0.  0.
         23    2    4    4    0    0 -0.57825935815E+03  0.55474587893E+03  0.70757194797E+02  0.80936744248E+03  0.89119026390E+02 0.  0.
          2    1    3    3  502    0  0.10730817161E+03 -0.32434532278E+03  0.12283370449E+03  0.36304689926E+03  0.00000000000E+00 0. -1.
         -1    1    3    3    0  502  0.14559525105E+03 -0.39302419801E+03  0.24335232049E+03  0.48465074975E+03  0.00000000000E+00 0.  1.
         11    1    5    5    0    0  0.14469963236E+03  0.97087774353E+02 -0.13153477582E+03  0.21832410949E+03  0.00000000000E+00 0. -1.
        -11    1    5    5    0    0  0.18065630313E+03  0.65535867501E+02 -0.51795069652E+02  0.19903361281E+03  0.00000000000E+00 0.  1.
          1    1    6    6  503    0 -0.23341640517E+03  0.16690542064E+03  0.13926696233E+02  0.28728834037E+03  0.00000000000E+00 0. -1.
         -1    1    6    6    0  503 -0.34484295298E+03  0.38784045829E+03  0.56830498563E+02  0.52207910212E+03  0.00000000000E+00 0.  1.
<mgrwt>
<rscale>  0 0.20588614E+04</rscale>
<asrwt>0</asrwt>
<pdfrwt beam="1">  1        2 0.14006226E+00 0.20588614E+04</pdfrwt>
<pdfrwt beam="2">  1       -1 0.17907971E+00 0.20588614E+04</pdfrwt>
<totfact> 0.64309189E+00</totfact>
</mgrwt>
</event>
<event>
12    6  0.1774007E-007  0.1814734E+04  0.7818608E-02  0.8698503E-01
          2   -1    0    0  501    0  0.00000000000E+00  0.00000000000E+00  0.17773775464E+04  0.17773775464E+04  0.00000000000E+00 0. -1.
         -1   -1    0    0    0  501 -0.00000000000E+00 -0.00000000000E+00 -0.46321903348E+03  0.46321903348E+03  0.00000000000E+00 0.  1.
         24    2    1    2    0    0 -0.25306112966E+03 -0.32770449250E+03  0.11684863862E+04  0.12423025897E+04  0.80778214403E+02 0.  0.
        254    2    1    2    0    0  0.25306112966E+03  0.32770449250E+03  0.14567212672E+03  0.99829399017E+03  0.89662720935E+03 0.  0.
         23    2    4    4    0    0  0.38834932912E+03 -0.35618490805E+02 -0.22069921663E+03  0.45746652237E+03  0.92106441412E+02 0.  0.
         23    2    4    4    0    0 -0.13528819946E+03  0.36332298330E+03  0.36637134335E+03  0.54082746780E+03  0.89218280592E+02 0.  0.
          2    1    3    3  502    0 -0.22252439718E+03 -0.25053476306E+03  0.86386879432E+03  0.92658192765E+03  0.00000000000E+00 0. -1.
         -1    1    3    3    0  502 -0.30536732479E+02 -0.77169729439E+02  0.30461759187E+03  0.31572066206E+03  0.00000000000E+00 0.  1.
         11    1    5    5    0    0  0.46059064038E+02  0.15468956066E+02 -0.56163561992E+02  0.74263528582E+02  0.00000000000E+00 0.  1.
        -11    1    5    5    0    0  0.34229026508E+03 -0.51087446871E+02 -0.16453565463E+03  0.38320299378E+03  0.00000000000E+00 0. -1.
          1    1    6    6  503    0  0.17755645645E+01  0.27355127792E+02  0.34500745091E+01  0.27628946056E+02  0.00000000000E+00 0. -1.
         -1    1    6    6    0  503 -0.13706376403E+03  0.33596785551E+03  0.36292126884E+03  0.51319852175E+03  0.00000000000E+00 0.  1.
<mgrwt>
<rscale>  0 0.18147343E+04</rscale>
<asrwt>0</asrwt>
<pdfrwt beam="1">  1        2 0.27344270E+00 0.18147343E+04</pdfrwt>
<pdfrwt beam="2">  1       -1 0.71264467E-01 0.18147343E+04</pdfrwt>
<totfact> 0.18967788E+01</totfact>
</mgrwt>
</event>
<event>
12    6  0.1611689E-007  0.1299928E+04  0.7818608E-02  0.9029623E-01
         -1   -1    0    0    0  501 -0.00000000000E+00  0.00000000000E+00  0.11638266520E+03  0.11638266520E+03  0.00000000000E+00 0.  1.
          2   -1    0    0  501    0  0.00000000000E+00 -0.00000000000E+00 -0.36298618221E+04  0.36298618221E+04  0.00000000000E+00 0. -1.
         24    2    1    2    0    0 -0.21822206756E+03  0.23543639939E+03 -0.57907877130E+03  0.66687945649E+03  0.79654360749E+02 0.  0.
        254    2    1    2    0    0  0.21822206756E+03 -0.23543639939E+03 -0.29344003856E+04  0.30793650308E+04  0.87677374566E+03 0.  0.
         23    2    4    4    0    0  0.14896814935E+03 -0.56053639588E+03 -0.17569694530E+04  0.18524802673E+04  0.91372432801E+02 0.  0.
         23    2    4    4    0    0  0.69253918211E+02  0.32509999649E+03 -0.11774309327E+04  0.12268847635E+04  0.91741533149E+02 0.  0.
          2    1    3    3  502    0 -0.11298102926E+02  0.13986877549E+02 -0.66572364531E+01  0.19172862866E+02  0.00000000000E+00 0. -1.
         -1    1    3    3    0  502 -0.20692396463E+03  0.22144952185E+03 -0.57242153485E+03  0.64770659362E+03  0.00000000000E+00 0.  1.
         11    1    5    5    0    0  0.12255207942E+03 -0.31226232174E+03 -0.10823459461E+04  0.11331370247E+04  0.00000000000E+00 0.  1.
        -11    1    5    5    0    0  0.26416069922E+02 -0.24827407414E+03 -0.67462350688E+03  0.71934324260E+03  0.00000000000E+00 0. -1.
          4    1    6    6  503    0  0.85604846204E+02  0.18690436842E+03 -0.71561396497E+03  0.74455676714E+03  0.00000000000E+00 0. -1.
         -4    1    6    6    0  503 -0.16350927993E+02  0.13819562806E+03 -0.46181696768E+03  0.48232799639E+03  0.00000000000E+00 0.  1.
<mgrwt>
<rscale>  0 0.12999277E+04</rscale>
<asrwt>0</asrwt>
<pdfrwt beam="1">  1        2 0.55844029E+00 0.12999277E+04</pdfrwt>
<pdfrwt beam="2">  1       -1 0.17905025E-01 0.12999277E+04</pdfrwt>
<totfact> 0.18474942E+01</totfact>
</mgrwt>
</event>
<event>
12    6  0.1611689E-007  0.2500161E+04  0.7818608E-02  0.8402928E-01
          2   -1    0    0  501    0  0.00000000000E+00  0.00000000000E+00  0.21358047729E+04  0.21358047729E+04  0.00000000000E+00 0. -1.
         -1   -1    0    0    0  501 -0.00000000000E+00 -0.00000000000E+00 -0.73166880883E+03  0.73166880883E+03  0.00000000000E+00 0.  1.
         24    2    1    2    0    0  0.43651134559E+03  0.51758682037E+03 -0.36375411983E+03  0.77317262782E+03  0.83908171650E+02 0.  0.
        254    2    1    2    0    0 -0.43651134559E+03 -0.51758682037E+03  0.17678900839E+04  0.20943009539E+04  0.89566894852E+03 0.  0.
         23    2    4    4    0    0 -0.36737302941E+03  0.16519310089E+03  0.84213245911E+03  0.93833838281E+03  0.95079643682E+02 0.  0.
         23    2    4    4    0    0 -0.69138316181E+02 -0.68277992127E+03  0.92575762479E+03  0.11559625711E+04  0.90850196925E+02 0.  0.
          4    1    3    3  502    0  0.80588651201E+02  0.15135918333E+03 -0.97041279462E+02  0.19703081739E+03  0.00000000000E+00 0. -1.
         -3    1    3    3    0  502  0.35592269439E+03  0.36622763704E+03 -0.26671284037E+03  0.57614181043E+03  0.00000000000E+00 0.  1.
         11    1    5    5    0    0 -0.53069935803E+02  0.67736466569E+01  0.58411168898E+02  0.79209627112E+02  0.00000000000E+00 0. -1.
        -11    1    5    5    0    0 -0.31430309360E+03  0.15841945424E+03  0.78372129022E+03  0.85912875570E+03  0.00000000000E+00 0.  1.
          1    1    6    6  503    0  0.12601806235E+02 -0.59829220096E+02  0.55286033720E+02  0.82431102274E+02  0.00000000000E+00 0. -1.
         -1    1    6    6    0  503 -0.81740122417E+02 -0.62295070117E+03  0.87047159107E+03  0.10735314688E+04  0.00000000000E+00 0.  1.
<mgrwt>
<rscale>  0 0.25001614E+04</rscale>
<asrwt>0</asrwt>
<pdfrwt beam="1">  1        2 0.32858535E+00 0.25001614E+04</pdfrwt>
<pdfrwt beam="2">  1       -1 0.11256443E+00 0.25001614E+04</pdfrwt>
<totfact> 0.41128004E+00</totfact>
</mgrwt>
</event>
<event>
12    6  0.1611689E-007  0.3408671E+04  0.7818608E-02  0.8135782E-01
          2   -1    0    0  501    0  0.00000000000E+00  0.00000000000E+00  0.12341073291E+04  0.12341073291E+04  0.00000000000E+00 0. -1.
         -1   -1    0    0    0  501 -0.00000000000E+00 -0.00000000000E+00 -0.23537326508E+04  0.23537326508E+04  0.00000000000E+00 0.  1.
         24    2    1    2    0    0 -0.25911449824E+03  0.67649735299E+03 -0.20048620433E+04  0.21332758478E+04  0.81271387123E+02 0.  0.
        254    2    1    2    0    0  0.25911449824E+03 -0.67649735299E+03  0.88523672160E+03  0.14545641320E+04  0.89851197490E+03 0.  0.
         23    2    4    4    0    0 -0.19648532751E+03 -0.15269477936E+02  0.52758533684E+03  0.57040949251E+03  0.90449215634E+02 0.  0.
         23    2    4    4    0    0  0.45559982575E+03 -0.66122787506E+03  0.35765138476E+03  0.88415463950E+03  0.94981101005E+02 0.  0.
          2    1    3    3  502    0 -0.47034173642E+02  0.20655071908E+03 -0.52253470343E+03  0.56384211384E+03  0.00000000000E+00 0. -1.
         -1    1    3    3    0  502 -0.21208032460E+03  0.46994663391E+03 -0.14823273399E+04  0.15694337340E+04  0.00000000000E+00 0.  1.
         11    1    5    5    0    0 -0.11770120680E+03 -0.19486717706E+02  0.42238877367E+03  0.43891409452E+03  0.00000000000E+00 0.  1.
        -11    1    5    5    0    0 -0.78784120713E+02  0.42172397706E+01  0.10519656317E+03  0.13149539798E+03  0.00000000000E+00 0. -1.
          3    1    6    6  503    0 -0.19691387694E+01 -0.20780030861E+02  0.14952502101E+02  0.25676146696E+02  0.00000000000E+00 0. -1.
         -3    1    6    6    0  503  0.45756896452E+03 -0.64044784419E+03  0.34269888266E+03  0.85847849280E+03  0.00000000000E+00 0.  1.
<mgrwt>
<rscale>  0 0.34086705E+04</rscale>
<asrwt>0</asrwt>
<pdfrwt beam="1">  1        2 0.18986267E+00 0.34086705E+04</pdfrwt>
<pdfrwt beam="2">  1       -1 0.36211271E+00 0.34086705E+04</pdfrwt>
<totfact> 0.21983812E-01</totfact>
</mgrwt>
</event>
<event>
12    6  0.1611689E-007  0.1475992E+04  0.7818608E-02  0.8900577E-01
         -1   -1    0    0    0  501 -0.00000000000E+00  0.00000000000E+00  0.44486475402E+03  0.44486475402E+03  0.00000000000E+00 0.  1.
          2   -1    0    0  501    0  0.00000000000E+00 -0.00000000000E+00 -0.12242775404E+04  0.12242775404E+04  0.00000000000E+00 0. -1.
         24    2    1    2    0    0  0.32956198431E+03  0.14358478364E+03  0.41214830147E+02  0.37038288268E+03  0.79101997187E+02 0.  0.
        254    2    1    2    0    0 -0.32956198431E+03 -0.14358478364E+03 -0.82062761655E+03  0.12987594118E+04  0.94027582814E+03 0.  0.
         23    2    4    4    0    0  0.12296122787E+03 -0.38535536870E+03 -0.60522082801E+03  0.73396219037E+03  0.93755119835E+02 0.  0.
         23    2    4    4    0    0 -0.45252321218E+03  0.24177058506E+03 -0.21540678854E+03  0.56479722138E+03  0.96775737481E+02 0.  0.
          4    1    3    3  502    0  0.11671865420E+03  0.18781504159E+02 -0.91007265459E+01  0.11856986278E+03  0.00000000000E+00 0. -1.
         -3    1    3    3    0  502  0.21284333011E+03  0.12480327948E+03  0.50315556693E+02  0.25181301989E+03  0.00000000000E+00 0.  1.
         11    1    5    5    0    0  0.40893340301E+02 -0.19442913183E+03 -0.37089188790E+03  0.42075615871E+03  0.00000000000E+00 0.  1.
        -11    1    5    5    0    0  0.82067887565E+02 -0.19092623687E+03 -0.23432894011E+03  0.31320603166E+03  0.00000000000E+00 0. -1.
          2    1    6    6  503    0 -0.28091200266E+03  0.16122417731E+03 -0.85502163321E+02  0.33498568406E+03  0.00000000000E+00 0. -1.
         -2    1    6    6    0  503 -0.17161120952E+03  0.80546407753E+02 -0.12990462522E+03  0.22981153732E+03  0.00000000000E+00 0.  1.
<mgrwt>
<rscale>  0 0.14759918E+04</rscale>
<asrwt>0</asrwt>
<pdfrwt beam="1">  1        2 0.18835039E+00 0.14759918E+04</pdfrwt>
<pdfrwt beam="2">  1       -1 0.68440731E-01 0.14759918E+04</pdfrwt>
<totfact> 0.43688547E+01</totfact>
</mgrwt>
</event>
<event>
12    6  0.1611689E-007  0.2475413E+04  0.7818608E-02  0.8411797E-01
         -1   -1    0    0    0  501 -0.00000000000E+00  0.00000000000E+00  0.81463135696E+03  0.81463135696E+03  0.00000000000E+00 0.  1.
          2   -1    0    0  501    0  0.00000000000E+00 -0.00000000000E+00 -0.18805044573E+04  0.18805044573E+04  0.00000000000E+00 0. -1.
         24    2    1    2    0    0  0.93812195846E+02  0.29163306877E+03 -0.15814365470E+04  0.16128914278E+04  0.81404121669E+02 0.  0.
        254    2    1    2    0    0 -0.93812195846E+02 -0.29163306877E+03  0.51556344667E+03  0.10822443864E+04  0.90088660186E+03 0.  0.
         23    2    4    4    0    0  0.12262052906E+03 -0.35401759285E+03  0.68422173005E+03  0.78601923251E+03  0.96450027501E+02 0.  0.
         23    2    4    4    0    0 -0.21643272491E+03  0.62384524078E+02 -0.16865828338E+03  0.29622515387E+03  0.92567661598E+02 0.  0.
          2    1    3    3  502    0  0.64248080114E+02  0.25341925686E+03 -0.11834605664E+04  0.12119934190E+04  0.00000000000E+00 0. -1.
         -1    1    3    3    0  502  0.29564115732E+02  0.38213811915E+02 -0.39797598060E+03  0.40089800884E+03  0.00000000000E+00 0.  1.
         11    1    5    5    0    0  0.74513651185E+02 -0.11066557593E+03  0.30459638171E+03  0.33253287004E+03  0.00000000000E+00 0.  1.
        -11    1    5    5    0    0  0.48106877879E+02 -0.24335201692E+03  0.37962534834E+03  0.45348636247E+03  0.00000000000E+00 0. -1.
          1    1    6    6  503    0 -0.94418270354E+02  0.72648894958E+02 -0.10187230110E+03  0.15675023906E+03  0.00000000000E+00 0. -1.
         -1    1    6    6    0  503 -0.12201445456E+03 -0.10264370879E+02 -0.66785982285E+02  0.13947491480E+03  0.00000000000E+00 0.  1.
<mgrwt>
<rscale>  0 0.24754134E+04</rscale>
<asrwt>0</asrwt>
<pdfrwt beam="1">  1        2 0.28930838E+00 0.24754134E+04</pdfrwt>
<pdfrwt beam="2">  1       -1 0.12532790E+00 0.24754134E+04</pdfrwt>
<totfact> 0.44024402E+00</totfact>
</mgrwt>
</event>
<event>
12    6  0.1611689E-007  0.1827950E+04  0.7818608E-02  0.8691576E-01
          2   -1    0    0  501    0  0.00000000000E+00  0.00000000000E+00  0.29338905269E+04  0.29338905269E+04  0.00000000000E+00 0. -1.
         -3   -1    0    0    0  501 -0.00000000000E+00 -0.00000000000E+00 -0.28472435814E+03  0.28472435814E+03  0.00000000000E+00 0.  1.
         24    2    1    2    0    0  0.62976412143E+03 -0.20202041324E+03  0.64040584837E+03  0.92397017233E+03  0.78651972092E+02 0.  0.
        254    2    1    2    0    0 -0.62976412143E+03  0.20202041324E+03  0.20087603204E+04  0.22946447127E+04  0.89042755842E+03 0.  0.
         23    2    4    4    0    0 -0.14146514072E+03  0.49988262902E+03  0.10352794374E+04  0.11619575815E+04  0.91906904267E+02 0.  0.
         23    2    4    4    0    0 -0.48829898072E+03 -0.29786221578E+03  0.97348088300E+03  0.11326871311E+04  0.90317846148E+02 0.  0.
          2    1    3    3  502    0  0.60607501568E+03 -0.20036090463E+03  0.63328554268E+03  0.89917851136E+03  0.00000000000E+00 0. -1.
         -1    1    3    3    0  502  0.23689105755E+02 -0.16595086132E+01  0.71203056963E+01  0.24791660967E+02  0.00000000000E+00 0.  1.
         11    1    5    5    0    0 -0.93174141855E+02  0.43949579780E+03  0.85657775426E+03  0.96724527711E+03  0.00000000000E+00 0.  1.
        -11    1    5    5    0    0 -0.48290998862E+02  0.60386831220E+02  0.17870168310E+03  0.19471230443E+03  0.00000000000E+00 0. -1.
          3    1    6    6  503    0 -0.39778122229E+02  0.34984914503E+00  0.54058679693E+02  0.67117525674E+02  0.00000000000E+00 0. -1.
         -3    1    6    6    0  503 -0.44852085849E+03 -0.29821206492E+03  0.91942220331E+03  0.10655696055E+04  0.00000000000E+00 0.  1.
<mgrwt>
<rscale>  0 0.18279498E+04</rscale>
<asrwt>0</asrwt>
<pdfrwt beam="1">  1        2 0.45136775E+00 0.18279498E+04</pdfrwt>
<pdfrwt beam="2">  1       -3 0.43803750E-01 0.18279498E+04</pdfrwt>
<totfact> 0.60649470E+00</totfact>
</mgrwt>
</event>
<event>
12    6  0.1611689E-007  0.1704181E+04  0.7818608E-02  0.8758983E-01
         -1   -1    0    0    0  501 -0.00000000000E+00  0.00000000000E+00  0.10897810998E+04  0.10897810998E+04  0.00000000000E+00 0.  1.
          2   -1    0    0  501    0  0.00000000000E+00 -0.00000000000E+00 -0.66624211498E+03  0.66624211498E+03  0.00000000000E+00 0. -1.
         24    2    1    2    0    0 -0.40300500451E+03  0.12467088473E+03 -0.31091299565E+03  0.52998134170E+03  0.79104162503E+02 0.  0.
        254    2    1    2    0    0  0.40300500451E+03 -0.12467088473E+03  0.73445198046E+03  0.12260418731E+04  0.88645535689E+03 0.  0.
         23    2    4    4    0    0 -0.11526817119E+03 -0.19803429035E+03 -0.74981754321E+02  0.25795471501E+03  0.91728076767E+02 0.  0.
         23    2    4    4    0    0  0.51827317570E+03  0.73363405621E+02  0.80943373478E+03  0.96808715807E+03  0.89557248062E+02 0.  0.
          4    1    3    3  502    0 -0.24853743868E+03  0.64982848049E+02 -0.14240054637E+03  0.29372018074E+03  0.00000000000E+00 0. -1.
         -1    1    3    3    0  502 -0.15446756583E+03  0.59688036685E+02 -0.16851244928E+03  0.23626116097E+03  0.00000000000E+00 0.  1.
         11    1    5    5    0    0  0.11640893419E+02 -0.44014898413E+02 -0.26128237563E+02  0.52492918380E+02  0.00000000000E+00 0. -1.
        -11    1    5    5    0    0 -0.12690906460E+03 -0.15401939194E+03 -0.48853516759E+02  0.20546179663E+03  0.00000000000E+00 0.  1.
          2    1    6    6  503    0  0.32553072201E+02  0.25693897510E+02  0.85153963424E+02  0.94715766194E+02  0.00000000000E+00 0. -1.
         -2    1    6    6    0  503  0.48572010350E+03  0.47669508111E+02  0.72427977136E+03  0.87337139187E+03  0.00000000000E+00 0.  1.
<mgrwt>
<rscale>  0 0.17041808E+04</rscale>
<asrwt>0</asrwt>
<pdfrwt beam="1">  1        2 0.10249879E+00 0.17041808E+04</pdfrwt>
<pdfrwt beam="2">  1       -1 0.16765863E+00 0.17041808E+04</pdfrwt>
<totfact> 0.12129118E+01</totfact>
</mgrwt>
</event>
<event>
12    6  0.1611689E-007  0.2073861E+04  0.7818608E-02  0.8572846E-01
          2   -1    0    0  501    0  0.00000000000E+00  0.00000000000E+00  0.36649484233E+04  0.36649484233E+04  0.00000000000E+00 0. -1.
         -1   -1    0    0    0  501 -0.00000000000E+00 -0.00000000000E+00 -0.29338049682E+03  0.29338049682E+03  0.00000000000E+00 0.  1.
         24    2    1    2    0    0  0.74633315136E+03  0.19682934128E+03  0.19725123414E+04  0.21196317113E+04  0.79238197438E+02 0.  0.
        254    2    1    2    0    0 -0.74633315136E+03 -0.19682934128E+03  0.13990555851E+04  0.18386972089E+04  0.90977795830E+03 0.  0.
         23    2    4    4    0    0 -0.44785760871E+03  0.12146478296E+03  0.12796303081E+03  0.49140712852E+03  0.98875161327E+02 0.  0.
         23    2    4    4    0    0 -0.29847554265E+03 -0.31829412424E+03  0.12710925543E+04  0.13472900804E+04  0.95475023164E+02 0.  0.
          4    1    3    3  502    0  0.55351471034E+03  0.12719355373E+03  0.15275633742E+04  0.16297259269E+04  0.00000000000E+00 0. -1.
         -3    1    3    3    0  502  0.19281844102E+03  0.69635787548E+02  0.44494896723E+03  0.48990578436E+03  0.00000000000E+00 0.  1.
         11    1    5    5    0    0 -0.37003668149E+03  0.13384145540E+03  0.88713812105E+02  0.40337429429E+03  0.00000000000E+00 0.  1.
        -11    1    5    5    0    0 -0.77820927213E+02 -0.12376672445E+02  0.39249218709E+02  0.88032834228E+02  0.00000000000E+00 0. -1.
          3    1    6    6  503    0 -0.13398717874E+02 -0.91897426412E+01  0.13323550233E+03  0.13422248728E+03  0.00000000000E+00 0. -1.
         -3    1    6    6    0  503 -0.28507682478E+03 -0.30910438159E+03  0.11378570520E+04  0.12130675931E+04  0.00000000000E+00 0.  1.
<mgrwt>
<rscale>  0 0.20738605E+04</rscale>
<asrwt>0</asrwt>
<pdfrwt beam="1">  1        2 0.56383819E+00 0.20738605E+04</pdfrwt>
<pdfrwt beam="2">  1       -1 0.45135464E-01 0.20738605E+04</pdfrwt>
<totfact> 0.31897859E+00</totfact>
</mgrwt>
</event>
<event>
12    6  0.1611689E-007  0.1957878E+04  0.7818608E-02  0.8626571E-01
          2   -1    0    0  501    0  0.00000000000E+00  0.00000000000E+00  0.15926100758E+04  0.15926100758E+04  0.00000000000E+00 0. -1.
         -1   -1    0    0    0  501 -0.00000000000E+00 -0.00000000000E+00 -0.60173024642E+03  0.60173024642E+03  0.00000000000E+00 0.  1.
         24    2    1    2    0    0 -0.21450267811E+03 -0.47193047517E+03  0.10268985199E+04  0.11531427060E+04  0.80546620075E+02 0.  0.
        254    2    1    2    0    0  0.21450267811E+03  0.47193047517E+03 -0.36018690454E+02  0.10411976163E+04  0.90225570528E+03 0.  0.
         23    2    4    4    0    0  0.37226586361E+03  0.41763893401E+03 -0.35565142671E+03  0.66952452199E+03  0.93653594779E+02 0.  0.
         23    2    4    4    0    0 -0.15776318550E+03  0.54291541160E+02  0.31963273625E+03  0.37167309426E+03  0.90216455115E+02 0.  0.
          4    1    3    3  502    0 -0.81143925771E+02 -0.26912798947E+03  0.58261999333E+03  0.64688505010E+03  0.00000000000E+00 0. -1.
         -3    1    3    3    0  502 -0.13335875234E+03 -0.20280248570E+03  0.44427852653E+03  0.50625765591E+03  0.00000000000E+00 0.  1.
         11    1    5    5    0    0  0.19604443929E+03  0.26862463111E+03 -0.24815028603E+03  0.41493515044E+03  0.00000000000E+00 0.  1.
        -11    1    5    5    0    0  0.17622142432E+03  0.14901430290E+03 -0.10750114068E+03  0.25458937155E+03  0.00000000000E+00 0. -1.
          4    1    6    6  503    0 -0.12617561282E+03  0.20175036375E+02  0.15647030437E+03  0.20201552790E+03  0.00000000000E+00 0. -1.
         -4    1    6    6    0  503 -0.31587572683E+02  0.34116504785E+02  0.16316243188E+03  0.16965756636E+03  0.00000000000E+00 0.  1.
<mgrwt>
<rscale>  0 0.19578781E+04</rscale>
<asrwt>0</asrwt>
<pdfrwt beam="1">  1        2 0.24501693E+00 0.19578781E+04</pdfrwt>
<pdfrwt beam="2">  1       -1 0.92573885E-01 0.19578781E+04</pdfrwt>
<totfact> 0.13566142E+01</totfact>
</mgrwt>
</event>
<event>
12    6  0.1611689E-007  0.1858226E+04  0.7818608E-02  0.8675934E-01
         -1   -1    0    0    0  501 -0.00000000000E+00  0.00000000000E+00  0.37600237132E+03  0.37600237132E+03  0.00000000000E+00 0.  1.
          2   -1    0    0  501    0  0.00000000000E+00 -0.00000000000E+00 -0.22958658485E+04  0.22958658485E+04  0.00000000000E+00 0. -1.
         24    2    1    2    0    0  0.32371211365E+03 -0.52672494171E+03 -0.11168481671E+04  0.12789900615E+04  0.78975011245E+02 0.  0.
        254    2    1    2    0    0 -0.32371211365E+03  0.52672494171E+03 -0.80301531011E+03  0.13928781583E+04  0.95553507464E+03 0.  0.
         23    2    4    4    0    0  0.19142456810E+03  0.54955465007E+03 -0.56952306921E+03  0.81960049741E+03  0.93459993054E+02 0.  0.
         23    2    4    4    0    0 -0.51513668175E+03 -0.22829708357E+02 -0.23349224089E+03  0.57327766089E+03  0.90783552769E+02 0.  0.
          2    1    3    3  502    0  0.16939391362E+03 -0.28548182340E+03 -0.67905305678E+03  0.75584867757E+03  0.00000000000E+00 0. -1.
         -1    1    3    3    0  502  0.15431820003E+03 -0.24124311831E+03 -0.43779511030E+03  0.52314138394E+03  0.00000000000E+00 0.  1.
         11    1    5    5    0    0  0.13046060368E+03  0.38926944545E+03 -0.45783046649E+03  0.61494666950E+03  0.00000000000E+00 0. -1.
        -11    1    5    5    0    0  0.60963964419E+02  0.16028520462E+03 -0.11169260272E+03  0.20465382791E+03  0.00000000000E+00 0.  1.
          4    1    6    6  503    0 -0.41012063610E+03 -0.39784824235E+02 -0.15166963169E+03  0.43907339429E+03  0.00000000000E+00 0. -1.
         -4    1    6    6    0  503 -0.10501604565E+03  0.16955115878E+02 -0.81822609199E+02  0.13420426660E+03  0.00000000000E+00 0.  1.
<mgrwt>
<rscale>  0 0.18582260E+04</rscale>
<asrwt>0</asrwt>
<pdfrwt beam="1">  1        2 0.35321012E+00 0.18582260E+04</pdfrwt>
<pdfrwt beam="2">  1       -1 0.57846520E-01 0.18582260E+04</pdfrwt>
<totfact> 0.14769692E+01</totfact>
</mgrwt>
</event>
<event>
12    6  0.1611689E-007  0.1691354E+04  0.7818608E-02  0.8766311E-01
          2   -1    0    0  501    0  0.00000000000E+00  0.00000000000E+00  0.16536988738E+04  0.16536988738E+04  0.00000000000E+00 0. -1.
         -1   -1    0    0    0  501 -0.00000000000E+00 -0.00000000000E+00 -0.43246648786E+03  0.43246648786E+03  0.00000000000E+00 0.  1.
         24    2    1    2    0    0 -0.20565537690E+03 -0.34228226299E+03  0.10027439273E+04  0.10821570385E+04  0.78212471244E+02 0.  0.
        254    2    1    2    0    0  0.20565537690E+03  0.34228226299E+03  0.21848845871E+03  0.10040083232E+04  0.89489900261E+03 0.  0.
         23    2    4    4    0    0  0.13761006960E+03  0.56589962282E+03  0.38443724716E+03  0.70324098580E+03  0.87045808305E+02 0.  0.
         23    2    4    4    0    0  0.68045307306E+02 -0.22361735983E+03 -0.16594878845E+03  0.30076733741E+03  0.91033528989E+02 0.  0.
          2    1    3    3  502    0 -0.66465437985E+02 -0.17511322569E+03  0.40998030475E+03  0.45073955512E+03  0.00000000000E+00 0. -1.
         -1    1    3    3    0  502 -0.13918993892E+03 -0.16716903730E+03  0.59276362252E+03  0.63141748337E+03  0.00000000000E+00 0.  1.
         11    1    5    5    0    0  0.16843106366E+02  0.10205587939E+03  0.10970837783E+03  0.15078136793E+03  0.00000000000E+00 0.  1.
        -11    1    5    5    0    0  0.12076696323E+03  0.46384374344E+03  0.27472886932E+03  0.55245961787E+03  0.00000000000E+00 0. -1.
          4    1    6    6  503    0  0.26843009020E+02 -0.35250555013E+02 -0.76059655567E+02  0.88023973819E+02  0.00000000000E+00 0.  1.
         -4    1    6    6    0  503  0.41202298286E+02 -0.18836680481E+03 -0.89889132881E+02  0.21274336359E+03  0.00000000000E+00 0. -1.
<mgrwt>
<rscale>  0 0.16913537E+04</rscale>
<asrwt>0</asrwt>
<pdfrwt beam="1">  1        2 0.25441521E+00 0.16913537E+04</pdfrwt>
<pdfrwt beam="2">  1       -1 0.66533307E-01 0.16913537E+04</pdfrwt>
<totfact> 0.25840457E+01</totfact>
</mgrwt>
</event>
<event>
12    6  0.1611689E-007  0.1322352E+04  0.7818608E-02  0.9012025E-01
         -1   -1    0    0    0  501 -0.00000000000E+00  0.00000000000E+00  0.57387170924E+03  0.57387170924E+03  0.00000000000E+00 0.  1.
          2   -1    0    0  501    0  0.00000000000E+00 -0.00000000000E+00 -0.76176227555E+03  0.76176227555E+03  0.00000000000E+00 0. -1.
         24    2    1    2    0    0 -0.28844856008E+03  0.13563611804E+03  0.91219547589E+02  0.34090192612E+03  0.79330883276E+02 0.  0.
        254    2    1    2    0    0  0.28844856008E+03 -0.13563611804E+03 -0.27911011390E+03  0.99473205866E+03  0.89999426916E+03 0.  0.
         23    2    4    4    0    0  0.54667106713E+03 -0.12839688451E+03  0.45487347642E+02  0.56955080764E+03  0.83570378102E+02 0.  0.
         23    2    4    4    0    0 -0.25822250705E+03 -0.72392335319E+01 -0.32459746155E+03  0.42518125103E+03  0.93189669678E+02 0.  0.
          4    1    3    3  502    0 -0.86718974688E+02  0.81519458985E+02  0.23340649975E+02  0.12128639126E+03  0.00000000000E+00 0. -1.
         -3    1    3    3    0  502 -0.20172958540E+03  0.54116659054E+02  0.67878897614E+02  0.21961553486E+03  0.00000000000E+00 0.  1.
         11    1    5    5    0    0  0.43380278456E+03 -0.69542035857E+02  0.50011901149E+02  0.44217885623E+03  0.00000000000E+00 0. -1.
        -11    1    5    5    0    0  0.11286828257E+03 -0.58854848651E+02 -0.45245535073E+01  0.12737195140E+03  0.00000000000E+00 0.  1.
          2    1    6    6  503    0 -0.20038395673E+03 -0.44562320593E+02 -0.23161103042E+03  0.30948861036E+03  0.00000000000E+00 0. -1.
         -2    1    6    6    0  503 -0.57838550320E+02  0.37323087061E+02 -0.92986431128E+02  0.11569264067E+03  0.00000000000E+00 0.  1.
<mgrwt>
<rscale>  0 0.13223522E+04</rscale>
<asrwt>0</asrwt>
<pdfrwt beam="1">  1        2 0.11719420E+00 0.13223522E+04</pdfrwt>
<pdfrwt beam="2">  1       -1 0.88287956E-01 0.13223522E+04</pdfrwt>
<totfact> 0.51773790E+01</totfact>
</mgrwt>
</event>
<event>
12    6  0.1611689E-007  0.1897430E+04  0.7818608E-02  0.8656136E-01
          2   -1    0    0  501    0  0.00000000000E+00  0.00000000000E+00  0.16791685843E+04  0.16791685843E+04  0.00000000000E+00 0. -1.
         -1   -1    0    0    0  501 -0.00000000000E+00 -0.00000000000E+00 -0.53601563241E+03  0.53601563241E+03  0.00000000000E+00 0.  1.
         24    2    1    2    0    0  0.21992097784E+03  0.59636024319E+03  0.95501683472E+03  0.11502351955E+04  0.83504935904E+02 0.  0.
        254    2    1    2    0    0 -0.21992097784E+03 -0.59636024319E+03  0.18813611721E+03  0.10649490212E+04  0.83349291721E+03 0.  0.
         23    2    4    4    0    0 -0.98022128118E+02 -0.37728283136E+03  0.50836324423E+03  0.64704101650E+03  0.90984704811E+02 0.  0.
         23    2    4    4    0    0 -0.12189884972E+03 -0.21907741182E+03 -0.32022712702E+03  0.41790800472E+03  0.96163639661E+02 0.  0.
          2    1    3    3  502    0  0.14495118205E+03  0.44977148502E+03  0.65003987381E+03  0.80365233246E+03  0.00000000000E+00 0. -1.
         -1    1    3    3    0  502  0.74969795784E+02  0.14658875816E+03  0.30497696091E+03  0.34658286309E+03  0.00000000000E+00 0.  1.
         11    1    5    5    0    0 -0.10211958150E+03 -0.28273792165E+03  0.42720489750E+03  0.52237263109E+03  0.00000000000E+00 0.  1.
        -11    1    5    5    0    0  0.40974533829E+01 -0.94544909712E+02  0.81158346724E+02  0.12466838541E+03  0.00000000000E+00 0. -1.
          1    1    6    6  503    0 -0.24793493311E+01 -0.13526503236E+02 -0.75448051375E+02  0.76691081093E+02  0.00000000000E+00 0. -1.
         -1    1    6    6    0  503 -0.11941950039E+03 -0.20555090859E+03 -0.24477907564E+03  0.34121692362E+03  0.00000000000E+00 0.  1.
<mgrwt>
<rscale>  0 0.18974305E+04</rscale>
<asrwt>0</asrwt>
<pdfrwt beam="1">  1        2 0.25833363E+00 0.18974305E+04</pdfrwt>
<pdfrwt beam="2">  1       -1 0.82463944E-01 0.18974305E+04</pdfrwt>
<totfact> 0.15709607E+01</totfact>
</mgrwt>
</event>
<event>
12    6  0.1611689E-007  0.1926664E+04  0.7818608E-02  0.8641697E-01
          2   -1    0    0  501    0  0.00000000000E+00  0.00000000000E+00  0.34758531010E+04  0.34758531010E+04  0.00000000000E+00 0. -1.
         -1   -1    0    0    0  501 -0.00000000000E+00 -0.00000000000E+00 -0.26698732842E+03  0.26698732842E+03  0.00000000000E+00 0.  1.
         24    2    1    2    0    0 -0.35103604230E+03 -0.91446898741E+01  0.25388549962E+04  0.25642899647E+04  0.80550622301E+02 0.  0.
        254    2    1    2    0    0  0.35103604230E+03  0.91446898741E+01  0.67001077638E+03  0.11785504648E+04  0.90374599815E+03 0.  0.
         23    2    4    4    0    0  0.25352673099E+03  0.27094142762E+03 -0.65172663091E+02  0.38590175707E+03  0.83592042461E+02 0.  0.
         23    2    4    4    0    0  0.97509311306E+02 -0.26179673775E+03  0.73518343947E+03  0.79264870769E+03  0.98750627549E+02 0.  0.
          4    1    3    3  502    0 -0.32600764545E+03 -0.30423193064E+02  0.23079652475E+04  0.23310748893E+04  0.00000000000E+00 0. -1.
         -1    1    3    3    0  502 -0.25028396848E+02  0.21278503190E+02  0.23088974867E+03  0.23321507539E+03  0.00000000000E+00 0.  1.
         11    1    5    5    0    0  0.61119979599E+02  0.32838380700E+02  0.11475164828E+02  0.70325603879E+02  0.00000000000E+00 0.  1.
        -11    1    5    5    0    0  0.19240675140E+03  0.23810304692E+03 -0.76647827919E+02  0.31557615319E+03  0.00000000000E+00 0. -1.
          3    1    6    6  503    0  0.93114792523E+02 -0.26703484381E+03  0.67181486236E+03  0.72891232784E+03  0.00000000000E+00 0. -1.
         -3    1    6    6    0  503  0.43945187834E+01  0.52381060641E+01  0.63368577118E+02  0.63736379850E+02  0.00000000000E+00 0.  1.
<mgrwt>
<rscale>  0 0.19266642E+04</rscale>
<asrwt>0</asrwt>
<pdfrwt beam="1">  1        2 0.53474660E+00 0.19266642E+04</pdfrwt>
<pdfrwt beam="2">  1       -1 0.41074976E-01 0.19266642E+04</pdfrwt>
<totfact> 0.52488362E+00</totfact>
</mgrwt>
</event>
<event>
12    6  0.1611689E-007  0.1990463E+04  0.7818608E-02  0.8611093E-01
         -1   -1    0    0    0  501 -0.00000000000E+00  0.00000000000E+00  0.60977754254E+03  0.60977754254E+03  0.00000000000E+00 0.  1.
          2   -1    0    0  501    0  0.00000000000E+00 -0.00000000000E+00 -0.16243391351E+04  0.16243391351E+04  0.00000000000E+00 0. -1.
         24    2    1    2    0    0  0.23404436589E+03 -0.45405722206E+03 -0.10764526690E+04  0.11942197930E+04  0.80410441888E+02 0.  0.
        254    2    1    2    0    0 -0.23404436589E+03  0.45405722206E+03  0.61891076452E+02  0.10398968847E+04  0.90366492645E+03 0.  0.
         23    2    4    4    0    0 -0.46995317365E+03  0.10531597926E+03  0.27216954068E+03  0.56032971868E+03  0.89138621542E+02 0.  0.
         23    2    4    4    0    0  0.23590880776E+03  0.34874124280E+03 -0.21027846423E+03  0.47956716599E+03  0.92164061149E+02 0.  0.
          2    1    3    3  502    0  0.11311419429E+03 -0.27838514402E+03 -0.56145129483E+03  0.63680504538E+03  0.00000000000E+00 0. -1.
         -3    1    3    3    0  502  0.12093017160E+03 -0.17567207804E+03 -0.51500137418E+03  0.55741474757E+03  0.00000000000E+00 0.  1.
         11    1    5    5    0    0 -0.37487343106E+03  0.10263218089E+03  0.18164316101E+03  0.42901945389E+03  0.00000000000E+00 0. -1.
        -11    1    5    5    0    0 -0.95079742593E+02  0.26837983641E+01  0.90526379666E+02  0.13131026480E+03  0.00000000000E+00 0.  1.
          1    1    6    6  503    0  0.22232100003E+03  0.29321477290E+03 -0.15259115000E+03  0.39835359815E+03  0.00000000000E+00 0. -1.
         -1    1    6    6    0  503  0.13587807734E+02  0.55526469900E+02 -0.57687314226E+02  0.81213567839E+02  0.00000000000E+00 0.  1.
<mgrwt>
<rscale>  0 0.19904628E+04</rscale>
<asrwt>0</asrwt>
<pdfrwt beam="1">  1        2 0.24989832E+00 0.19904628E+04</pdfrwt>
<pdfrwt beam="2">  1       -1 0.93811931E-01 0.19904628E+04</pdfrwt>
<totfact> 0.12607463E+01</totfact>
</mgrwt>
</event>
<event>
12    6  0.1611689E-007  0.2358885E+04  0.7818608E-02  0.8455059E-01
         -1   -1    0    0    0  501 -0.00000000000E+00  0.00000000000E+00  0.53225775218E+03  0.53225775218E+03  0.00000000000E+00 0.  1.
          2   -1    0    0  501    0  0.00000000000E+00 -0.00000000000E+00 -0.26135539809E+04  0.26135539809E+04  0.00000000000E+00 0. -1.
         24    2    1    2    0    0 -0.40843906901E+03  0.85172758367E+03 -0.13563982945E+04  0.16548273787E+04  0.79843409312E+02 0.  0.
        254    2    1    2    0    0  0.40843906901E+03 -0.85172758367E+03 -0.72489793419E+03  0.14909843544E+04  0.89738229320E+03 0.  0.
         23    2    4    4    0    0  0.27391386284E+03  0.12372925280E+03 -0.19357813809E+03  0.36785196863E+03  0.86630497112E+02 0.  0.
         23    2    4    4    0    0  0.13452520617E+03 -0.97545683647E+03 -0.53131979610E+03  0.11231323857E+04  0.97532349932E+02 0.  0.
          2    1    3    3  502    0 -0.51346455944E+02  0.17458106686E+03 -0.24069743306E+03  0.30174535908E+03  0.00000000000E+00 0. -1.
         -1    1    3    3    0  502 -0.35709261306E+03  0.67714651681E+03 -0.11157008615E+04  0.13530820196E+04  0.00000000000E+00 0.  1.
         11    1    5    5    0    0  0.21657542908E+03  0.12710634554E+03 -0.17960894704E+03  0.30873987986E+03  0.00000000000E+00 0. -1.
        -11    1    5    5    0    0  0.57338433756E+02 -0.33770927430E+01 -0.13969191052E+02  0.59112088777E+02  0.00000000000E+00 0.  1.
          4    1    6    6  503    0  0.48802945931E+02 -0.32799131941E+03 -0.23195288836E+03  0.40467539530E+03  0.00000000000E+00 0.  1.
         -4    1    6    6    0  503  0.85722260239E+02 -0.64746551706E+03 -0.29936690774E+03  0.71845699045E+03  0.00000000000E+00 0. -1.
<mgrwt>
<rscale>  0 0.23588848E+04</rscale>
<asrwt>0</asrwt>
<pdfrwt beam="1">  1        2 0.40208522E+00 0.23588848E+04</pdfrwt>
<pdfrwt beam="2">  1       -1 0.81885810E-01 0.23588848E+04</pdfrwt>
<totfact> 0.45512698E+00</totfact>
</mgrwt>
</event>
<event>
12    6  0.1611689E-007  0.1538302E+04  0.7818608E-02  0.8859375E-01
          2   -1    0    0  501    0  0.00000000000E+00  0.00000000000E+00  0.76723053435E+03  0.76723053435E+03  0.00000000000E+00 0. -1.
         -1   -1    0    0    0  501 -0.00000000000E+00 -0.00000000000E+00 -0.77107586288E+03  0.77107586288E+03  0.00000000000E+00 0.  1.
         24    2    1    2    0    0  0.69229840416E+02 -0.51640222980E+02  0.49367275790E+03  0.50766586695E+03  0.80946631378E+02 0.  0.
        254    2    1    2    0    0 -0.69229840416E+02  0.51640222980E+02 -0.49751808644E+03  0.10306405303E+04  0.89846322846E+03 0.  0.
         23    2    4    4    0    0  0.21871746282E+03  0.70416683010E+02  0.16880727754E+03  0.29926185742E+03  0.90917130233E+02 0.  0.
         23    2    4    4    0    0 -0.28794730324E+03 -0.18776460030E+02 -0.66632536397E+03  0.73137867286E+03  0.87516098772E+02 0.  0.
          2    1    3    3  502    0  0.70991121068E+02 -0.27282712563E+02  0.45898809424E+03  0.46524633941E+03  0.00000000000E+00 0. -1.
         -1    1    3    3    0  502 -0.17612806515E+01 -0.24357510418E+02  0.34684663662E+02  0.42419527539E+02  0.00000000000E+00 0.  1.
         11    1    5    5    0    0  0.27636572613E+02  0.45974105031E+02  0.47202296257E+02  0.71452468474E+02  0.00000000000E+00 0.  1.
        -11    1    5    5    0    0  0.19108089021E+03  0.24442577980E+02  0.12160498128E+03  0.22780938895E+03  0.00000000000E+00 0. -1.
          1    1    6    6  503    0 -0.18983580380E+03  0.10470279979E+02 -0.51221284290E+03  0.54636000549E+03  0.00000000000E+00 0. -1.
         -1    1    6    6    0  503 -0.98111499440E+02 -0.29246740008E+02 -0.15411252107E+03  0.18501866737E+03  0.00000000000E+00 0.  1.
<mgrwt>
<rscale>  0 0.15383016E+04</rscale>
<asrwt>0</asrwt>
<pdfrwt beam="1">  1        2 0.11803547E+00 0.15383016E+04</pdfrwt>
<pdfrwt beam="2">  1       -1 0.11862706E+00 0.15383016E+04</pdfrwt>
<totfact> 0.25508486E+01</totfact>
</mgrwt>
</event>
<event>
12    6  0.1611689E-007  0.1653242E+04  0.7818608E-02  0.8788491E-01
         -1   -1    0    0    0  501 -0.00000000000E+00  0.00000000000E+00  0.29194040941E+03  0.29194040941E+03  0.00000000000E+00 0.  1.
          2   -1    0    0  501    0  0.00000000000E+00 -0.00000000000E+00 -0.23405531674E+04  0.23405531674E+04  0.00000000000E+00 0. -1.
         24    2    1    2    0    0 -0.31891903329E+03 -0.17321700905E+03 -0.19027023122E+02  0.37198037554E+03  0.79334041635E+02 0.  0.
        254    2    1    2    0    0  0.31891903329E+03  0.17321700905E+03 -0.20295857349E+04  0.22605132013E+04  0.92681616078E+03 0.  0.
         23    2    4    4    0    0  0.31714746277E+03  0.37210182840E+03 -0.46586314109E+03  0.68166070595E+03  0.92685316862E+02 0.  0.
         23    2    4    4    0    0  0.17715705176E+01 -0.19888481935E+03 -0.15637225938E+04  0.15788524953E+04  0.89378643138E+02 0.  0.
          4    1    3    3  502    0 -0.30981612337E+02 -0.29720839148E+02 -0.26000969117E+02  0.50192021056E+02  0.00000000000E+00 0. -1.
         -1    1    3    3    0  502 -0.28793742095E+03 -0.14349616990E+03  0.69739459945E+01  0.32178835449E+03  0.00000000000E+00 0.  1.
         11    1    5    5    0    0  0.17788702383E+02  0.16219101378E+02 -0.59128212791E+02  0.63840760724E+02  0.00000000000E+00 0. -1.
        -11    1    5    5    0    0  0.29935876039E+03  0.35588272703E+03 -0.40673492830E+03  0.61781994522E+03  0.00000000000E+00 0.  1.
          4    1    6    6  503    0 -0.43329028527E+01 -0.65836267187E+02 -0.25602661694E+03  0.26439140816E+03  0.00000000000E+00 0. -1.
         -4    1    6    6    0  503  0.61044733703E+01 -0.13304855216E+03 -0.13076959768E+04  0.13144610872E+04  0.00000000000E+00 0.  1.
<mgrwt>
<rscale>  0 0.16532417E+04</rscale>
<asrwt>0</asrwt>
<pdfrwt beam="1">  1        2 0.36008510E+00 0.16532417E+04</pdfrwt>
<pdfrwt beam="2">  1       -1 0.44913909E-01 0.16532417E+04</pdfrwt>
<totfact> 0.23006588E+01</totfact>
</mgrwt>
</event>
<event>
12    6  0.1611689E-007  0.1785648E+04  0.7818608E-02  0.8713969E-01
          2   -1    0    0  501    0  0.00000000000E+00  0.00000000000E+00  0.13193856963E+04  0.13193856963E+04  0.00000000000E+00 0. -1.
         -1   -1    0    0    0  501 -0.00000000000E+00 -0.00000000000E+00 -0.60417095073E+03  0.60417095073E+03  0.00000000000E+00 0.  1.
         24    2    1    2    0    0 -0.58521473998E+02 -0.61643259322E+03  0.52108249411E+03  0.81342307685E+03  0.81952616776E+02 0.  0.
        254    2    1    2    0    0  0.58521473998E+02  0.61643259322E+03  0.19413225150E+03  0.11101335702E+04  0.90071932796E+03 0.  0.
         23    2    4    4    0    0 -0.17332190303E+03  0.65179001988E+03  0.39599491855E+03  0.78735715265E+03  0.90821793752E+02 0.  0.
         23    2    4    4    0    0  0.23184337703E+03 -0.35357426665E+02 -0.20186266705E+03  0.32277641758E+03  0.91839971151E+02 0.  0.
          4    1    3    3  502    0 -0.22971228878E+02 -0.36202891024E+03  0.25388479772E+03  0.44277545067E+03  0.00000000000E+00 0. -1.
         -3    1    3    3    0  502 -0.35550245120E+02 -0.25440368298E+03  0.26719769638E+03  0.37064762618E+03  0.00000000000E+00 0.  1.
         11    1    5    5    0    0 -0.11367711799E+03  0.45864789472E+03  0.32330021005E+03  0.57254118132E+03  0.00000000000E+00 0. -1.
        -11    1    5    5    0    0 -0.59644785041E+02  0.19314212516E+03  0.72694708495E+02  0.21481597132E+03  0.00000000000E+00 0.  1.
          1    1    6    6  503    0  0.18772105318E+03  0.10500035088E+02 -0.14495335883E+03  0.23740455089E+03  0.00000000000E+00 0. -1.
         -1    1    6    6    0  503  0.44122323849E+02 -0.45857461753E+02 -0.56909308217E+02  0.85371866689E+02  0.00000000000E+00 0.  1.
<mgrwt>
<rscale>  0 0.17856478E+04</rscale>
<asrwt>0</asrwt>
<pdfrwt beam="1">  1        2 0.20298241E+00 0.17856478E+04</pdfrwt>
<pdfrwt beam="2">  1       -1 0.92949378E-01 0.17856478E+04</pdfrwt>
<totfact> 0.19514122E+01</totfact>
</mgrwt>
</event>
<event>
12    6  0.1611689E-007  0.2188877E+04  0.7818608E-02  0.8523072E-01
          2   -1    0    0  501    0  0.00000000000E+00  0.00000000000E+00  0.10099802166E+04  0.10099802166E+04  0.00000000000E+00 0. -1.
         -1   -1    0    0    0  501 -0.00000000000E+00 -0.00000000000E+00 -0.11859596688E+04  0.11859596688E+04  0.00000000000E+00 0.  1.
         24    2    1    2    0    0 -0.19877030100E+03 -0.76978105919E+03 -0.51168714325E+03  0.94885213242E+03  0.80150639279E+02 0.  0.
        254    2    1    2    0    0  0.19877030100E+03  0.76978105919E+03  0.33570769112E+03  0.12470877530E+04  0.90025313004E+03 0.  0.
         23    2    4    4    0    0  0.13088280196E+03  0.44509423532E+03  0.63455050292E+03  0.79128054776E+03  0.90726943773E+02 0.  0.
         23    2    4    4    0    0  0.67887499047E+02  0.32468682386E+03 -0.29884281180E+03  0.45580720524E+03  0.91776555081E+02 0.  0.
          4    1    3    3  502    0 -0.11079271466E+03 -0.46409575619E+03 -0.26106119790E+03  0.54388679482E+03  0.00000000000E+00 0. -1.
         -3    1    3    3    0  502 -0.87977586344E+02 -0.30568530300E+03 -0.25062594535E+03  0.40496533759E+03  0.00000000000E+00 0.  1.
         11    1    5    5    0    0  0.65211138368E+00  0.10051562008E+03  0.97489008394E+02  0.14002828959E+03  0.00000000000E+00 0. -1.
        -11    1    5    5    0    0  0.13023069057E+03  0.34457861525E+03  0.53706149453E+03  0.65125225816E+03  0.00000000000E+00 0.  1.
          4    1    6    6  503    0  0.25453059872E+02  0.16051736274E+02 -0.12226430656E+02  0.32480795877E+02  0.00000000000E+00 0. -1.
         -4    1    6    6    0  503  0.42434439175E+02  0.30863508759E+03 -0.28661638115E+03  0.42332640936E+03  0.00000000000E+00 0.  1.
<mgrwt>
<rscale>  0 0.21888772E+04</rscale>
<asrwt>0</asrwt>
<pdfrwt beam="1">  1        2 0.15538157E+00 0.21888772E+04</pdfrwt>
<pdfrwt beam="2">  1       -1 0.18245533E+00 0.21888772E+04</pdfrwt>
<totfact> 0.51751325E+00</totfact>
</mgrwt>
</event>
<event>
12    6  0.1611689E-007  0.2876905E+04  0.7818608E-02  0.8279782E-01
          2   -1    0    0  501    0  0.00000000000E+00  0.00000000000E+00  0.25106344516E+04  0.25106344516E+04  0.00000000000E+00 0. -1.
         -1   -1    0    0    0  501 -0.00000000000E+00 -0.00000000000E+00 -0.82415261613E+03  0.82415261613E+03  0.00000000000E+00 0.  1.
         24    2    1    2    0    0 -0.28635060332E+02 -0.98360937784E+03 -0.21554334581E+03  0.10106271421E+04  0.81245993984E+02 0.  0.
        254    2    1    2    0    0  0.28635060332E+02  0.98360937784E+03  0.19020251812E+04  0.23241599256E+04  0.90316786638E+03 0.  0.
         23    2    4    4    0    0  0.19280879539E+03 -0.27232665443E+02  0.77446635699E+02  0.22977112303E+03  0.94233422665E+02 0.  0.
         23    2    4    4    0    0 -0.16417373506E+03  0.10108420433E+04  0.18245785455E+04  0.20943888026E+04  0.92859763912E+02 0.  0.
          2    1    3    3  502    0 -0.13366143961E+02 -0.43963208260E+03 -0.13776253289E+03  0.46090512833E+03  0.00000000000E+00 0. -1.
         -1    1    3    3    0  502 -0.15268916371E+02 -0.54397729524E+03 -0.77780812923E+02  0.54972201375E+03  0.00000000000E+00 0.  1.
         11    1    5    5    0    0  0.12209460372E+03 -0.62452459724E+02  0.44533853772E+02  0.14418968797E+03  0.00000000000E+00 0. -1.
        -11    1    5    5    0    0  0.70714191671E+02  0.35219794280E+02  0.32912781927E+02  0.85581435060E+02  0.00000000000E+00 0.  1.
          2    1    6    6  503    0 -0.68098335446E+02  0.19693623483E+03  0.39234821739E+03  0.44425036586E+03  0.00000000000E+00 0.  1.
         -2    1    6    6    0  503 -0.96075399617E+02  0.81390580845E+03  0.14322303282E+04  0.16501384367E+04  0.00000000000E+00 0. -1.
<mgrwt>
<rscale>  0 0.28769052E+04</rscale>
<asrwt>0</asrwt>
<pdfrwt beam="1">  1        2 0.38625145E+00 0.28769052E+04</pdfrwt>
<pdfrwt beam="2">  1       -1 0.12679271E+00 0.28769052E+04</pdfrwt>
<totfact> 0.18214237E+00</totfact>
</mgrwt>
</event>
<event>
12    6  0.1611689E-007  0.1711672E+04  0.7818608E-02  0.8754735E-01
          2   -1    0    0  501    0  0.00000000000E+00  0.00000000000E+00  0.87826499753E+03  0.87826499753E+03  0.00000000000E+00 0. -1.
         -1   -1    0    0    0  501 -0.00000000000E+00 -0.00000000000E+00 -0.83397960426E+03  0.83397960426E+03  0.00000000000E+00 0.  1.
         24    2    1    2    0    0 -0.12243407442E+03  0.84860938138E+02  0.60944707091E+03  0.63258944069E+03  0.80945579436E+02 0.  0.
        254    2    1    2    0    0  0.12243407442E+03 -0.84860938138E+02 -0.56516167764E+03  0.10796551611E+04  0.90777533763E+03 0.  0.
         23    2    4    4    0    0  0.34408135456E+03  0.19388933521E+03 -0.58447120453E+03  0.71144085529E+03  0.92501074592E+02 0.  0.
         23    2    4    4    0    0 -0.22164728014E+03 -0.27875027335E+03  0.19309526887E+02  0.36821430580E+03  0.91540622059E+02 0.  0.
          2    1    3    3  502    0 -0.67685353956E+02  0.66559442105E+02  0.49917699219E+03  0.50812315043E+03  0.00000000000E+00 0. -1.
         -1    1    3    3    0  502 -0.54748720463E+02  0.18301496033E+02  0.11027007872E+03  0.12446629026E+03  0.00000000000E+00 0.  1.
         11    1    5    5    0    0  0.32220681741E+01  0.10141665808E+02 -0.51859050215E+02  0.52939552302E+02  0.00000000000E+00 0. -1.
        -11    1    5    5    0    0  0.34085928638E+03  0.18374766940E+03 -0.53261215431E+03  0.65850130299E+03  0.00000000000E+00 0.  1.
          1    1    6    6  503    0 -0.10429305205E+03 -0.11990982869E+03 -0.36364274866E+02  0.16302689413E+03  0.00000000000E+00 0. -1.
         -1    1    6    6    0  503 -0.11735422809E+03 -0.15884044466E+03  0.55673801753E+02  0.20518741168E+03  0.00000000000E+00 0.  1.
<mgrwt>
<rscale>  0 0.17116718E+04</rscale>
<asrwt>0</asrwt>
<pdfrwt beam="1">  1        2 0.13511769E+00 0.17116718E+04</pdfrwt>
<pdfrwt beam="2">  1       -1 0.12830455E+00 0.17116718E+04</pdfrwt>
<totfact> 0.17259955E+01</totfact>
</mgrwt>
</event>
<event>
12    6  0.1611689E-007  0.1675086E+04  0.7818608E-02  0.8775703E-01
          2   -1    0    0  501    0  0.00000000000E+00  0.00000000000E+00  0.42172923424E+04  0.42172923424E+04  0.00000000000E+00 0. -1.
         -1   -1    0    0    0  501 -0.00000000000E+00 -0.00000000000E+00 -0.16633382317E+03  0.16633382317E+03  0.00000000000E+00 0.  1.
         24    2    1    2    0    0  0.40619532431E+03  0.35894804768E+02  0.25617838215E+04  0.25953228630E+04  0.81739445070E+02 0.  0.
        254    2    1    2    0    0 -0.40619532431E+03 -0.35894804768E+02  0.14891746978E+04  0.17883033026E+04  0.90227730938E+03 0.  0.
         23    2    4    4    0    0 -0.63037848913E+03  0.17922673233E+03  0.93590442792E+03  0.11459532458E+04  0.88275037218E+02 0.  0.
         23    2    4    4    0    0  0.22418316481E+03 -0.21512153710E+03  0.55327026989E+03  0.64235005682E+03  0.99851073297E+02 0.  0.
          4    1    3    3  502    0  0.31873711410E+03  0.53625287765E+02  0.18579508974E+04  0.18858553912E+04  0.00000000000E+00 0. -1.
         -3    1    3    3    0  502  0.87458210209E+02 -0.17730482997E+02  0.70383292401E+03  0.70946747176E+03  0.00000000000E+00 0.  1.
         11    1    5    5    0    0 -0.39427408497E+02 -0.98853135938E+01  0.51684694483E+02  0.65753688941E+02  0.00000000000E+00 0.  1.
        -11    1    5    5    0    0 -0.59095108063E+03  0.18911204593E+03  0.88421973344E+03  0.10801995568E+04  0.00000000000E+00 0. -1.
          3    1    6    6  503    0  0.14827332542E+03 -0.11880017036E+03  0.24117618734E+03  0.30702510133E+03  0.00000000000E+00 0. -1.
         -3    1    6    6    0  503  0.75909839396E+02 -0.96321366738E+02  0.31209408256E+03  0.33532495549E+03  0.00000000000E+00 0.  1.
<mgrwt>
<rscale>  0 0.16750861E+04</rscale>
<asrwt>0</asrwt>
<pdfrwt beam="1">  1        2 0.64881413E+00 0.16750861E+04</pdfrwt>
<pdfrwt beam="2">  1       -1 0.25589822E-01 0.16750861E+04</pdfrwt>
<totfact> 0.33531928E+00</totfact>
</mgrwt>
</event>
<event>
12    6  0.1611689E-007  0.3047172E+04  0.7818608E-02  0.8230387E-01
          2   -1    0    0  501    0  0.00000000000E+00  0.00000000000E+00  0.46617009211E+04  0.46617009211E+04  0.00000000000E+00 0. -1.
         -1   -1    0    0    0  501 -0.00000000000E+00 -0.00000000000E+00 -0.49795437095E+03  0.49795437095E+03  0.00000000000E+00 0.  1.
         24    2    1    2    0    0 -0.52418341539E+03 -0.17076641878E+03  0.40686507540E+04  0.41066130808E+04  0.80141219352E+02 0.  0.
        254    2    1    2    0    0  0.52418341539E+03  0.17076641878E+03  0.95095796151E+02  0.10530422112E+04  0.89214643718E+03 0.  0.
         23    2    4    4    0    0  0.55636665022E+03  0.46996092970E+03  0.79204568973E+02  0.73833260124E+03  0.91948580166E+02 0.  0.
         23    2    4    4    0    0 -0.32183234827E+02 -0.29919451092E+03  0.15891227178E+02  0.31470960995E+03  0.90755118464E+02 0.  0.
          2    1    3    3  502    0 -0.50266698334E+03 -0.17429843018E+03  0.37975499362E+04  0.38346368220E+04  0.00000000000E+00 0. -1.
         -1    1    3    3    0  502 -0.21516432050E+02  0.35320114024E+01  0.27110081779E+03  0.27197625882E+03  0.00000000000E+00 0.  1.
         11    1    5    5    0    0  0.42650824408E+03  0.31226889717E+03  0.38222611592E+02  0.52998312656E+03  0.00000000000E+00 0.  1.
        -11    1    5    5    0    0  0.12985840614E+03  0.15769203253E+03  0.40981957381E+02  0.20834947468E+03  0.00000000000E+00 0. -1.
          3    1    6    6  503    0  0.39147635062E+01 -0.26242656831E+03  0.18585825610E+02  0.26311302142E+03  0.00000000000E+00 0. -1.
         -3    1    6    6    0  503 -0.36097998333E+02 -0.36767942612E+02 -0.26945984323E+01  0.51596588534E+02  0.00000000000E+00 0.  1.
<mgrwt>
<rscale>  0 0.30471720E+04</rscale>
<asrwt>0</asrwt>
<pdfrwt beam="1">  1        2 0.71718473E+00 0.30471720E+04</pdfrwt>
<pdfrwt beam="2">  1       -1 0.76608368E-01 0.30471720E+04</pdfrwt>
<totfact> 0.13945131E-01</totfact>
</mgrwt>
</event>
<event>
12    6  0.1611689E-007  0.2093378E+04  0.7818608E-02  0.8564166E-01
          2   -1    0    0  501    0  0.00000000000E+00  0.00000000000E+00  0.22800920320E+04  0.22800920320E+04  0.00000000000E+00 0. -1.
         -1   -1    0    0    0  501 -0.00000000000E+00 -0.00000000000E+00 -0.48048865804E+03  0.48048865804E+03  0.00000000000E+00 0.  1.
         24    2    1    2    0    0 -0.65344422192E+03  0.48909894290E+03  0.10305337192E+04  0.13170144243E+04  0.79499184779E+02 0.  0.
        254    2    1    2    0    0  0.65344422192E+03 -0.48909894290E+03  0.76906965480E+03  0.14435662657E+04  0.90896001153E+03 0.  0.
         23    2    4    4    0    0  0.69166415270E+03 -0.52564214344E+03  0.91534621817E+03  0.12652887396E+04  0.91640232631E+02 0.  0.
         23    2    4    4    0    0 -0.38219930777E+02  0.36543200544E+02 -0.14627656338E+03  0.17827752619E+03  0.87119887141E+02 0.  0.
          4    1    3    3  502    0 -0.11864182574E+03  0.99617683651E+02  0.15007845091E+03  0.21569215827E+03  0.00000000000E+00 0. -1.
         -3    1    3    3    0  502 -0.53480239618E+03  0.38948125924E+03  0.88045526828E+03  0.11013222661E+04  0.00000000000E+00 0.  1.
         11    1    5    5    0    0  0.10359423715E+03 -0.42229509239E+02  0.10441153908E+03  0.15302570672E+03  0.00000000000E+00 0.  1.
        -11    1    5    5    0    0  0.58806991554E+03 -0.48341263420E+03  0.81093467909E+03  0.11122630328E+04  0.00000000000E+00 0. -1.
          4    1    6    6  503    0 -0.18231252813E+02 -0.27918978033E+02 -0.61072373309E+02  0.69582200994E+02  0.00000000000E+00 0.  1.
         -4    1    6    6    0  503 -0.19988677964E+02  0.64462178578E+02 -0.85204190068E+02  0.10869532519E+03  0.00000000000E+00 0. -1.
<mgrwt>
<rscale>  0 0.20933785E+04</rscale>
<asrwt>0</asrwt>
<pdfrwt beam="1">  1        2 0.35078338E+00 0.20933785E+04</pdfrwt>
<pdfrwt beam="2">  1       -1 0.73921333E-01 0.20933785E+04</pdfrwt>
<totfact> 0.89998505E+00</totfact>
</mgrwt>
</event>
<event>
12    6  0.1611689E-007  0.2433415E+04  0.7818608E-02  0.8427098E-01
          2   -1    0    0  501    0  0.00000000000E+00  0.00000000000E+00  0.34365539187E+04  0.34365539187E+04  0.00000000000E+00 0. -1.
         -1   -1    0    0    0  501 -0.00000000000E+00 -0.00000000000E+00 -0.43077375481E+03  0.43077375481E+03  0.00000000000E+00 0.  1.
         24    2    1    2    0    0  0.95716254388E+03 -0.34731914736E+03  0.90344742153E+03  0.13636263367E+04  0.80428957160E+02 0.  0.
        254    2    1    2    0    0 -0.95716254388E+03  0.34731914736E+03  0.21023327424E+04  0.25037013368E+04  0.90106975246E+03 0.  0.
         23    2    4    4    0    0 -0.18004780108E+03  0.17129098054E+03  0.12354499186E+02  0.26504229261E+03  0.91307023447E+02 0.  0.
         23    2    4    4    0    0 -0.77711474280E+03  0.17602816682E+03  0.20899782432E+04  0.22386590442E+04  0.93231004735E+02 0.  0.
          4    1    3    3  502    0  0.63658577066E+03 -0.21454933274E+03  0.54846287303E+03  0.86722798771E+03  0.00000000000E+00 0. -1.
         -3    1    3    3    0  502  0.32057677322E+03 -0.13276981462E+03  0.35498454851E+03  0.49639834899E+03  0.00000000000E+00 0.  1.
         11    1    5    5    0    0 -0.17047422564E+03  0.11036646468E+03  0.93149447305E+01  0.20329531802E+03  0.00000000000E+00 0. -1.
        -11    1    5    5    0    0 -0.95735754462E+01  0.60924515860E+02  0.30395544552E+01  0.61746974589E+02  0.00000000000E+00 0.  1.
          2    1    6    6  503    0 -0.37365281446E+03  0.54577038762E+02  0.88737977881E+03  0.96438475245E+03  0.00000000000E+00 0.  1.
         -2    1    6    6    0  503 -0.40346192834E+03  0.12145112806E+03  0.12025984644E+04  0.12742742918E+04  0.00000000000E+00 0. -1.
<mgrwt>
<rscale>  0 0.24334151E+04</rscale>
<asrwt>0</asrwt>
<pdfrwt beam="1">  1        2 0.52870058E+00 0.24334151E+04</pdfrwt>
<pdfrwt beam="2">  1       -1 0.66272888E-01 0.24334151E+04</pdfrwt>
<totfact> 0.21209014E+00</totfact>
</mgrwt>
</event>
<event>
12    6  0.1611689E-007  0.1407052E+04  0.7818608E-02  0.8948729E-01
         -1   -1    0    0    0  501 -0.00000000000E+00  0.00000000000E+00  0.12883812151E+04  0.12883812151E+04  0.00000000000E+00 0.  1.
          2   -1    0    0  501    0  0.00000000000E+00 -0.00000000000E+00 -0.38416357190E+03  0.38416357190E+03  0.00000000000E+00 0. -1.
         24    2    1    2    0    0  0.38196753852E+03  0.13098981907E+03  0.30197878259E+03  0.51050004312E+03  0.79759486608E+02 0.  0.
        254    2    1    2    0    0 -0.38196753852E+03 -0.13098981907E+03  0.60223886061E+03  0.11620447439E+04  0.90807423067E+03 0.  0.
         23    2    4    4    0    0  0.58292368486E+02 -0.43389588584E+02  0.68620029096E+03  0.69613552329E+03  0.91941127169E+02 0.  0.
         23    2    4    4    0    0 -0.44025990701E+03 -0.87600230482E+02 -0.83961430341E+02  0.46590922060E+03  0.92300021434E+02 0.  0.
          2    1    3    3  502    0  0.26908510292E+03  0.54634172129E+02  0.18713433560E+03  0.33228142431E+03  0.00000000000E+00 0. -1.
         -1    1    3    3    0  502  0.11288243560E+03  0.76355646937E+02  0.11484444699E+03  0.17821861881E+03  0.00000000000E+00 0.  1.
         11    1    5    5    0    0  0.24269387064E+02  0.16511601949E+02  0.67428153239E+02  0.73540410637E+02  0.00000000000E+00 0.  1.
        -11    1    5    5    0    0  0.34022981422E+02 -0.59901190533E+02  0.61877213772E+03  0.62259511266E+03  0.00000000000E+00 0. -1.
          2    1    6    6  503    0 -0.39196894484E+03 -0.71964462729E+02 -0.43288196187E+02  0.40086457258E+03  0.00000000000E+00 0. -1.
         -2    1    6    6    0  503 -0.48290962163E+02 -0.15635767753E+02 -0.40673234155E+02  0.65044648023E+02  0.00000000000E+00 0.  1.
<mgrwt>
<rscale>  0 0.14070524E+04</rscale>
<asrwt>0</asrwt>
<pdfrwt beam="1">  1        2 0.59102089E-01 0.14070524E+04</pdfrwt>
<pdfrwt beam="2">  1       -1 0.19821249E+00 0.14070524E+04</pdfrwt>
<totfact> 0.14346278E+01</totfact>
</mgrwt>
</event>
<event>
12    6  0.1611689E-007  0.1902025E+04  0.7818608E-02  0.8653849E-01
          2   -1    0    0  501    0  0.00000000000E+00  0.00000000000E+00  0.11769284355E+04  0.11769284355E+04  0.00000000000E+00 0. -1.
         -1   -1    0    0    0  501 -0.00000000000E+00 -0.00000000000E+00 -0.76846159720E+03  0.76846159720E+03  0.00000000000E+00 0.  1.
         24    2    1    2    0    0  0.72931547188E+03 -0.49896826405E+01  0.17851721181E+03  0.75522711503E+03  0.81078023632E+02 0.  0.
        254    2    1    2    0    0 -0.72931547188E+03  0.49896826405E+01  0.22994962651E+03  0.11901629177E+04  0.91196764496E+03 0.  0.
         23    2    4    4    0    0  0.13350349132E+03 -0.38251316287E+02  0.27421111487E+03  0.32017611679E+03  0.89636292028E+02 0.  0.
         23    2    4    4    0    0 -0.86281896319E+03  0.43240998928E+02 -0.44261488367E+02  0.86998680090E+03  0.92690922667E+02 0.  0.
          2    1    3    3  502    0  0.51946135012E+03 -0.39222471321E+02  0.11767201850E+03  0.53406479051E+03  0.00000000000E+00 0. -1.
         -1    1    3    3    0  502  0.20985412175E+03  0.34232788680E+02  0.60845193306E+02  0.22116232452E+03  0.00000000000E+00 0.  1.
         11    1    5    5    0    0  0.73178463828E+02  0.13557493032E+02  0.74902969852E+02  0.10559047343E+03  0.00000000000E+00 0.  1.
        -11    1    5    5    0    0  0.60325027491E+02 -0.51808809320E+02  0.19930814502E+03  0.21458564336E+03  0.00000000000E+00 0. -1.
          4    1    6    6  503    0 -0.86146414125E+03  0.37537415117E+02 -0.40948936086E+02  0.86325334611E+03  0.00000000000E+00 0. -1.
         -4    1    6    6    0  503 -0.13548219416E+01  0.57035838110E+01 -0.33125522814E+01  0.67334547893E+01  0.00000000000E+00 0.  1.
<mgrwt>
<rscale>  0 0.19020245E+04</rscale>
<asrwt>0</asrwt>
<pdfrwt beam="1">  1        2 0.18106591E+00 0.19020245E+04</pdfrwt>
<pdfrwt beam="2">  1       -1 0.11822486E+00 0.19020245E+04</pdfrwt>
<totfact> 0.13407818E+01</totfact>
</mgrwt>
</event>
<event>
12    6  0.1611689E-007  0.1772593E+04  0.7818608E-02  0.8721011E-01
          2   -1    0    0  501    0  0.00000000000E+00  0.00000000000E+00  0.12887613238E+04  0.12887613238E+04  0.00000000000E+00 0. -1.
         -1   -1    0    0    0  501 -0.00000000000E+00 -0.00000000000E+00 -0.60951691845E+03  0.60951691845E+03  0.00000000000E+00 0.  1.
         24    2    1    2    0    0 -0.51194594033E+02 -0.51279408768E+03 -0.18310331601E+03  0.55267774842E+03  0.79669356991E+02 0.  0.
        254    2    1    2    0    0  0.51194594033E+02  0.51279408768E+03  0.86234772139E+03  0.13456004939E+04  0.89521976837E+03 0.  0.
         23    2    4    4    0    0  0.35553455837E+03  0.23028154190E+03  0.59973442383E+02  0.43745015653E+03  0.91276584773E+02 0.  0.
         23    2    4    4    0    0 -0.30433996433E+03  0.28251254578E+03  0.80237427901E+03  0.90815033733E+03  0.92175914209E+02 0.  0.
          2    1    3    3  502    0  0.62954678691E+01 -0.23318614824E+03 -0.54304111784E+02  0.23950855769E+03  0.00000000000E+00 0. -1.
         -1    1    3    3    0  502 -0.57490061903E+02 -0.27960793944E+03 -0.12879920423E+03  0.31316919073E+03  0.00000000000E+00 0.  1.
         11    1    5    5    0    0  0.34201458948E+03  0.19500052281E+03  0.43035680358E+02  0.39604450898E+03  0.00000000000E+00 0.  1.
        -11    1    5    5    0    0  0.13519968891E+02  0.35281019090E+02  0.16937762025E+02  0.41405647553E+02  0.00000000000E+00 0. -1.
          4    1    6    6  503    0 -0.29355894141E+02 -0.17745439598E+01  0.66664905014E+02  0.72863757024E+02  0.00000000000E+00 0. -1.
         -4    1    6    6    0  503 -0.27498407019E+03  0.28428708974E+03  0.73570937399E+03  0.83528658031E+03  0.00000000000E+00 0.  1.
<mgrwt>
<rscale>  0 0.17725934E+04</rscale>
<asrwt>0</asrwt>
<pdfrwt beam="1">  1        2 0.19827097E+00 0.17725934E+04</pdfrwt>
<pdfrwt beam="2">  1       -1 0.93771834E-01 0.17725934E+04</pdfrwt>
<totfact> 0.19959440E+01</totfact>
</mgrwt>
</event>
<event>
12    6  0.1611689E-007  0.1507953E+04  0.7818608E-02  0.8879181E-01
          2   -1    0    0  501    0  0.00000000000E+00  0.00000000000E+00  0.17389018181E+04  0.17389018181E+04  0.00000000000E+00 0. -1.
         -1   -1    0    0    0  501 -0.00000000000E+00 -0.00000000000E+00 -0.32691927896E+03  0.32691927896E+03  0.00000000000E+00 0.  1.
         24    2    1    2    0    0 -0.54723903581E+02  0.34447950812E+02  0.10759848602E+04  0.10811571524E+04  0.83522462993E+02 0.  0.
        254    2    1    2    0    0  0.54723903581E+02 -0.34447950812E+02  0.33599767901E+03  0.98466394474E+03  0.92330237563E+03 0.  0.
         23    2    4    4    0    0  0.23634104885E+02 -0.36055814520E+03 -0.14056256966E+03  0.39987678283E+03  0.97892075645E+02 0.  0.
         23    2    4    4    0    0  0.31089798696E+02  0.32611019439E+03  0.47656024867E+03  0.58478716191E+03  0.86901781675E+02 0.  0.
          2    1    3    3  502    0 -0.23785450468E+02  0.60457193583E+02  0.69830703003E+03  0.70132269898E+03  0.00000000000E+00 0. -1.
         -1    1    3    3    0  502 -0.30938453113E+02 -0.26009242771E+02  0.37767783014E+03  0.37983445337E+03  0.00000000000E+00 0.  1.
         11    1    5    5    0    0  0.22408665823E+02 -0.35246225119E+03 -0.15307733412E+03  0.38492136475E+03  0.00000000000E+00 0. -1.
        -11    1    5    5    0    0  0.12254390624E+01 -0.80958940062E+01  0.12514764455E+02  0.14955418082E+02  0.00000000000E+00 0.  1.
          2    1    6    6  503    0 -0.21411665220E+02  0.15621545048E+03  0.26562827250E+03  0.30890144954E+03  0.00000000000E+00 0. -1.
         -2    1    6    6    0  503  0.52501463917E+02  0.16989474390E+03  0.21093197617E+03  0.27588571237E+03  0.00000000000E+00 0.  1.
<mgrwt>
<rscale>  0 0.15079530E+04</rscale>
<asrwt>0</asrwt>
<pdfrwt beam="1">  1        2 0.26752335E+00 0.15079530E+04</pdfrwt>
<pdfrwt beam="2">  1       -1 0.50295275E-01 0.15079530E+04</pdfrwt>
<totfact> 0.40735861E+01</totfact>
</mgrwt>
</event>
<event>
12    6  0.1611689E-007  0.1385390E+04  0.7818608E-02  0.8964462E-01
          2   -1    0    0  501    0  0.00000000000E+00  0.00000000000E+00  0.17711872428E+04  0.17711872428E+04  0.00000000000E+00 0. -1.
         -1   -1    0    0    0  501 -0.00000000000E+00 -0.00000000000E+00 -0.27090658824E+03  0.27090658824E+03  0.00000000000E+00 0.  1.
         24    2    1    2    0    0  0.24470066258E+03  0.22450189450E+03  0.75606953810E+03  0.82983691832E+03  0.81906346867E+02 0.  0.
        254    2    1    2    0    0 -0.24470066258E+03 -0.22450189450E+03  0.74421111644E+03  0.12122569127E+04  0.89746148756E+03 0.  0.
         23    2    4    4    0    0  0.20750177228E+03  0.21703922612E+03  0.30311497225E+03  0.43621239932E+03  0.90772020748E+02 0.  0.
         23    2    4    4    0    0 -0.45220243486E+03 -0.44154112062E+03  0.44109614419E+03  0.77604451337E+03  0.90739600095E+02 0.  0.
          2    1    3    3  502    0  0.18638365003E+03  0.19723381163E+03  0.66566424403E+03  0.71885250728E+03  0.00000000000E+00 0. -1.
         -1    1    3    3    0  502  0.58317012554E+02  0.27268082869E+02  0.90405294071E+02  0.11098441103E+03  0.00000000000E+00 0.  1.
         11    1    5    5    0    0  0.34224549625E+02  0.95215118537E+02  0.11181443346E+03  0.15079690356E+03  0.00000000000E+00 0. -1.
        -11    1    5    5    0    0  0.17327722265E+03  0.12182410758E+03  0.19130053879E+03  0.28541549576E+03  0.00000000000E+00 0.  1.
          3    1    6    6  503    0 -0.64134350691E+02 -0.11026813650E+03  0.73961573169E+02  0.14745369161E+03  0.00000000000E+00 0. -1.
         -3    1    6    6    0  503 -0.38806808417E+03 -0.33127298412E+03  0.36713457102E+03  0.62859082176E+03  0.00000000000E+00 0.  1.
<mgrwt>
<rscale>  0 0.13853899E+04</rscale>
<asrwt>0</asrwt>
<pdfrwt beam="1">  1        2 0.27249034E+00 0.13853899E+04</pdfrwt>
<pdfrwt beam="2">  1       -1 0.41677938E-01 0.13853899E+04</pdfrwt>
<totfact> 0.56122227E+01</totfact>
</mgrwt>
</event>
<event>
12    6  0.1611689E-007  0.1638370E+04  0.7818608E-02  0.8797316E-01
         -1   -1    0    0    0  501 -0.00000000000E+00  0.00000000000E+00  0.27728160464E+03  0.27728160464E+03  0.00000000000E+00 0.  1.
          2   -1    0    0  501    0  0.00000000000E+00 -0.00000000000E+00 -0.24201547611E+04  0.24201547611E+04  0.00000000000E+00 0. -1.
         24    2    1    2    0    0  0.58031663883E+03 -0.11471466559E+03 -0.61004617571E+03  0.85354439374E+03  0.80342017506E+02 0.  0.
        254    2    1    2    0    0 -0.58031663883E+03  0.11471466559E+03 -0.15328269808E+04  0.18438919720E+04  0.83693022152E+03 0.  0.
         23    2    4    4    0    0 -0.11415529588E+03 -0.32530196696E+03 -0.72877665825E+03  0.81180530499E+03  0.95182111325E+02 0.  0.
         23    2    4    4    0    0 -0.46616134295E+03  0.44001663255E+03 -0.80405032251E+03  0.10320866670E+04  0.88232264676E+02 0.  0.
          4    1    3    3  502    0  0.14256390572E+03 -0.32480709786E+02 -0.10418982151E+03  0.17954103327E+03  0.00000000000E+00 0. -1.
         -3    1    3    3    0  502  0.43775273311E+03 -0.82233955799E+02 -0.50585635420E+03  0.67400336046E+03  0.00000000000E+00 0.  1.
         11    1    5    5    0    0 -0.69926653864E+02 -0.16329774727E+03 -0.47848943813E+03  0.51039987617E+03  0.00000000000E+00 0. -1.
        -11    1    5    5    0    0 -0.44228642012E+02 -0.16200421969E+03 -0.25028722011E+03  0.30140542882E+03  0.00000000000E+00 0.  1.
          2    1    6    6  503    0 -0.79724092803E+02  0.10715217678E+03 -0.12587593476E+03  0.18352730291E+03  0.00000000000E+00 0. -1.
         -2    1    6    6    0  503 -0.38643725015E+03  0.33286445577E+03 -0.67817438775E+03  0.84855936411E+03  0.00000000000E+00 0.  1.
<mgrwt>
<rscale>  0 0.16383704E+04</rscale>
<asrwt>0</asrwt>
<pdfrwt beam="1">  1        2 0.37233151E+00 0.16383704E+04</pdfrwt>
<pdfrwt beam="2">  1       -1 0.42658708E-01 0.16383704E+04</pdfrwt>
<totfact> 0.22835553E+01</totfact>
</mgrwt>
</event>
<event>
12    6  0.1611689E-007  0.2211296E+04  0.7818608E-02  0.8513741E-01
          2   -1    0    0  501    0  0.00000000000E+00  0.00000000000E+00  0.19471198881E+04  0.19471198881E+04  0.00000000000E+00 0. -1.
         -1   -1    0    0    0  501 -0.00000000000E+00 -0.00000000000E+00 -0.62782834712E+03  0.62782834712E+03  0.00000000000E+00 0.  1.
         24    2    1    2    0    0  0.11366006960E+03  0.83919438995E+03  0.11207972430E+03  0.85807509226E+03  0.81025698577E+02 0.  0.
        254    2    1    2    0    0 -0.11366006960E+03 -0.83919438995E+03  0.12072118167E+04  0.17168731430E+04  0.87927651121E+03 0.  0.
         23    2    4    4    0    0  0.12898003617E+03 -0.92518924346E+03  0.84347211311E+03  0.12618445935E+04  0.90529479775E+02 0.  0.
         23    2    4    4    0    0 -0.24264010577E+03  0.85994853515E+02  0.36373970361E+03  0.45502854945E+03  0.92060160107E+02 0.  0.
          4    1    3    3  502    0  0.31005429345E+02  0.10229443795E+03  0.35402350186E+02  0.11260024460E+03  0.00000000000E+00 0. -1.
         -1    1    3    3    0  502  0.82654640250E+02  0.73689995200E+03  0.76677374109E+02  0.74547484767E+03  0.00000000000E+00 0.  1.
         11    1    5    5    0    0  0.36904090649E+02 -0.57464833597E+03  0.50345613273E+03  0.76488606963E+03  0.00000000000E+00 0. -1.
        -11    1    5    5    0    0  0.92075945522E+02 -0.35054090749E+03  0.34001598038E+03  0.49695852391E+03  0.00000000000E+00 0.  1.
          3    1    6    6  503    0 -0.20228957797E+03  0.87726796199E+02  0.34739002393E+03  0.41145703646E+03  0.00000000000E+00 0. -1.
         -3    1    6    6    0  503 -0.40350527797E+02 -0.17319426838E+01  0.16349679679E+02  0.43571512994E+02  0.00000000000E+00 0.  1.
<mgrwt>
<rscale>  0 0.22112956E+04</rscale>
<asrwt>0</asrwt>
<pdfrwt beam="1">  1        2 0.29955690E+00 0.22112956E+04</pdfrwt>
<pdfrwt beam="2">  1       -1 0.96588977E-01 0.22112956E+04</pdfrwt>
<totfact> 0.76647904E+00</totfact>
</mgrwt>
</event>
<event>
12    6  0.1611689E-007  0.1669162E+04  0.7818608E-02  0.8779151E-01
          2   -1    0    0  501    0  0.00000000000E+00  0.00000000000E+00  0.12646225398E+04  0.12646225398E+04  0.00000000000E+00 0. -1.
         -1   -1    0    0    0  501 -0.00000000000E+00 -0.00000000000E+00 -0.55077722078E+03  0.55077722078E+03  0.00000000000E+00 0.  1.
         24    2    1    2    0    0 -0.32790554743E+03 -0.34674771473E+03 -0.11919762810E+03  0.49865691293E+03  0.81820636537E+02 0.  0.
        254    2    1    2    0    0  0.32790554743E+03  0.34674771473E+03  0.83304294708E+03  0.13167428476E+04  0.90116322014E+03 0.  0.
         23    2    4    4    0    0  0.12293690542E+03 -0.25965959173E+03  0.58622866572E+02  0.30767982575E+03  0.93239736161E+02 0.  0.
         23    2    4    4    0    0  0.20496864201E+03  0.60640730646E+03  0.77442008051E+03  0.10090630219E+04  0.93486659149E+02 0.  0.
          4    1    3    3  502    0 -0.23338273982E+02 -0.31272096752E+02 -0.34420593451E+02  0.52032646687E+02  0.00000000000E+00 0. -1.
         -3    1    3    3    0  502 -0.30456727345E+03 -0.31547561798E+03 -0.84777034651E+02  0.44662426625E+03  0.00000000000E+00 0.  1.
         11    1    5    5    0    0 -0.88200609039E+01 -0.84293887570E+01 -0.10045019953E+02  0.15803496291E+02  0.00000000000E+00 0. -1.
        -11    1    5    5    0    0  0.13175696633E+03 -0.25123020297E+03  0.68667886525E+02  0.29187632946E+03  0.00000000000E+00 0.  1.
          4    1    6    6  503    0  0.16384184627E+03  0.55398739093E+03  0.71943176185E+03  0.92267450374E+03  0.00000000000E+00 0.  1.
         -4    1    6    6    0  503  0.41126795743E+02  0.52419915528E+02  0.54988318657E+02  0.86388518107E+02  0.00000000000E+00 0. -1.
<mgrwt>
<rscale>  0 0.16691618E+04</rscale>
<asrwt>0</asrwt>
<pdfrwt beam="1">  1        2 0.19455731E+00 0.16691618E+04</pdfrwt>
<pdfrwt beam="2">  1       -1 0.84734957E-01 0.16691618E+04</pdfrwt>
<totfact> 0.25994281E+01</totfact>
</mgrwt>
</event>
<event>
12    6  0.1611689E-007  0.2380209E+04  0.7818608E-02  0.8446950E-01
          2   -1    0    0  501    0  0.00000000000E+00  0.00000000000E+00  0.98686870771E+03  0.98686870771E+03  0.00000000000E+00 0. -1.
         -1   -1    0    0    0  501 -0.00000000000E+00 -0.00000000000E+00 -0.14351948146E+04  0.14351948146E+04  0.00000000000E+00 0.  1.
         24    2    1    2    0    0 -0.10030646542E+04  0.17204078788E+03 -0.18540949258E+03  0.10375038697E+04  0.79377998022E+02 0.  0.
        254    2    1    2    0    0  0.10030646542E+04 -0.17204078788E+03 -0.26291661429E+03  0.13845596525E+04  0.90119007549E+03 0.  0.
         23    2    4    4    0    0  0.55390546556E+03 -0.26216080262E+03  0.26963611401E+03  0.67582417453E+03  0.92169027778E+02 0.  0.
         23    2    4    4    0    0  0.44915918865E+03  0.90120014747E+02 -0.53255272829E+03  0.70873547802E+03  0.93957307271E+02 0.  0.
          2    1    3    3  502    0 -0.23232578896E+03  0.73938577309E+02 -0.40492426532E+02  0.24714736906E+03  0.00000000000E+00 0. -1.
         -1    1    3    3    0  502 -0.77073886526E+03  0.98102210567E+02 -0.14491706605E+03  0.79035650068E+03  0.00000000000E+00 0.  1.
         11    1    5    5    0    0  0.50155351367E+02 -0.13752881486E+02  0.51772285277E+02  0.73383039885E+02  0.00000000000E+00 0.  1.
        -11    1    5    5    0    0  0.50375011420E+03 -0.24840792114E+03  0.21786382873E+03  0.60244113464E+03  0.00000000000E+00 0. -1.
          3    1    6    6  503    0  0.29338164047E+03  0.93135902006E+02 -0.30817945748E+03  0.43557050086E+03  0.00000000000E+00 0. -1.
         -3    1    6    6    0  503  0.15577754818E+03 -0.30158872591E+01 -0.22437327081E+03  0.27316497716E+03  0.00000000000E+00 0.  1.
<mgrwt>
<rscale>  0 0.23802091E+04</rscale>
<asrwt>0</asrwt>
<pdfrwt beam="1">  1        2 0.15182596E+00 0.23802091E+04</pdfrwt>
<pdfrwt beam="2">  1       -1 0.22079920E+00 0.23802091E+04</pdfrwt>
<totfact> 0.28673351E+00</totfact>
</mgrwt>
</event>
<event>
12    6  0.1611689E-007  0.2498560E+04  0.7818608E-02  0.8403499E-01
         -1   -1    0    0    0  501 -0.00000000000E+00  0.00000000000E+00  0.71719328050E+03  0.71719328050E+03  0.00000000000E+00 0.  1.
          2   -1    0    0  501    0  0.00000000000E+00 -0.00000000000E+00 -0.21761217831E+04  0.21761217831E+04  0.00000000000E+00 0. -1.
         24    2    1    2    0    0 -0.24524750616E+03 -0.97427561223E+03 -0.11181798371E+04  0.15053948628E+04  0.80797506625E+02 0.  0.
        254    2    1    2    0    0  0.24524750616E+03  0.97427561223E+03 -0.34074866551E+03  0.13879202008E+04  0.89490419757E+03 0.  0.
         23    2    4    4    0    0  0.20177897861E+02 -0.89790900201E+02  0.14365047313E+03  0.19387716687E+03  0.92105070867E+02 0.  0.
         23    2    4    4    0    0  0.22506960830E+03  0.10640665124E+04 -0.48439913865E+03  0.11940430339E+04  0.90566935870E+02 0.  0.
          4    1    3    3  502    0 -0.15808360777E+02 -0.61783439851E+02 -0.44392750900E+02  0.77703372145E+02  0.00000000000E+00 0. -1.
         -3    1    3    3    0  502 -0.22943914538E+03 -0.91249217238E+03 -0.10737870862E+04  0.14276914907E+04  0.00000000000E+00 0.  1.
         11    1    5    5    0    0 -0.22126746813E+02 -0.10201910892E+02  0.79753140418E+02  0.83392057877E+02  0.00000000000E+00 0. -1.
        -11    1    5    5    0    0  0.42304644673E+02 -0.79588989309E+02  0.63897332715E+02  0.11048510899E+03  0.00000000000E+00 0.  1.
          1    1    6    6  503    0  0.61414982163E+02  0.14119671935E+03 -0.61963823450E+02  0.16597538675E+03  0.00000000000E+00 0. -1.
         -1    1    6    6    0  503  0.16365462613E+03  0.92286979308E+03 -0.42243531520E+03  0.10280676472E+04  0.00000000000E+00 0.  1.
<mgrwt>
<rscale>  0 0.24985595E+04</rscale>
<asrwt>0</asrwt>
<pdfrwt beam="1">  1        2 0.33478796E+00 0.24985595E+04</pdfrwt>
<pdfrwt beam="2">  1       -1 0.11033743E+00 0.24985595E+04</pdfrwt>
<totfact> 0.40943091E+00</totfact>
</mgrwt>
</event>
<event>
12    6  0.1611689E-007  0.1992440E+04  0.7818608E-02  0.8610163E-01
         -1   -1    0    0    0  501 -0.00000000000E+00  0.00000000000E+00  0.10148781312E+04  0.10148781312E+04  0.00000000000E+00 0.  1.
          2   -1    0    0  501    0  0.00000000000E+00 -0.00000000000E+00 -0.97790480237E+03  0.97790480237E+03  0.00000000000E+00 0. -1.
         24    2    1    2    0    0 -0.67533278805E+03 -0.52673518638E+02  0.42813754961E+03  0.80512765345E+03  0.77973731364E+02 0.  0.
        254    2    1    2    0    0  0.67533278805E+03  0.52673518638E+02 -0.39116422076E+03  0.11876552801E+04  0.89368156671E+03 0.  0.
         23    2    4    4    0    0  0.54761373701E+03  0.19781091779E+03  0.14686696344E+03  0.60810804108E+03  0.95997502656E+02 0.  0.
         23    2    4    4    0    0  0.12771905104E+03 -0.14513739916E+03 -0.53803118420E+03  0.57954723907E+03  0.94975925956E+02 0.  0.
          2    1    3    3  502    0 -0.13375480620E+03  0.20621040453E+02  0.86400187605E+02  0.16056328319E+03  0.00000000000E+00 0. -1.
         -1    1    3    3    0  502 -0.54157798185E+03 -0.73294559091E+02  0.34173736200E+03  0.64456437025E+03  0.00000000000E+00 0.  1.
         11    1    5    5    0    0  0.32454101061E+03  0.12183354054E+03  0.38689224858E+02  0.34880816402E+03  0.00000000000E+00 0. -1.
        -11    1    5    5    0    0  0.22307272640E+03  0.75977377250E+02  0.10817773858E+03  0.25929987705E+03  0.00000000000E+00 0.  1.
          2    1    6    6  503    0  0.49854641075E+02 -0.12541058462E+03 -0.32786975441E+03  0.35455870576E+03  0.00000000000E+00 0. -1.
         -2    1    6    6    0  503  0.77864409966E+02 -0.19726814533E+02 -0.21016142979E+03  0.22498853331E+03  0.00000000000E+00 0.  1.
<mgrwt>
<rscale>  0 0.19924399E+04</rscale>
<asrwt>0</asrwt>
<pdfrwt beam="1">  1        2 0.15044689E+00 0.19924399E+04</pdfrwt>
<pdfrwt beam="2">  1       -1 0.15613510E+00 0.19924399E+04</pdfrwt>
<totfact> 0.86348309E+00</totfact>
</mgrwt>
</event>
<event>
12    6  0.1611689E-007  0.1458385E+04  0.7818608E-02  0.8912608E-01
          2   -1    0    0  501    0  0.00000000000E+00  0.00000000000E+00  0.14635396586E+04  0.14635396586E+04  0.00000000000E+00 0. -1.
         -3   -1    0    0    0  501 -0.00000000000E+00 -0.00000000000E+00 -0.36331210968E+03  0.36331210968E+03  0.00000000000E+00 0.  1.
         24    2    1    2    0    0 -0.19776964513E+03 -0.51283836048E+02  0.83705990053E+03  0.86551344040E+03  0.81861920747E+02 0.  0.
        254    2    1    2    0    0  0.19776964513E+03  0.51283836048E+02  0.26316764844E+03  0.96133832792E+03  0.90176011509E+03 0.  0.
         23    2    4    4    0    0  0.29646136672E+03 -0.16464295442E+03  0.50287574645E+03  0.61183648572E+03  0.80394181907E+02 0.  0.
         23    2    4    4    0    0 -0.98691721591E+02  0.21592679047E+03 -0.23970809802E+03  0.34950184220E+03  0.91253113315E+02 0.  0.
          4    1    3    3  502    0 -0.16533552902E+03 -0.53272096568E+02  0.78618548484E+03  0.80514680028E+03  0.00000000000E+00 0. -1.
         -3    1    3    3    0  502 -0.32434116114E+02  0.19882605199E+01  0.50874415690E+02  0.60366640124E+02  0.00000000000E+00 0.  1.
         11    1    5    5    0    0  0.15535029275E+02 -0.36252838226E+02  0.63650069244E+02  0.74879481360E+02  0.00000000000E+00 0. -1.
        -11    1    5    5    0    0  0.28092633745E+03 -0.12839011620E+03  0.43922567721E+03  0.53695700436E+03  0.00000000000E+00 0.  1.
          2    1    6    6  503    0 -0.27173182066E+02  0.13909122964E+02 -0.37578861452E+01  0.30756580328E+02  0.00000000000E+00 0. -1.
         -2    1    6    6    0  503 -0.71518539525E+02  0.20201766751E+03 -0.23595021187E+03  0.31874526187E+03  0.00000000000E+00 0.  1.
<mgrwt>
<rscale>  0 0.14583850E+04</rscale>
<asrwt>0</asrwt>
<pdfrwt beam="1">  1        2 0.22515994E+00 0.14583850E+04</pdfrwt>
<pdfrwt beam="2">  1       -3 0.55894171E-01 0.14583850E+04</pdfrwt>
<totfact> 0.25998920E+01</totfact>
</mgrwt>
</event>
<event>
12    6  0.1611689E-007  0.1981654E+04  0.7818608E-02  0.8615247E-01
         -1   -1    0    0    0  501 -0.00000000000E+00  0.00000000000E+00  0.59805636152E+03  0.59805636152E+03  0.00000000000E+00 0.  1.
          2   -1    0    0  501    0  0.00000000000E+00 -0.00000000000E+00 -0.16415471432E+04  0.16415471432E+04  0.00000000000E+00 0. -1.
         24    2    1    2    0    0 -0.71953379494E+03  0.65559431881E+02 -0.69065181344E+02  0.73008711898E+03  0.78932128195E+02 0.  0.
        254    2    1    2    0    0  0.71953379494E+03 -0.65559431881E+02 -0.97442560034E+03  0.15095163858E+04  0.89839164460E+03 0.  0.
         23    2    4    4    0    0  0.36447099817E+03  0.33228534542E+03 -0.79497743402E+03  0.93975474665E+03  0.88866213878E+02 0.  0.
         23    2    4    4    0    0  0.35506279677E+03 -0.39784477730E+03 -0.17944816633E+03  0.56976163910E+03  0.89870042355E+02 0.  0.
          4    1    3    3  502    0 -0.76921020983E+02 -0.17356083389E+02 -0.58822843952E+01  0.79073879186E+02  0.00000000000E+00 0. -1.
         -3    1    3    3    0  502 -0.64261277396E+03  0.82915515270E+02 -0.63182896949E+02  0.65101323980E+03  0.00000000000E+00 0.  1.
         11    1    5    5    0    0  0.23899179384E+03  0.17857750654E+03 -0.41525843532E+03  0.51131846384E+03  0.00000000000E+00 0.  1.
        -11    1    5    5    0    0  0.12547920433E+03  0.15370783888E+03 -0.37971899870E+03  0.42843628281E+03  0.00000000000E+00 0. -1.
          3    1    6    6  503    0  0.15371250113E+03 -0.12397892474E+03 -0.96856427349E+02  0.21995334574E+03  0.00000000000E+00 0. -1.
         -3    1    6    6    0  503  0.20135029564E+03 -0.27386585257E+03 -0.82591738978E+02  0.34980829336E+03  0.00000000000E+00 0.  1.
<mgrwt>
<rscale>  0 0.19816536E+04</rscale>
<asrwt>0</asrwt>
<pdfrwt beam="1">  1        2 0.25254571E+00 0.19816536E+04</pdfrwt>
<pdfrwt beam="2">  1       -1 0.92008671E-01 0.19816536E+04</pdfrwt>
<totfact> 0.12886432E+01</totfact>
</mgrwt>
</event>
<event>
12    6  0.1611689E-007  0.2407026E+04  0.7818608E-02  0.8436878E-01
          4   -1    0    0  501    0  0.00000000000E+00  0.00000000000E+00  0.89394741026E+03  0.89394741026E+03  0.00000000000E+00 0. -1.
         -3   -1    0    0    0  501 -0.00000000000E+00 -0.00000000000E+00 -0.16202779562E+04  0.16202779562E+04  0.00000000000E+00 0.  1.
         24    2    1    2    0    0  0.38432324033E+02 -0.10019811091E+04 -0.37707021424E+03  0.10740763227E+04  0.77555231350E+02 0.  0.
        254    2    1    2    0    0 -0.38432324033E+02  0.10019811091E+04 -0.34926033170E+03  0.14401490438E+04  0.97293540512E+03 0.  0.
         23    2    4    4    0    0  0.25890573316E+03  0.19116425940E+03  0.22193153518E+03  0.40075881152E+03  0.88193344239E+02 0.  0.
         23    2    4    4    0    0 -0.29733805719E+03  0.81081684971E+03 -0.57119186688E+03  0.10393902323E+04  0.90763550840E+02 0.  0.
          4    1    3    3  502    0  0.24511558400E+02 -0.97217391382E+03 -0.35969375641E+03  0.10368715126E+04  0.00000000000E+00 0. -1.
         -3    1    3    3    0  502  0.13920765633E+02 -0.29807195284E+02 -0.17376457823E+02  0.37204810078E+02  0.00000000000E+00 0.  1.
         11    1    5    5    0    0  0.79772790424E+02  0.54394702899E+02  0.11829448426E+03  0.15269599471E+03  0.00000000000E+00 0. -1.
        -11    1    5    5    0    0  0.17913294274E+03  0.13676955650E+03  0.10363705092E+03  0.24806281681E+03  0.00000000000E+00 0.  1.
          3    1    6    6  503    0 -0.45779076237E+01  0.63848580885E+02 -0.24483930531E+02  0.68535110516E+02  0.00000000000E+00 0. -1.
         -3    1    6    6    0  503 -0.29276014957E+03  0.74696826882E+03 -0.54670793635E+03  0.97085512177E+03  0.00000000000E+00 0.  1.
<mgrwt>
<rscale>  0 0.24070258E+04</rscale>
<asrwt>0</asrwt>
<pdfrwt beam="1">  1        4 0.13753037E+00 0.24070258E+04</pdfrwt>
<pdfrwt beam="2">  1       -3 0.24927353E+00 0.24070258E+04</pdfrwt>
<totfact> 0.56715307E-02</totfact>
</mgrwt>
</event>
<event>
12    6  0.1611689E-007  0.1800730E+04  0.7818608E-02  0.8705912E-01
         -1   -1    0    0    0  501 -0.00000000000E+00  0.00000000000E+00  0.65448291442E+03  0.65448291442E+03  0.00000000000E+00 0.  1.
          2   -1    0    0  501    0  0.00000000000E+00 -0.00000000000E+00 -0.12386217937E+04  0.12386217937E+04  0.00000000000E+00 0. -1.
         24    2    1    2    0    0 -0.55411091258E+03  0.31252952178E+03 -0.29681708959E+03  0.70667370076E+03  0.81078537493E+02 0.  0.
        254    2    1    2    0    0  0.55411091258E+03 -0.31252952178E+03 -0.28732178965E+03  0.11864310073E+04  0.95934932058E+03 0.  0.
         23    2    4    4    0    0  0.48669589796E+03 -0.41770417617E+01  0.25149575686E+03  0.55533079298E+03  0.90839579203E+02 0.  0.
         23    2    4    4    0    0  0.67415014623E+02 -0.30835248002E+03 -0.53881754650E+03  0.63110021434E+03  0.91307699511E+02 0.  0.
          4    1    3    3  502    0 -0.17928111846E+03  0.12604164849E+03 -0.13755204379E+03  0.25874462572E+03  0.00000000000E+00 0. -1.
         -3    1    3    3    0  502 -0.37482979412E+03  0.18648787329E+03 -0.15926504580E+03  0.44792907503E+03  0.00000000000E+00 0.  1.
         11    1    5    5    0    0  0.45029098706E+03  0.33590395958E+01  0.25583078679E+03  0.51790216030E+03  0.00000000000E+00 0.  1.
        -11    1    5    5    0    0  0.36404910897E+02 -0.75360813575E+01 -0.43350299364E+01  0.37428632679E+02  0.00000000000E+00 0. -1.
          2    1    6    6  503    0 -0.35401859090E+00 -0.46773557726E+02 -0.15356488117E+03  0.16053056955E+03  0.00000000000E+00 0. -1.
         -2    1    6    6    0  503  0.67769033213E+02 -0.26157892229E+03 -0.38525266533E+03  0.47056964478E+03  0.00000000000E+00 0.  1.
<mgrwt>
<rscale>  0 0.18007296E+04</rscale>
<asrwt>0</asrwt>
<pdfrwt beam="1">  1        2 0.19055720E+00 0.18007296E+04</pdfrwt>
<pdfrwt beam="2">  1       -1 0.10068968E+00 0.18007296E+04</pdfrwt>
<totfact> 0.18141505E+01</totfact>
</mgrwt>
</event>
<event>
12    6  0.1776808E-007  0.1194052E+04  0.7818608E-02  0.9118079E-01
         -1   -1    0    0    0  501 -0.00000000000E+00  0.00000000000E+00  0.19902503461E+03  0.19902503461E+03  0.00000000000E+00 0.  1.
          2   -1    0    0  501    0  0.00000000000E+00 -0.00000000000E+00 -0.17909307082E+04  0.17909307082E+04  0.00000000000E+00 0. -1.
         24    2    1    2    0    0 -0.33092782989E+02  0.88431418017E+01 -0.75072245309E+03  0.75572871842E+03  0.79802010226E+02 0.  0.
        254    2    1    2    0    0  0.33092782989E+02 -0.88431418017E+01 -0.84118322046E+03  0.12342270243E+04  0.90252634520E+03 0.  0.
         23    2    4    4    0    0  0.14667871839E+03  0.63074309674E+01  0.15201407545E+03  0.23026388523E+03  0.91426186568E+02 0.  0.
         23    2    4    4    0    0 -0.11358593541E+03 -0.15150572769E+02 -0.99319729590E+03  0.10039631391E+04  0.91486674013E+02 0.  0.
          2    1    3    3  502    0 -0.22331115982E+02  0.46685283911E+00 -0.73312707655E+03  0.73346725016E+03  0.00000000000E+00 0. -1.
         -1    1    3    3    0  502 -0.10761667008E+02  0.83762889626E+01 -0.17595376542E+02  0.22261468263E+02  0.00000000000E+00 0.  1.
         11    1    5    5    0    0  0.89384787612E+01  0.90318202509E+01 -0.11017374380E+02  0.16818225763E+02  0.00000000000E+00 0. -1.
        -11    1    5    5    0    0  0.13774023963E+03 -0.27243892835E+01  0.16303144983E+03  0.21344565946E+03  0.00000000000E+00 0.  1.
          2    1    6    6  503    0 -0.91185133204E+01  0.13236007569E+01 -0.57339676751E+01  0.10852538387E+02  0.00000000000E+00 0. -1.
         -2    1    6    6    0  503 -0.10446742209E+03 -0.16474173526E+02 -0.98746332823E+03  0.99311060072E+03  0.00000000000E+00 0.  1.
<mgrwt>
<rscale>  0 0.11940520E+04</rscale>
<asrwt>0</asrwt>
<pdfrwt beam="1">  1        2 0.27552780E+00 0.11940520E+04</pdfrwt>
<pdfrwt beam="2">  1       -1 0.30619236E-01 0.11940520E+04</pdfrwt>
<totfact> 0.96652049E+01</totfact>
</mgrwt>
</event>
<event>
12    6  0.1611689E-007  0.1558943E+04  0.7818608E-02  0.8846176E-01
         -1   -1    0    0    0  501 -0.00000000000E+00  0.00000000000E+00  0.92390549495E+03  0.92390549495E+03  0.00000000000E+00 0.  1.
          2   -1    0    0  501    0  0.00000000000E+00 -0.00000000000E+00 -0.65761688971E+03  0.65761688971E+03  0.00000000000E+00 0. -1.
         24    2    1    2    0    0  0.19469503426E+03 -0.39766476057E+03  0.35626151359E+03  0.57393579728E+03  0.80228518432E+02 0.  0.
        254    2    1    2    0    0 -0.19469503426E+03  0.39766476057E+03 -0.89972908350E+02  0.10075865874E+04  0.90060656708E+03 0.  0.
         23    2    4    4    0    0 -0.21550198122E+02  0.15166333004E+03 -0.47696656570E+03  0.50912679248E+03  0.90811944750E+02 0.  0.
         23    2    4    4    0    0 -0.17314483613E+03  0.24600143053E+03  0.38699365735E+03  0.49845979490E+03  0.90566208924E+02 0.  0.
          2    1    3    3  502    0  0.83012313549E+02 -0.17696271443E+03  0.20857133055E+03  0.28584759301E+03  0.00000000000E+00 0. -1.
         -1    1    3    3    0  502  0.11168272071E+03 -0.22070204614E+03  0.14769018303E+03  0.28808820427E+03  0.00000000000E+00 0.  1.
         11    1    5    5    0    0 -0.32932384772E+02  0.39362610674E+02 -0.25494425097E+03  0.26005870143E+03  0.00000000000E+00 0. -1.
        -11    1    5    5    0    0  0.11382186651E+02  0.11230071937E+03 -0.22202231473E+03  0.24906809105E+03  0.00000000000E+00 0.  1.
          2    1    6    6  503    0 -0.84511744928E+01  0.24955150155E+01 -0.36698660388E+01  0.95455676753E+01  0.00000000000E+00 0.  1.
         -2    1    6    6    0  503 -0.16469366164E+03  0.24350591551E+03  0.39066352339E+03  0.48891422722E+03  0.00000000000E+00 0. -1.
<mgrwt>
<rscale>  0 0.15589430E+04</rscale>
<asrwt>0</asrwt>
<pdfrwt beam="1">  1        2 0.10117183E+00 0.15589430E+04</pdfrwt>
<pdfrwt beam="2">  1       -1 0.14213931E+00 0.15589430E+04</pdfrwt>
<totfact> 0.19616644E+01</totfact>
</mgrwt>
</event>
<event>
12    6  0.1611689E-007  0.2099314E+04  0.7818608E-02  0.8561546E-01
          2   -1    0    0  501    0  0.00000000000E+00  0.00000000000E+00  0.14646524266E+04  0.14646524266E+04  0.00000000000E+00 0. -1.
         -1   -1    0    0    0  501 -0.00000000000E+00 -0.00000000000E+00 -0.75224650609E+03  0.75224650609E+03  0.00000000000E+00 0.  1.
         24    2    1    2    0    0 -0.39322925888E+03 -0.39992440142E+03  0.98315044592E+03  0.11347266946E+04  0.80318710705E+02 0.  0.
        254    2    1    2    0    0  0.39322925888E+03  0.39992440142E+03 -0.27074452545E+03  0.10821722380E+04  0.88500021345E+03 0.  0.
         23    2    4    4    0    0  0.59779428809E+03  0.16032241976E+03  0.44335315958E+02  0.62737698751E+03  0.92601161286E+02 0.  0.
         23    2    4    4    0    0 -0.20456502921E+03  0.23960198166E+03 -0.31507984141E+03  0.45479525051E+03  0.91145228255E+02 0.  0.
          2    1    3    3  502    0 -0.30851369539E+03 -0.32805336516E+03  0.84439899381E+03  0.95697929517E+03  0.00000000000E+00 0. -1.
         -1    1    3    3    0  502 -0.84715563486E+02 -0.71871036256E+02  0.13875145211E+03  0.17774739945E+03  0.00000000000E+00 0.  1.
         11    1    5    5    0    0  0.78606891929E+02  0.55287887119E+02  0.69036874453E+01  0.96350686666E+02  0.00000000000E+00 0.  1.
        -11    1    5    5    0    0  0.51918739616E+03  0.10503453264E+03  0.37431628512E+02  0.53102630085E+03  0.00000000000E+00 0. -1.
          3    1    6    6  503    0 -0.90328821772E+02  0.66021470452E+02 -0.16120307460E+03  0.19622579306E+03  0.00000000000E+00 0. -1.
         -3    1    6    6    0  503 -0.11423620744E+03  0.17358051120E+03 -0.15387676681E+03  0.25856945745E+03  0.00000000000E+00 0.  1.
<mgrwt>
<rscale>  0 0.20993139E+04</rscale>
<asrwt>0</asrwt>
<pdfrwt beam="1">  1        2 0.22533114E+00 0.20993139E+04</pdfrwt>
<pdfrwt beam="2">  1       -1 0.11573023E+00 0.20993139E+04</pdfrwt>
<totfact> 0.94365660E+00</totfact>
</mgrwt>
</event>
<event>
12    6  0.1611689E-007  0.1800491E+04  0.7818608E-02  0.8706038E-01
          2   -1    0    0  501    0  0.00000000000E+00  0.00000000000E+00  0.72281277163E+03  0.72281277163E+03  0.00000000000E+00 0. -1.
         -1   -1    0    0    0  501 -0.00000000000E+00 -0.00000000000E+00 -0.11212335926E+04  0.11212335926E+04  0.00000000000E+00 0.  1.
         24    2    1    2    0    0  0.15391411627E+03 -0.95482495560E+02  0.51253639185E+03  0.54874936350E+03  0.75005658608E+02 0.  0.
        254    2    1    2    0    0 -0.15391411627E+03  0.95482495560E+02 -0.91095721284E+03  0.12952970007E+04  0.90285370597E+03 0.  0.
         23    2    4    4    0    0 -0.18210399201E+03  0.20405575464E+03 -0.10552596616E+04  0.10937386719E+04  0.88829691750E+02 0.  0.
         23    2    4    4    0    0  0.28189875733E+02 -0.10857325908E+03  0.14430244877E+03  0.20155832882E+03  0.84969062097E+02 0.  0.
          4    1    3    3  502    0  0.11653484530E+03 -0.51500514608E+02  0.42666723929E+03  0.44528373680E+03  0.00000000000E+00 0. -1.
         -3    1    3    3    0  502  0.37379270976E+02 -0.43981980952E+02  0.85869152557E+02  0.10346562670E+03  0.00000000000E+00 0.  1.
         11    1    5    5    0    0 -0.17475493963E+03  0.14913240470E+03 -0.90099639247E+03  0.92982485571E+03  0.00000000000E+00 0.  1.
        -11    1    5    5    0    0 -0.73490523799E+01  0.54923349945E+02 -0.15426326914E+03  0.16391381621E+03  0.00000000000E+00 0. -1.
          1    1    6    6  503    0 -0.25582281355E+02 -0.45889069839E+02  0.84843978315E+02  0.99793589505E+02  0.00000000000E+00 0. -1.
         -1    1    6    6    0  503  0.53772157087E+02 -0.62684189243E+02  0.59458470460E+02  0.10176473932E+03  0.00000000000E+00 0.  1.
<mgrwt>
<rscale>  0 0.18004910E+04</rscale>
<asrwt>0</asrwt>
<pdfrwt beam="1">  1        2 0.11120196E+00 0.18004910E+04</pdfrwt>
<pdfrwt beam="2">  1       -1 0.17249748E+00 0.18004910E+04</pdfrwt>
<totfact> 0.10000004E+01</totfact>
</mgrwt>
</event>
<event>
12    6  0.1611689E-007  0.1798098E+04  0.7818608E-02  0.8707312E-01
          2   -1    0    0  501    0  0.00000000000E+00  0.00000000000E+00  0.18082570066E+04  0.18082570066E+04  0.00000000000E+00 0. -1.
         -1   -1    0    0    0  501 -0.00000000000E+00 -0.00000000000E+00 -0.44699891533E+03  0.44699891533E+03  0.00000000000E+00 0.  1.
         24    2    1    2    0    0  0.46108589561E+03  0.32127323363E+03  0.96625863012E+03  0.11208456165E+04  0.82598195280E+02 0.  0.
        254    2    1    2    0    0 -0.46108589561E+03 -0.32127323363E+03  0.39499946112E+03  0.11344103054E+04  0.90279868910E+03 0.  0.
         23    2    4    4    0    0  0.25054735122E+03  0.12748438833E+02  0.15062774957E+03  0.30596669704E+03  0.89389053364E+02 0.  0.
         23    2    4    4    0    0 -0.71163324683E+03 -0.33402167246E+03  0.24437171155E+03  0.82844360841E+03  0.92784283315E+02 0.  0.
          4    1    3    3  502    0  0.46206437800E+03  0.32400628235E+03  0.96443936545E+03  0.11174197287E+04  0.00000000000E+00 0. -1.
         -3    1    3    3    0  502 -0.97848239151E+00 -0.27330487196E+01  0.18192646780E+01  0.34258877774E+01  0.00000000000E+00 0.  1.
         11    1    5    5    0    0  0.13964576046E+02 -0.19180339028E+02  0.64668272970E-01  0.23725492015E+02  0.00000000000E+00 0. -1.
        -11    1    5    5    0    0  0.23658277518E+03  0.31928777861E+02  0.15056308129E+03  0.28224120503E+03  0.00000000000E+00 0.  1.
          1    1    6    6  503    0 -0.87860875302E+02 -0.93094551473E+01  0.27580280634E+02  0.92557394323E+02  0.00000000000E+00 0. -1.
         -1    1    6    6    0  503 -0.62377237153E+03 -0.32471221732E+03  0.21679143092E+03  0.73588621408E+03  0.00000000000E+00 0.  1.
<mgrwt>
<rscale>  0 0.17980978E+04</rscale>
<asrwt>0</asrwt>
<pdfrwt beam="1">  1        2 0.27819338E+00 0.17980978E+04</pdfrwt>
<pdfrwt beam="2">  1       -1 0.68769065E-01 0.17980978E+04</pdfrwt>
<totfact> 0.19646773E+01</totfact>
</mgrwt>
</event>
<event>
12    6  0.1611689E-007  0.2634468E+04  0.7818608E-02  0.8356586E-01
          2   -1    0    0  501    0  0.00000000000E+00  0.00000000000E+00  0.22887704346E+04  0.22887704346E+04  0.00000000000E+00 0. -1.
         -1   -1    0    0    0  501 -0.00000000000E+00 -0.00000000000E+00 -0.75809527127E+03  0.75809527127E+03  0.00000000000E+00 0.  1.
         24    2    1    2    0    0 -0.26906142204E+03  0.87522891126E+03 -0.15177453581E+03  0.93162443274E+03  0.80429335576E+02 0.  0.
        254    2    1    2    0    0  0.26906142204E+03 -0.87522891126E+03  0.16824496992E+04  0.21152412731E+04  0.89732321795E+03 0.  0.
         23    2    4    4    0    0  0.24823076797E+03 -0.83594173881E+03  0.68601023660E+03  0.11131487914E+04  0.89850332128E+02 0.  0.
         23    2    4    4    0    0  0.20830654066E+02 -0.39287172444E+02  0.99643946256E+03  0.10020924818E+04  0.96541915166E+02 0.  0.
          4    1    3    3  502    0 -0.45924110121E+02  0.25893001125E+03 -0.60604950766E+02  0.26986428937E+03  0.00000000000E+00 0. -1.
         -3    1    3    3    0  502 -0.22313731192E+03  0.61629890000E+03 -0.91169585046E+02  0.66176014337E+03  0.00000000000E+00 0.  1.
         11    1    5    5    0    0  0.64896409309E+02 -0.14719752095E+03  0.91841992704E+02  0.18523932018E+03  0.00000000000E+00 0. -1.
        -11    1    5    5    0    0  0.18333435866E+03 -0.68874421786E+03  0.59416824390E+03  0.92790947121E+03  0.00000000000E+00 0.  1.
          3    1    6    6  503    0  0.37137740885E+02 -0.33470986962E+02  0.22622923572E+03  0.23168769035E+03  0.00000000000E+00 0. -1.
         -3    1    6    6    0  503 -0.16307086818E+02 -0.58161854822E+01  0.77021022684E+03  0.77040479141E+03  0.00000000000E+00 0.  1.
<mgrwt>
<rscale>  0 0.26344685E+04</rscale>
<asrwt>0</asrwt>
<pdfrwt beam="1">  1        2 0.35211853E+00 0.26344685E+04</pdfrwt>
<pdfrwt beam="2">  1       -1 0.11663004E+00 0.26344685E+04</pdfrwt>
<totfact> 0.30617725E+00</totfact>
</mgrwt>
</event>
<event>
12    6  0.1611689E-007  0.1425921E+04  0.7818608E-02  0.8935267E-01
          2   -1    0    0  501    0  0.00000000000E+00  0.00000000000E+00  0.39951696090E+04  0.39951696090E+04  0.00000000000E+00 0. -1.
         -1   -1    0    0    0  501 -0.00000000000E+00 -0.00000000000E+00 -0.12723178265E+03  0.12723178265E+03  0.00000000000E+00 0.  1.
         24    2    1    2    0    0  0.31037299899E+03  0.16807020943E+02  0.34167938785E+03  0.46826977676E+03  0.76927922736E+02 0.  0.
        254    2    1    2    0    0 -0.31037299899E+03 -0.16807020943E+02  0.35262584386E+04  0.36541316149E+04  0.90640245440E+03 0.  0.
         23    2    4    4    0    0 -0.10616774188E+03  0.41629836259E+03  0.12119345239E+04  0.12890769593E+04  0.91423195805E+02 0.  0.
         23    2    4    4    0    0 -0.20420525711E+03 -0.43310538353E+03  0.23143239147E+04  0.23650546556E+04  0.90045998316E+02 0.  0.
          4    1    3    3  502    0  0.30650543083E+02 -0.15102382484E+02  0.65553519376E+02  0.73924296754E+02  0.00000000000E+00 0. -1.
         -3    1    3    3    0  502  0.27972245591E+03  0.31909403427E+02  0.27612586847E+03  0.39434548001E+03  0.00000000000E+00 0.  1.
         11    1    5    5    0    0 -0.37861315528E+02  0.30504878156E+03  0.89469599636E+03  0.94602809908E+03  0.00000000000E+00 0.  1.
        -11    1    5    5    0    0 -0.68306426350E+02  0.11124958103E+03  0.31723852753E+03  0.34304886023E+03  0.00000000000E+00 0. -1.
          3    1    6    6  503    0 -0.33923875372E+00 -0.29388518901E+02  0.25279878582E+03  0.25450152503E+03  0.00000000000E+00 0. -1.
         -3    1    6    6    0  503 -0.20386601836E+03 -0.40371686463E+03  0.20615251288E+04  0.21105531306E+04  0.00000000000E+00 0.  1.
<mgrwt>
<rscale>  0 0.14259208E+04</rscale>
<asrwt>0</asrwt>
<pdfrwt beam="1">  1        2 0.61464138E+00 0.14259208E+04</pdfrwt>
<pdfrwt beam="2">  1       -1 0.19574124E-01 0.14259208E+04</pdfrwt>
<totfact> 0.83193823E+00</totfact>
</mgrwt>
</event>
<event>
12    6  0.1611689E-007  0.1634354E+04  0.7818608E-02  0.8799717E-01
          2   -1    0    0  501    0  0.00000000000E+00  0.00000000000E+00  0.25519403679E+04  0.25519403679E+04  0.00000000000E+00 0. -1.
         -1   -1    0    0    0  501 -0.00000000000E+00 -0.00000000000E+00 -0.26167472826E+03  0.26167472826E+03  0.00000000000E+00 0.  1.
         24    2    1    2    0    0 -0.50931803433E+03 -0.26907595127E+02  0.38257787248E+03  0.64222376870E+03  0.77179413107E+02 0.  0.
        254    2    1    2    0    0  0.50931803433E+03  0.26907595127E+02  0.19076877672E+04  0.21713913275E+04  0.90307186935E+03 0.  0.
         23    2    4    4    0    0 -0.52260406737E+02  0.33193726422E+03  0.39344504073E+03  0.52516861106E+03  0.89942050678E+02 0.  0.
         23    2    4    4    0    0  0.56157844106E+03 -0.30502966909E+03  0.15142427264E+04  0.16462227164E+04  0.93299265445E+02 0.  0.
          4    1    3    3  502    0 -0.14511488003E+03 -0.21512686078E+02  0.71382501164E+02  0.16314590262E+03  0.00000000000E+00 0. -1.
         -3    1    3    3    0  502 -0.36420315430E+03 -0.53949090494E+01  0.31119537131E+03  0.47907786608E+03  0.00000000000E+00 0.  1.
         11    1    5    5    0    0  0.24598052539E+02  0.75838844136E+02  0.76374185291E+02  0.11040656977E+03  0.00000000000E+00 0. -1.
        -11    1    5    5    0    0 -0.76858459276E+02  0.25609842008E+03  0.31707085544E+03  0.41476204130E+03  0.00000000000E+00 0.  1.
          1    1    6    6  503    0  0.19755678981E+03 -0.15733018206E+03  0.56270533122E+03  0.61678096694E+03  0.00000000000E+00 0. -1.
         -1    1    6    6    0  503  0.36402165125E+03 -0.14769948703E+03  0.95153739522E+03  0.10294417495E+04  0.00000000000E+00 0.  1.
<mgrwt>
<rscale>  0 0.16343541E+04</rscale>
<asrwt>0</asrwt>
<pdfrwt beam="1">  1        2 0.39260619E+00 0.16343541E+04</pdfrwt>
<pdfrwt beam="2">  1       -1 0.40257652E-01 0.16343541E+04</pdfrwt>
<totfact> 0.21335743E+01</totfact>
</mgrwt>
</event>
<event>
12    6  0.1611689E-007  0.1874332E+04  0.7818608E-02  0.8667739E-01
         -1   -1    0    0    0  501 -0.00000000000E+00  0.00000000000E+00  0.10143126281E+04  0.10143126281E+04  0.00000000000E+00 0.  1.
          2   -1    0    0  501    0  0.00000000000E+00 -0.00000000000E+00 -0.86588736626E+03  0.86588736626E+03  0.00000000000E+00 0. -1.
         24    2    1    2    0    0 -0.56517553531E+03 -0.15536483808E+03  0.40612691667E+03  0.71738217035E+03  0.78335734206E+02 0.  0.
        254    2    1    2    0    0  0.56517553531E+03  0.15536483808E+03 -0.25770165488E+03  0.11628178240E+04  0.97065623688E+03 0.  0.
         23    2    4    4    0    0  0.47330756024E+03 -0.61132610854E+02  0.28567371871E+03  0.56354240924E+03  0.90627428279E+02 0.  0.
         23    2    4    4    0    0  0.91867975078E+02  0.21649744894E+03 -0.54337537359E+03  0.59927541474E+03  0.92538401991E+02 0.  0.
          4    1    3    3  502    0 -0.91822073397E+01 -0.27725526319E+01 -0.34113437657E+01  0.10180238014E+02  0.00000000000E+00 0. -1.
         -3    1    3    3    0  502 -0.55599332798E+03 -0.15259228545E+03  0.40953826044E+03  0.70720193233E+03  0.00000000000E+00 0.  1.
         11    1    5    5    0    0  0.40621595971E+03 -0.31472635576E+02  0.26927696803E+03  0.48837692229E+03  0.00000000000E+00 0. -1.
        -11    1    5    5    0    0  0.67091600523E+02 -0.29659975278E+02  0.16396750679E+02  0.75165486941E+02  0.00000000000E+00 0.  1.
          4    1    6    6  503    0  0.27502727078E+02  0.79594220093E+02 -0.30938793319E+03  0.32064393503E+03  0.00000000000E+00 0. -1.
         -4    1    6    6    0  503  0.64365248000E+02  0.13690322884E+03 -0.23398744040E+03  0.27863147971E+03  0.00000000000E+00 0.  1.
<mgrwt>
<rscale>  0 0.18743324E+04</rscale>
<asrwt>0</asrwt>
<pdfrwt beam="1">  1        2 0.13321344E+00 0.18743324E+04</pdfrwt>
<pdfrwt beam="2">  1       -1 0.15604810E+00 0.18743324E+04</pdfrwt>
<totfact> 0.10381280E+01</totfact>
</mgrwt>
</event>
<event>
12    6  0.1611689E-007  0.1163668E+04  0.7818608E-02  0.9145266E-01
          2   -1    0    0  501    0  0.00000000000E+00  0.00000000000E+00  0.12815690639E+04  0.12815690639E+04  0.00000000000E+00 0. -1.
         -1   -1    0    0    0  501 -0.00000000000E+00 -0.00000000000E+00 -0.26415345105E+03  0.26415345105E+03  0.00000000000E+00 0.  1.
         24    2    1    2    0    0  0.15382007652E+03  0.42815879053E+02  0.41399296845E+03  0.45089517712E+03  0.80140298121E+02 0.  0.
        254    2    1    2    0    0 -0.15382007652E+03 -0.42815879053E+02  0.60342264436E+03  0.10948273378E+04  0.89946328240E+03 0.  0.
         23    2    4    4    0    0 -0.30836782257E+03 -0.25174483772E+03 -0.23630178368E+02  0.40958279258E+03  0.93453203964E+02 0.  0.
         23    2    4    4    0    0  0.15454774604E+03  0.20892895867E+03  0.62705282273E+03  0.68524454521E+03  0.93960250445E+02 0.  0.
          4    1    3    3  502    0  0.83602801171E+02 -0.18990616491E+01  0.28791904927E+03  0.29981730059E+03  0.00000000000E+00 0. -1.
         -3    1    3    3    0  502  0.70217275353E+02  0.44714940702E+02  0.12607391917E+03  0.15107787653E+03  0.00000000000E+00 0.  1.
         11    1    5    5    0    0 -0.57383926612E+02 -0.49907314327E+02  0.32413315058E+02  0.82669692450E+02  0.00000000000E+00 0.  1.
        -11    1    5    5    0    0 -0.25098389596E+03 -0.20183752339E+03 -0.56043493427E+02  0.32691310013E+03  0.00000000000E+00 0. -1.
          1    1    6    6  503    0  0.12922559933E+03  0.15018710302E+03  0.55282369378E+03  0.58725587084E+03  0.00000000000E+00 0. -1.
         -1    1    6    6    0  503  0.25322146714E+02  0.58741855641E+02  0.74229128953E+02  0.97988674363E+02  0.00000000000E+00 0.  1.
<mgrwt>
<rscale>  0 0.11636682E+04</rscale>
<asrwt>0</asrwt>
<pdfrwt beam="1">  1        2 0.19716447E+00 0.11636682E+04</pdfrwt>
<pdfrwt beam="2">  1       -1 0.40638993E-01 0.11636682E+04</pdfrwt>
<totfact> 0.11294949E+02</totfact>
</mgrwt>
</event>
<event>
12    6  0.1611689E-007  0.2051476E+04  0.7818608E-02  0.8582925E-01
          2   -1    0    0  501    0  0.00000000000E+00  0.00000000000E+00  0.46779849909E+03  0.46779849909E+03  0.00000000000E+00 0. -1.
         -1   -1    0    0    0  501 -0.00000000000E+00 -0.00000000000E+00 -0.22491277807E+04  0.22491277807E+04  0.00000000000E+00 0.  1.
         24    2    1    2    0    0 -0.13193578748E+03  0.59337383135E+03 -0.14619170154E+04  0.15853536502E+04  0.81518589260E+02 0.  0.
        254    2    1    2    0    0  0.13193578748E+03 -0.59337383135E+03 -0.31941226621E+03  0.11315726296E+04  0.89940695161E+03 0.  0.
         23    2    4    4    0    0  0.44808316281E+03 -0.62654112359E+02 -0.12732003400E+03  0.47855334365E+03  0.89993627978E+02 0.  0.
         23    2    4    4    0    0 -0.31614737532E+03 -0.53071971899E+03 -0.19209223220E+03  0.65301928599E+03  0.89006624178E+02 0.  0.
          4    1    3    3  502    0 -0.57358076591E+02  0.18477676191E+03 -0.37925372561E+03  0.42575320208E+03  0.00000000000E+00 0. -1.
         -1    1    3    3    0  502 -0.74577710891E+02  0.40859706944E+03 -0.10826632898E+04  0.11596004481E+04  0.00000000000E+00 0.  1.
         11    1    5    5    0    0  0.23173202947E+03 -0.18422862122E+01 -0.99151202185E+02  0.25205969212E+03  0.00000000000E+00 0. -1.
        -11    1    5    5    0    0  0.21635113334E+03 -0.60811826147E+02 -0.28168831820E+02  0.22649365153E+03  0.00000000000E+00 0.  1.
          1    1    6    6  503    0 -0.15540209421E+03 -0.34575553399E+03 -0.11607523018E+03  0.39644691856E+03  0.00000000000E+00 0. -1.
         -1    1    6    6    0  503 -0.16074528111E+03 -0.18496418500E+03 -0.76017002027E+02  0.25657236743E+03  0.00000000000E+00 0.  1.
<mgrwt>
<rscale>  0 0.20514762E+04</rscale>
<asrwt>0</asrwt>
<pdfrwt beam="1">  1        2 0.71969002E-01 0.20514762E+04</pdfrwt>
<pdfrwt beam="2">  1       -1 0.34601965E+00 0.20514762E+04</pdfrwt>
<totfact> 0.11623168E+00</totfact>
</mgrwt>
</event>
<event>
12    6  0.1611689E-007  0.1811518E+04  0.7818608E-02  0.8700198E-01
         -1   -1    0    0    0  501 -0.00000000000E+00  0.00000000000E+00  0.31037730936E+03  0.31037730936E+03  0.00000000000E+00 0.  1.
          4   -1    0    0  501    0  0.00000000000E+00 -0.00000000000E+00 -0.26432334552E+04  0.26432334552E+04  0.00000000000E+00 0. -1.
         24    2    1    2    0    0 -0.22132339263E+02 -0.51324603731E+03 -0.15339182868E+03  0.54185279510E+03  0.78511548136E+02 0.  0.
        254    2    1    2    0    0  0.22132339263E+02  0.51324603731E+03 -0.21794643172E+04  0.24117579695E+04  0.89587971194E+03 0.  0.
         23    2    4    4    0    0  0.74204581377E+02  0.16694653938E+03 -0.19953313377E+04  0.20057117404E+04  0.90304881043E+02 0.  0.
         23    2    4    4    0    0 -0.52072242113E+02  0.34629949793E+03 -0.18413297944E+03  0.40604622903E+03  0.91289239922E+02 0.  0.
          4    1    3    3  502    0 -0.40620439343E+02 -0.46805129399E+03 -0.12862032216E+03  0.48709877968E+03  0.00000000000E+00 0. -1.
         -3    1    3    3    0  502  0.18488100079E+02 -0.45194743326E+02 -0.24771506521E+02  0.54754015416E+02  0.00000000000E+00 0.  1.
         11    1    5    5    0    0  0.32752385845E+02  0.33845591824E+02 -0.22371443072E+03  0.22861843621E+03  0.00000000000E+00 0. -1.
        -11    1    5    5    0    0  0.41452195532E+02  0.13310094755E+03 -0.17716169070E+04  0.17770933042E+04  0.00000000000E+00 0.  1.
          4    1    6    6  503    0 -0.18969566491E+01  0.26525634172E+02 -0.48048312791E+02  0.54916737657E+02  0.00000000000E+00 0. -1.
         -4    1    6    6    0  503 -0.50175285464E+02  0.31977386376E+03 -0.13608466665E+03  0.35112949138E+03  0.00000000000E+00 0.  1.
<mgrwt>
<rscale>  0 0.18115184E+04</rscale>
<asrwt>0</asrwt>
<pdfrwt beam="1">  1        4 0.40665128E+00 0.18115184E+04</pdfrwt>
<pdfrwt beam="2">  1       -1 0.47750357E-01 0.18115184E+04</pdfrwt>
<totfact> 0.10279530E-01</totfact>
</mgrwt>
</event>
<event>
12    6  0.1611689E-007  0.1513822E+04  0.7818608E-02  0.8875313E-01
          2   -1    0    0  501    0  0.00000000000E+00  0.00000000000E+00  0.30437966041E+04  0.30437966041E+04  0.00000000000E+00 0. -1.
         -1   -1    0    0    0  501 -0.00000000000E+00 -0.00000000000E+00 -0.18822356845E+03  0.18822356845E+03  0.00000000000E+00 0.  1.
         24    2    1    2    0    0  0.43594493807E+03  0.11812426008E+03  0.13027517959E+04  0.13810945647E+04  0.79111473921E+02 0.  0.
        254    2    1    2    0    0 -0.43594493807E+03 -0.11812426008E+03  0.15528212398E+04  0.18509256078E+04  0.90037240798E+03 0.  0.
         23    2    4    4    0    0 -0.58172986350E+03  0.74703943539E+02  0.14607106676E+04  0.15766665472E+04  0.90616959809E+02 0.  0.
         23    2    4    4    0    0  0.14578492543E+03 -0.19282820362E+03  0.92110572195E+02  0.27425906060E+03  0.91091790054E+02 0.  0.
          2    1    3    3  502    0  0.38433515843E+02  0.26019703495E+02  0.19879661056E+03  0.20414272576E+03  0.00000000000E+00 0. -1.
         -1    1    3    3    0  502  0.39751142222E+03  0.92104556588E+02  0.11039551853E+04  0.11769518390E+04  0.00000000000E+00 0.  1.
         11    1    5    5    0    0 -0.56846707560E+03  0.59273844495E+02  0.13856642076E+04  0.14989107715E+04  0.00000000000E+00 0. -1.
        -11    1    5    5    0    0 -0.13262787895E+02  0.15430099045E+02  0.75046459986E+02  0.77755775706E+02  0.00000000000E+00 0.  1.
          3    1    6    6  503    0  0.13125793451E+03 -0.16935273226E+03  0.43916674647E+02  0.21871823794E+03  0.00000000000E+00 0. -1.
         -3    1    6    6    0  503  0.14526990926E+02 -0.23475471363E+02  0.48193897547E+02  0.55540822661E+02  0.00000000000E+00 0.  1.
<mgrwt>
<rscale>  0 0.15138220E+04</rscale>
<asrwt>0</asrwt>
<pdfrwt beam="1">  1        2 0.46827637E+00 0.15138220E+04</pdfrwt>
<pdfrwt beam="2">  1       -1 0.28957474E-01 0.15138220E+04</pdfrwt>
<totfact> 0.19647081E+01</totfact>
</mgrwt>
</event>
